/*--------------------------------*- C++ -*----------------------------------*\
| =========                 |                                                 |
| \\      /  F ield         | OpenFOAM: The Open Source CFD Toolbox           |
|  \\    /   O peration     | Version:  2506                                  |
|   \\  /    A nd           | Website:  www.openfoam.com                      |
|    \\/     M anipulation  |                                                 |
\*---------------------------------------------------------------------------*/
FoamFile
{
    version     2.0;
    format      ascii;
    arch        "LSB;label=32;scalar=64";
    class       volVectorField;
    location    "0.09";
    object      Us;
}
// * * * * * * * * * * * * * * * * * * * * * * * * * * * * * * * * * * * * * //

dimensions      [0 1 -1 0 0 0 0];

internalField   nonuniform List<vector> 
1152
(
(-5.65425e-05 0.00026342 -1.33182e-05)
(-0.000248248 0.000359114 5.76565e-05)
(-0.000770961 0.00130172 -7.54581e-06)
(-0.00116598 -0.00029555 -0.000306191)
(0.000159088 0.000406842 0.000191269)
(-0.000263256 0.000323503 -7.11784e-05)
(-0.000116167 3.43061e-05 5.33969e-05)
(3.8965e-05 -0.000168055 0.000103874)
(0.000366788 3.91872e-05 0.000282476)
(0.000787959 3.15383e-06 0.000281035)
(0.000533055 -0.000147962 0.000235543)
(0.000123761 -0.000309904 0.000451698)
(0.000594821 -0.000444017 -1.94134e-05)
(-0.000357426 -0.000392342 -4.80558e-06)
(-4.74671e-05 -0.000347582 4.98251e-05)
(-0.000263598 -0.00128038 2.22144e-05)
(0.000444431 -0.000352365 0.0133326)
(0.00137093 0.00016156 0.0133213)
(0.0033705 -0.000916291 0.0112369)
(0.00187406 -0.000832416 0.0118725)
(0.00162504 -0.000508687 0.0125103)
(0.00294424 -0.000465505 0.0139152)
(0.00161838 -0.000496585 0.0136261)
(0.000747401 -0.000666252 0.0141714)
(0.000850446 0.00118564 0.0115532)
(0.00203353 -0.000260029 0.0125523)
(0.00188913 -0.000145606 0.0146026)
(0.00100534 0.00157479 0.0135586)
(0.00213164 0.000882547 0.0130331)
(0.000959163 -0.000107634 0.0116211)
(0.000393964 0.000679858 0.0131132)
(0.00116058 0.0020642 0.0120558)
(0.000125406 -0.000801259 0.0152628)
(0.000445758 -0.000743273 0.0155714)
(0.00149731 -0.000407822 0.0156339)
(0.000596876 2.82912e-05 0.0153842)
(0.000225928 -0.000726151 0.0155549)
(0.000431007 -0.00035517 0.0146481)
(0.000360795 -0.000155605 0.0146059)
(-3.87034e-05 -6.51841e-05 0.014767)
(0.000465881 -0.000441444 0.0148579)
(0.000730774 -6.72907e-05 0.013987)
(0.0004749 0.000629328 0.0143948)
(-0.000164304 0.000207998 0.0140405)
(0.000333412 0.000734148 0.0146041)
(0.000777679 -0.000215942 0.0139824)
(0.00109387 0.000600808 0.0145512)
(0.000744033 0.000221388 0.0141815)
(0.000226033 -0.000146996 0.0155633)
(0.000165166 -7.01317e-06 0.0157914)
(-0.000341351 -0.000140826 0.0155488)
(-0.000849615 0.000383016 0.0148386)
(0.000266631 -1.33518e-06 0.0154948)
(0.000254764 -8.03707e-05 0.0155121)
(-0.000530701 0.000429564 0.0154776)
(-0.00069813 0.000499316 0.0159076)
(0.000697662 -0.000376138 0.01494)
(0.000362088 -0.000509904 0.0149183)
(3.31635e-05 0.000134908 0.0155082)
(0.000139686 -8.51397e-05 0.0148184)
(0.00068343 -0.000907022 0.0146019)
(6.89365e-05 -0.00084955 0.0143632)
(6.03972e-05 -0.00029099 0.015071)
(3.78599e-05 -0.000511727 0.0149182)
(0.00010193 -2.50548e-05 0.0156491)
(7.66549e-05 0.000146725 0.0160118)
(1.94909e-05 0.000137677 0.0161546)
(-0.000280559 0.000144927 0.0160243)
(0.000204047 0.000114483 0.0155381)
(2.85063e-05 0.000242244 0.0159927)
(-0.000163324 -0.000237672 0.0161608)
(-0.000451011 -0.000116624 0.0165617)
(0.00046396 2.51486e-05 0.015483)
(5.76798e-05 0.000412186 0.0159093)
(-0.000194854 -0.000491036 0.0162635)
(-0.000207164 -0.000238281 0.0166251)
(3.10715e-05 -0.000332988 0.0150425)
(-0.00013986 -0.000416509 0.0153704)
(-0.000141857 -0.000797687 0.0162652)
(0.000219333 -7.85394e-05 0.0158795)
(-1.8188e-05 0.000263499 0.0156959)
(-0.000186789 3.23467e-05 0.0162927)
(-7.54939e-05 0.000102927 0.016534)
(-8.75316e-05 0.000509732 0.0163536)
(-0.000100734 0.000129738 0.0155311)
(0.000167477 -6.03114e-05 0.0158315)
(-8.08341e-05 -0.000140572 0.0161386)
(-0.000180539 0.000297341 0.0165019)
(-0.000206668 -0.000129592 0.0155423)
(-0.000240372 0.000309823 0.0158169)
(0.000360039 7.78186e-08 0.0163215)
(-8.70305e-05 7.55921e-05 0.0160999)
(-0.000776817 -0.000402847 0.0152201)
(-0.000665082 -0.000339701 0.0158162)
(-0.000986818 -0.000325196 0.0165709)
(6.37297e-05 0.000378647 0.0162103)
(-0.000383904 0.000269634 0.0156699)
(-0.000482483 -5.56086e-05 0.0158714)
(-0.000561258 4.76841e-05 0.0164296)
(-0.000385211 0.00108228 0.0155907)
(-0.000355361 0.000427755 0.0155198)
(-0.000120408 0.000178253 0.0154487)
(-0.00026112 0.000440859 0.0164221)
(-0.000674207 0.000606422 0.0168007)
(-0.000363708 -0.000367445 0.0157124)
(-0.000298156 6.5319e-05 0.0157021)
(-6.98272e-06 0.0014014 0.0160583)
(0.000108363 -0.000328035 0.0156102)
(-0.0010199 -0.000451939 0.0157891)
(-0.000796414 -4.72883e-05 0.015457)
(-8.25257e-05 -0.000380238 0.0167543)
(0.000655894 4.20172e-05 0.0159687)
(0 0 0)
(0 0 0)
(0 0 0)
(0 0 0)
(0 0 0)
(0 0 0)
(0 0 0)
(0 0 0)
(0 0 0)
(0 0 0)
(0 0 0)
(0 0 0)
(0 0 0)
(0 0 0)
(0 0 0)
(0 0 0)
(0 0 0)
(0 0 0)
(0 0 0)
(0 0 0)
(0 0 0)
(0 0 0)
(0 0 0)
(0 0 0)
(0 0 0)
(0 0 0)
(0 0 0)
(0 0 0)
(0 0 0)
(0 0 0)
(0 0 0)
(0 0 0)
(0 0 0)
(0 0 0)
(0 0 0)
(0 0 0)
(0 0 0)
(0 0 0)
(0 0 0)
(0 0 0)
(0 0 0)
(0 0 0)
(0 0 0)
(0 0 0)
(0 0 0)
(0 0 0)
(0 0 0)
(0 0 0)
(0 0 0)
(0 0 0)
(0 0 0)
(0 0 0)
(0 0 0)
(0 0 0)
(0 0 0)
(0 0 0)
(0 0 0)
(0 0 0)
(0 0 0)
(0 0 0)
(0 0 0)
(0 0 0)
(0 0 0)
(0 0 0)
(0 0 0)
(0 0 0)
(0 0 0)
(0 0 0)
(0 0 0)
(0 0 0)
(0 0 0)
(0 0 0)
(0 0 0)
(0 0 0)
(0 0 0)
(0 0 0)
(0 0 0)
(0 0 0)
(0 0 0)
(0 0 0)
(0 0 0)
(0 0 0)
(0 0 0)
(0 0 0)
(0 0 0)
(0 0 0)
(0 0 0)
(0 0 0)
(0 0 0)
(0 0 0)
(0 0 0)
(0 0 0)
(0 0 0)
(0 0 0)
(0 0 0)
(0 0 0)
(0 0 0)
(0 0 0)
(0 0 0)
(0 0 0)
(0 0 0)
(0 0 0)
(0 0 0)
(0 0 0)
(0 0 0)
(0 0 0)
(0 0 0)
(0 0 0)
(0 0 0)
(0 0 0)
(0 0 0)
(0 0 0)
(0 0 0)
(0 0 0)
(0 0 0)
(0 0 0)
(0 0 0)
(0 0 0)
(0 0 0)
(0 0 0)
(0 0 0)
(0 0 0)
(0 0 0)
(0 0 0)
(0 0 0)
(0 0 0)
(0 0 0)
(0 0 0)
(0 0 0)
(0 0 0)
(0 0 0)
(0 0 0)
(0 0 0)
(0 0 0)
(0 0 0)
(0 0 0)
(0 0 0)
(0 0 0)
(0 0 0)
(0 0 0)
(0 0 0)
(0 0 0)
(0 0 0)
(0 0 0)
(0 0 0)
(0 0 0)
(0 0 0)
(0 0 0)
(0 0 0)
(0 0 0)
(0 0 0)
(0 0 0)
(0 0 0)
(0 0 0)
(0 0 0)
(0 0 0)
(0 0 0)
(0 0 0)
(0 0 0)
(0 0 0)
(0 0 0)
(0 0 0)
(0 0 0)
(0 0 0)
(0 0 0)
(0 0 0)
(0 0 0)
(0 0 0)
(0 0 0)
(0 0 0)
(0 0 0)
(0 0 0)
(0 0 0)
(0 0 0)
(0 0 0)
(0 0 0)
(0 0 0)
(0 0 0)
(0 0 0)
(0 0 0)
(0 0 0)
(0 0 0)
(0 0 0)
(0 0 0)
(0 0 0)
(0 0 0)
(0 0 0)
(0 0 0)
(0 0 0)
(0 0 0)
(0 0 0)
(0 0 0)
(0 0 0)
(0 0 0)
(0 0 0)
(0 0 0)
(0 0 0)
(0 0 0)
(0 0 0)
(0 0 0)
(0 0 0)
(0 0 0)
(0 0 0)
(0 0 0)
(0 0 0)
(0 0 0)
(0 0 0)
(0 0 0)
(0 0 0)
(0 0 0)
(0 0 0)
(0 0 0)
(0 0 0)
(0 0 0)
(0 0 0)
(0 0 0)
(0 0 0)
(0 0 0)
(0 0 0)
(0 0 0)
(0 0 0)
(0 0 0)
(0 0 0)
(0 0 0)
(0 0 0)
(0 0 0)
(0 0 0)
(0 0 0)
(0 0 0)
(0 0 0)
(0 0 0)
(0 0 0)
(0 0 0)
(0 0 0)
(0 0 0)
(0 0 0)
(0 0 0)
(0 0 0)
(0 0 0)
(0 0 0)
(0 0 0)
(0 0 0)
(0 0 0)
(0 0 0)
(0 0 0)
(0 0 0)
(0 0 0)
(0 0 0)
(0 0 0)
(0 0 0)
(0 0 0)
(0 0 0)
(0 0 0)
(0 0 0)
(0 0 0)
(0 0 0)
(0 0 0)
(0 0 0)
(0 0 0)
(0 0 0)
(0 0 0)
(0 0 0)
(0 0 0)
(0 0 0)
(0 0 0)
(0 0 0)
(0 0 0)
(0 0 0)
(0 0 0)
(0 0 0)
(0 0 0)
(0 0 0)
(-0.00033641 -0.000279068 -0.000346666)
(-0.000151723 -0.000525587 2.48146e-05)
(0.000677306 -0.000234735 0.000536392)
(0.000793348 -5.95675e-05 -0.000244098)
(0.000461886 -0.000774942 -0.000706917)
(-0.000376262 -0.00034056 8.89126e-05)
(-5.00334e-05 -0.000266125 -0.00042593)
(0.000349722 0.000336464 0.000175607)
(-0.00042699 -0.000593592 1.39232e-05)
(-0.000311319 -0.000154709 7.74664e-06)
(-0.00084184 0.000224751 -0.000367263)
(-0.000106487 0.000282495 -0.000345867)
(-4.7347e-05 -0.000388343 0.000255029)
(-0.000108302 -0.000106467 7.98435e-05)
(0.000326348 0.000184989 -0.00222663)
(0.000258833 -7.98516e-05 -9.11977e-05)
(0.000433765 -0.00020797 0.0133927)
(0.00176962 0.000707157 0.0127919)
(0.00163909 0.00107772 0.0124698)
(0.000744818 0.00226282 0.0103086)
(0.000993617 -0.000623556 0.0105152)
(0.000203778 0.00118592 0.0117749)
(-7.82633e-05 0.000713098 0.0111102)
(0.000981913 0.000672457 0.0109071)
(0.000780123 -0.000176268 0.0115493)
(0.000422819 -0.000762936 0.0121161)
(0.000601287 -6.4211e-05 0.0104771)
(0.000406838 -0.000270484 0.0117986)
(0.00177778 -0.000652478 0.0104273)
(0.00180206 -0.000762321 0.0104536)
(0.000758018 -0.000143186 0.0090017)
(0.000501238 -0.000709899 0.0092692)
(0.000928779 -0.00096991 0.0137447)
(0.000835189 -0.000356582 0.0134431)
(0.00100778 0.000109314 0.0135433)
(0.000349179 0.000421999 0.0126652)
(0.000865131 -0.00190098 0.0128567)
(0.000937105 -0.000807352 0.0132639)
(0.000461248 0.000254467 0.0132274)
(0.000563121 0.0001624 0.012869)
(0.00151077 -0.000103323 0.0128411)
(0.00118534 0.000178645 0.0124863)
(-9.82669e-05 0.000254742 0.0129055)
(-0.000546895 0.000954507 0.0117058)
(0.00178229 0.000194073 0.0114382)
(0.00169509 -0.000387037 0.0115214)
(0.000190476 -0.000455124 0.0112341)
(-0.00167728 0.00113419 0.0108575)
(0.000741207 -0.000815632 0.0150508)
(0.00045934 -0.000958722 0.014523)
(0.00013343 1.93464e-05 0.0142604)
(-0.00132349 -0.000744599 0.0127171)
(0.000233998 -0.00111764 0.0134186)
(0.000688553 -0.00190862 0.0129874)
(-0.000277813 -0.000427671 0.013929)
(-0.00026585 -2.18922e-05 0.0132237)
(0.000914818 -0.00102384 0.0122285)
(-0.000462726 -0.000359633 0.0124582)
(-0.000106004 -0.000170341 0.0133331)
(-0.000612956 0.000919946 0.0120015)
(0.000719535 -0.000365393 0.0122905)
(0.00154134 -0.000397798 0.0102076)
(-0.00100802 8.60778e-05 0.0115883)
(-0.00104678 0.00124481 0.0118442)
(0.000400777 -0.000503543 0.0147167)
(-0.00056301 -0.000307523 0.0165667)
(-0.000164886 -0.00152773 0.0145583)
(-0.000669321 -0.000766786 0.0151063)
(0.000693605 -0.00122754 0.0132147)
(0.000553986 -0.000880777 0.0142093)
(-0.000889097 -0.00115926 0.0127448)
(-0.000977855 -0.000202275 0.0134772)
(0.000783183 -0.00168606 0.0127572)
(0.000389166 -0.000924247 0.012623)
(-0.000492064 -0.000535998 0.0103929)
(-0.000559437 -0.000756882 0.0121916)
(0.000475689 -2.77345e-05 0.00919856)
(0.00051343 3.69872e-05 0.0119922)
(-0.00130832 3.77618e-05 0.0110636)
(-0.00160986 0.000418024 0.0099117)
(-0.000314729 -0.000492672 0.0152436)
(-0.000994792 -0.000640085 0.0155079)
(-0.00110072 -0.00148249 0.014387)
(0.00127459 -1.07792e-05 0.0157342)
(0.00019474 -0.00124718 0.0140839)
(-3.95008e-05 -0.000972629 0.0142675)
(-0.000217547 -0.00330686 0.0126231)
(0.000603835 -0.00109701 0.0133548)
(-8.62044e-05 -0.00104189 0.0118109)
(4.73346e-05 -0.00188557 0.0130588)
(0.000564121 -0.00192791 0.0103682)
(-0.00110228 -0.00137004 0.0118185)
(0.000472011 -5.99454e-05 0.00955859)
(-5.92073e-05 -0.000878819 0.00882531)
(-0.00208614 0.000131729 0.0107912)
(-0.00159142 -4.53707e-05 0.00808174)
(-0.000345026 7.39288e-05 0.0149541)
(-0.000713322 0.000100138 0.0155892)
(1.62962e-05 -0.00186243 0.0145974)
(-0.000778144 0.000267494 0.0154367)
(-0.000585615 -0.00130278 0.0140441)
(0.00048672 -0.000429612 0.0146824)
(0.00121776 -0.00369594 0.0126303)
(-0.000849041 -0.000928948 0.0134377)
(0.000322025 -0.00152321 0.0116403)
(0.000268771 8.3304e-05 0.0125612)
(0.000894989 -0.00292698 0.0117655)
(-0.000852829 8.49333e-05 0.0113874)
(0.000578707 5.5131e-05 0.00819172)
(0.00186455 8.8127e-05 0.00960501)
(0.00109049 -0.000543884 0.011055)
(-0.000846655 0.000877132 0.00744345)
(0 0 0)
(0 0 0)
(0 0 0)
(0 0 0)
(0 0 0)
(0 0 0)
(0 0 0)
(0 0 0)
(0 0 0)
(0 0 0)
(0 0 0)
(0 0 0)
(0 0 0)
(0 0 0)
(0 0 0)
(0 0 0)
(0 0 0)
(0 0 0)
(0 0 0)
(0 0 0)
(0 0 0)
(0 0 0)
(0 0 0)
(0 0 0)
(0 0 0)
(0 0 0)
(0 0 0)
(0 0 0)
(0 0 0)
(0 0 0)
(0 0 0)
(0 0 0)
(0 0 0)
(0 0 0)
(0 0 0)
(0 0 0)
(0 0 0)
(0 0 0)
(0 0 0)
(0 0 0)
(0 0 0)
(0 0 0)
(0 0 0)
(0 0 0)
(0 0 0)
(0 0 0)
(0 0 0)
(0 0 0)
(0 0 0)
(0 0 0)
(0 0 0)
(0 0 0)
(0 0 0)
(0 0 0)
(0 0 0)
(0 0 0)
(0 0 0)
(0 0 0)
(0 0 0)
(0 0 0)
(0 0 0)
(0 0 0)
(0 0 0)
(0 0 0)
(0 0 0)
(0 0 0)
(0 0 0)
(0 0 0)
(0 0 0)
(0 0 0)
(0 0 0)
(0 0 0)
(0 0 0)
(0 0 0)
(0 0 0)
(0 0 0)
(0 0 0)
(0 0 0)
(0 0 0)
(0 0 0)
(0 0 0)
(0 0 0)
(0 0 0)
(0 0 0)
(0 0 0)
(0 0 0)
(0 0 0)
(0 0 0)
(0 0 0)
(0 0 0)
(0 0 0)
(0 0 0)
(0 0 0)
(0 0 0)
(0 0 0)
(0 0 0)
(0 0 0)
(0 0 0)
(0 0 0)
(0 0 0)
(0 0 0)
(0 0 0)
(0 0 0)
(0 0 0)
(0 0 0)
(0 0 0)
(0 0 0)
(0 0 0)
(0 0 0)
(0 0 0)
(0 0 0)
(0 0 0)
(0 0 0)
(0 0 0)
(0 0 0)
(0 0 0)
(0 0 0)
(0 0 0)
(0 0 0)
(0 0 0)
(0 0 0)
(0 0 0)
(0 0 0)
(0 0 0)
(0 0 0)
(0 0 0)
(0 0 0)
(0 0 0)
(0 0 0)
(0 0 0)
(0 0 0)
(0 0 0)
(0 0 0)
(0 0 0)
(0 0 0)
(0 0 0)
(0 0 0)
(0 0 0)
(0 0 0)
(0 0 0)
(0 0 0)
(0 0 0)
(0 0 0)
(0 0 0)
(0 0 0)
(0 0 0)
(0 0 0)
(0 0 0)
(0 0 0)
(0 0 0)
(0 0 0)
(0 0 0)
(0 0 0)
(0 0 0)
(0 0 0)
(0 0 0)
(0 0 0)
(0 0 0)
(0 0 0)
(0 0 0)
(0 0 0)
(0 0 0)
(0 0 0)
(0 0 0)
(0 0 0)
(0 0 0)
(0 0 0)
(0 0 0)
(0 0 0)
(0 0 0)
(0 0 0)
(0 0 0)
(0 0 0)
(0 0 0)
(0 0 0)
(0 0 0)
(0 0 0)
(0 0 0)
(0 0 0)
(0 0 0)
(0 0 0)
(0 0 0)
(0 0 0)
(0 0 0)
(0 0 0)
(0 0 0)
(0 0 0)
(0 0 0)
(0 0 0)
(0 0 0)
(0 0 0)
(0 0 0)
(0 0 0)
(0 0 0)
(0 0 0)
(0 0 0)
(0 0 0)
(0 0 0)
(0 0 0)
(0 0 0)
(0 0 0)
(0 0 0)
(0 0 0)
(0 0 0)
(0 0 0)
(0 0 0)
(0 0 0)
(0 0 0)
(0 0 0)
(0 0 0)
(0 0 0)
(0 0 0)
(0 0 0)
(0 0 0)
(0 0 0)
(0 0 0)
(0 0 0)
(0 0 0)
(0 0 0)
(0 0 0)
(0 0 0)
(0 0 0)
(0 0 0)
(0 0 0)
(0 0 0)
(0 0 0)
(0 0 0)
(0 0 0)
(0 0 0)
(0 0 0)
(0 0 0)
(0 0 0)
(0 0 0)
(0 0 0)
(0 0 0)
(0 0 0)
(0 0 0)
(0 0 0)
(0 0 0)
(0 0 0)
(0 0 0)
(0 0 0)
(0 0 0)
(0 0 0)
(0 0 0)
(0 0 0)
(0 0 0)
(0 0 0)
(0 0 0)
(0 0 0)
(0 0 0)
(0 0 0)
(0 0 0)
(0 0 0)
(0 0 0)
(0 0 0)
(0 0 0)
(0 0 0)
(0 0 0)
(0 0 0)
(0 0 0)
(0 0 0)
(0 0 0)
(0 0 0)
(0 0 0)
(0 0 0)
(0 0 0)
(0 0 0)
(0 0 0)
(0 0 0)
(0 0 0)
(0 0 0)
(-0.000332997 -0.000259814 -0.000219076)
(-5.6828e-05 -0.000376177 -0.000244133)
(-0.000265388 -0.000217648 0.000239449)
(-0.000268813 -2.56221e-05 -0.000133143)
(3.36564e-05 -0.000601451 -0.000225005)
(0.000645941 -0.000201918 -7.51717e-05)
(-0.000148647 -0.000729365 -0.000338134)
(-5.94038e-05 -0.000827381 -0.000128953)
(0.000141833 -0.000795044 0.000211187)
(0.000254115 -0.00048039 -7.90513e-05)
(0.000313128 -0.00021088 0.000211051)
(4.847e-05 1.44047e-05 0.00020991)
(8.26233e-05 -0.000669429 -9.93311e-05)
(0.000740707 -0.00107787 -0.000197834)
(-7.73312e-06 -7.92615e-05 0.000396629)
(8.63239e-05 -0.000115049 -0.000136151)
(0.000963232 -9.65674e-05 0.0127377)
(0.000145158 0.00135181 0.0115856)
(0.000150644 0.00310205 0.0125224)
(-0.00030856 0.00282754 0.0111978)
(-0.000386327 0.000289134 0.0134252)
(-0.000563188 0.00127985 0.0121825)
(-0.00123835 0.000985794 0.0130901)
(-0.00166992 0.00207845 0.0116407)
(9.2201e-06 0.00132958 0.0114704)
(0.000289163 0.000463556 0.0117417)
(-0.000745566 0.000494835 0.0122206)
(-0.000215952 7.69208e-05 0.011246)
(0.000652963 0.00171756 0.0124781)
(-8.88214e-05 0.000383339 0.0103963)
(0.000234988 0.000798432 0.0111557)
(0.000768824 -0.000505614 0.00943679)
(0.000374499 0.000762495 0.0140707)
(0.000229832 0.00100632 0.0145673)
(-0.000417564 0.00141591 0.014289)
(-0.000658235 0.00221977 0.0116075)
(-0.000116482 0.000347152 0.0142531)
(-0.000414877 8.6895e-05 0.01414)
(-0.000600128 0.000843494 0.0145087)
(-0.00067294 0.00112021 0.0130665)
(-0.000516689 -0.000125443 0.0138249)
(-0.000871991 0.000169815 0.0134315)
(-0.000838126 0.000367612 0.0128878)
(-0.000945287 0.0010361 0.0117368)
(0.000157507 -2.0568e-05 0.0151273)
(0.00139344 0.000287547 0.0150686)
(-0.000295343 0.00124831 0.0115743)
(-0.000471096 0.00107068 0.0102533)
(-0.00141383 0.00020856 0.0147028)
(-0.000500514 0.00033159 0.0153245)
(-0.00170795 -0.00140979 0.0168736)
(-0.000503435 -0.000231323 0.0121111)
(-0.00090947 -0.000359618 0.014035)
(-0.00131743 -0.000182532 0.0144814)
(-0.00121966 -0.00154548 0.0142623)
(-0.00104365 -0.00146925 0.0156484)
(-0.000427717 0.000354485 0.014641)
(-0.000700162 0.000149834 0.0131696)
(-0.000712808 -0.000334496 0.0129271)
(0.000100378 -0.00073964 0.0137062)
(-8.59461e-05 0.000134761 0.0140146)
(-0.000911565 0.000619784 0.0134791)
(-0.00081841 0.000793937 0.0108041)
(0.000310567 -0.000314126 0.0115148)
(-0.00109119 -2.73694e-05 0.0151729)
(-0.00130499 -0.000169162 0.0149568)
(-0.000524857 -0.000569736 0.01454)
(-0.00023725 -0.00106868 0.0148145)
(-0.00086837 -0.000332171 0.0153825)
(-0.00128902 -0.00016394 0.014348)
(-6.52886e-05 -0.00147679 0.0146287)
(0.000745905 -0.0017432 0.0124921)
(-0.000803412 -0.000300016 0.0157326)
(-0.00091632 -0.000156998 0.0138757)
(-0.00115683 0.000103728 0.0130048)
(-0.000401744 0.000149025 0.0121271)
(-0.000136905 -0.000724553 0.0157118)
(0.00011505 -0.000504143 0.0136582)
(-0.000887981 -0.000138825 0.0116631)
(-4.81463e-05 0.00080637 0.00917022)
(-0.000386436 0.000374996 0.0162427)
(-0.000990459 0.000998175 0.01477)
(-0.00104403 0.000952681 0.0139292)
(-0.000549449 0.00166896 0.0120974)
(-4.94574e-05 0.00022939 0.0155465)
(0.000711331 0.000686313 0.0145561)
(0.00103454 0.000366239 0.0129408)
(-0.000306536 0.00128881 0.00902879)
(-0.000287585 -9.56706e-07 0.0158169)
(0.000449038 -0.000829617 0.0146615)
(0.000329553 -0.000267349 0.0126959)
(0.000320467 6.22722e-05 0.00901236)
(0.000220396 0.000180741 0.0151902)
(-0.000463272 0.000222681 0.0139685)
(-0.00105434 0.000256116 0.0124721)
(-0.00099305 -0.000139097 0.00809373)
(-0.000148448 0.000699802 0.0157538)
(0.000735453 0.00150454 0.0149759)
(0.00101297 0.00119935 0.0136963)
(4.22726e-05 0.00123215 0.0134665)
(0.000472429 0.00217741 0.0140459)
(0.00215036 0.000850008 0.0139133)
(0.00218522 5.55516e-05 0.0126208)
(0.00153208 0.00352375 0.00878516)
(0.000685737 5.97052e-05 0.0149574)
(0.00149318 -0.000673424 0.0144717)
(0.000989801 -0.000912445 0.0111962)
(-0.00112718 0.00124667 0.00944046)
(-0.000773047 -0.00084852 0.015427)
(0.000737077 0.000798663 0.0147054)
(0.000845484 -0.000296365 0.0117696)
(-0.000613552 -0.00032622 0.00728573)
(0 0 0)
(0 0 0)
(0 0 0)
(0 0 0)
(0 0 0)
(0 0 0)
(0 0 0)
(0 0 0)
(0 0 0)
(0 0 0)
(0 0 0)
(0 0 0)
(0 0 0)
(0 0 0)
(0 0 0)
(0 0 0)
(0 0 0)
(0 0 0)
(0 0 0)
(0 0 0)
(0 0 0)
(0 0 0)
(0 0 0)
(0 0 0)
(0 0 0)
(0 0 0)
(0 0 0)
(0 0 0)
(0 0 0)
(0 0 0)
(0 0 0)
(0 0 0)
(0 0 0)
(0 0 0)
(0 0 0)
(0 0 0)
(0 0 0)
(0 0 0)
(0 0 0)
(0 0 0)
(0 0 0)
(0 0 0)
(0 0 0)
(0 0 0)
(0 0 0)
(0 0 0)
(0 0 0)
(0 0 0)
(0 0 0)
(0 0 0)
(0 0 0)
(0 0 0)
(0 0 0)
(0 0 0)
(0 0 0)
(0 0 0)
(0 0 0)
(0 0 0)
(0 0 0)
(0 0 0)
(0 0 0)
(0 0 0)
(0 0 0)
(0 0 0)
(0 0 0)
(0 0 0)
(0 0 0)
(0 0 0)
(0 0 0)
(0 0 0)
(0 0 0)
(0 0 0)
(0 0 0)
(0 0 0)
(0 0 0)
(0 0 0)
(0 0 0)
(0 0 0)
(0 0 0)
(0 0 0)
(0 0 0)
(0 0 0)
(0 0 0)
(0 0 0)
(0 0 0)
(0 0 0)
(0 0 0)
(0 0 0)
(0 0 0)
(0 0 0)
(0 0 0)
(0 0 0)
(0 0 0)
(0 0 0)
(0 0 0)
(0 0 0)
(0 0 0)
(0 0 0)
(0 0 0)
(0 0 0)
(0 0 0)
(0 0 0)
(0 0 0)
(0 0 0)
(0 0 0)
(0 0 0)
(0 0 0)
(0 0 0)
(0 0 0)
(0 0 0)
(0 0 0)
(0 0 0)
(0 0 0)
(0 0 0)
(0 0 0)
(0 0 0)
(0 0 0)
(0 0 0)
(0 0 0)
(0 0 0)
(0 0 0)
(0 0 0)
(0 0 0)
(0 0 0)
(0 0 0)
(0 0 0)
(0 0 0)
(0 0 0)
(0 0 0)
(0 0 0)
(0 0 0)
(0 0 0)
(0 0 0)
(0 0 0)
(0 0 0)
(0 0 0)
(0 0 0)
(0 0 0)
(0 0 0)
(0 0 0)
(0 0 0)
(0 0 0)
(0 0 0)
(0 0 0)
(0 0 0)
(0 0 0)
(0 0 0)
(0 0 0)
(0 0 0)
(0 0 0)
(0 0 0)
(0 0 0)
(0 0 0)
(0 0 0)
(0 0 0)
(0 0 0)
(0 0 0)
(0 0 0)
(0 0 0)
(0 0 0)
(0 0 0)
(0 0 0)
(0 0 0)
(0 0 0)
(0 0 0)
(0 0 0)
(0 0 0)
(0 0 0)
(0 0 0)
(0 0 0)
(0 0 0)
(0 0 0)
(0 0 0)
(0 0 0)
(0 0 0)
(0 0 0)
(0 0 0)
(0 0 0)
(0 0 0)
(0 0 0)
(0 0 0)
(0 0 0)
(0 0 0)
(0 0 0)
(0 0 0)
(0 0 0)
(0 0 0)
(0 0 0)
(0 0 0)
(0 0 0)
(0 0 0)
(0 0 0)
(0 0 0)
(0 0 0)
(0 0 0)
(0 0 0)
(0 0 0)
(0 0 0)
(0 0 0)
(0 0 0)
(0 0 0)
(0 0 0)
(0 0 0)
(0 0 0)
(0 0 0)
(0 0 0)
(0 0 0)
(0 0 0)
(0 0 0)
(0 0 0)
(0 0 0)
(0 0 0)
(0 0 0)
(0 0 0)
(0 0 0)
(0 0 0)
(0 0 0)
(0 0 0)
(0 0 0)
(0 0 0)
(0 0 0)
(0 0 0)
(0 0 0)
(0 0 0)
(0 0 0)
(0 0 0)
(0 0 0)
(0 0 0)
(0 0 0)
(0 0 0)
(0 0 0)
(0 0 0)
(0 0 0)
(0 0 0)
(0 0 0)
(0 0 0)
(0 0 0)
(0 0 0)
(0 0 0)
(0 0 0)
(0 0 0)
(0 0 0)
(0 0 0)
(0 0 0)
(0 0 0)
(0 0 0)
(0 0 0)
(0 0 0)
(0 0 0)
(0 0 0)
(0 0 0)
(0 0 0)
(0 0 0)
(0 0 0)
(0 0 0)
(0 0 0)
(0 0 0)
(0 0 0)
(0 0 0)
(0 0 0)
(0 0 0)
(0 0 0)
(0 0 0)
(0 0 0)
(0 0 0)
(0 0 0)
(0 0 0)
(0 0 0)
(0 0 0)
(0 0 0)
(0 0 0)
(0 0 0)
)
;

boundaryField
{
    inlet
    {
        type            zeroGradient;
    }
    outlet
    {
        type            zeroGradient;
    }
    wall
    {
        type            zeroGradient;
    }
    procBoundary3to1
    {
        type            processor;
        value           nonuniform List<vector> 
192
(
(-0.000135615 -3.67015e-05 9.43788e-06)
(0.000221866 0.000434441 -0.000526056)
(0.000955714 0.00120522 -0.000308424)
(0.00123325 0.000555806 1.44862e-05)
(0.00116745 0.000936715 0.014009)
(0.00316121 0.000988439 0.0128972)
(0.0021145 -0.000268564 0.0142311)
(0.000306436 0.00106644 0.0147156)
(0.000588661 0.000483215 0.014511)
(0.000876284 4.42742e-05 0.0145917)
(-0.000520556 0.000777304 0.0159668)
(-7.53573e-05 0.00120153 0.0156052)
(0.000399718 0.000253079 0.0156443)
(0.000102459 0.000321193 0.0162342)
(-0.000302266 -0.00018242 0.0157929)
(-0.000119279 0.000519372 0.0165886)
(0.000297177 0.000139141 0.0156953)
(0.000165696 0.000366517 0.0162118)
(-0.000103793 8.49757e-05 0.015901)
(-0.000346202 0.000472605 0.0166343)
(-2.51204e-05 0.000106836 0.0157911)
(-3.56447e-05 -1.92073e-05 0.0159986)
(-0.000310623 -4.46101e-05 0.0161496)
(-0.000173878 0.000145404 0.0165012)
(-0.000410254 0.000266925 0.0157142)
(-0.000466639 -0.00026305 0.0160199)
(-0.000662462 -0.000242728 0.0160177)
(-0.00056325 0.00073037 0.0165976)
(0 0 0)
(0.000191525 -0.000198214 0.0163401)
(-0.00235656 -0.000834147 0.0161685)
(0 0 0)
(0 0 0)
(0 0 0)
(0 0 0)
(0 0 0)
(0 0 0)
(0 0 0)
(0 0 0)
(0 0 0)
(0 0 0)
(0 0 0)
(0 0 0)
(0 0 0)
(0 0 0)
(0 0 0)
(0 0 0)
(0 0 0)
(0 0 0)
(0 0 0)
(0 0 0)
(0 0 0)
(0 0 0)
(0 0 0)
(0 0 0)
(0 0 0)
(0 0 0)
(0 0 0)
(0 0 0)
(0 0 0)
(0 0 0)
(0 0 0)
(0 0 0)
(0 0 0)
(0 0 0)
(0 0 0)
(0 0 0)
(0 0 0)
(0 0 0)
(0 0 0)
(0 0 0)
(0 0 0)
(0 0 0)
(0 0 0)
(0 0 0)
(0 0 0)
(0 0 0)
(0 0 0)
(0 0 0)
(0 0 0)
(0 0 0)
(0 0 0)
(0 0 0)
(0 0 0)
(0 0 0)
(0 0 0)
(0 0 0)
(0 0 0)
(0 0 0)
(0 0 0)
(0 0 0)
(0 0 0)
(0 0 0)
(0 0 0)
(0 0 0)
(0 0 0)
(0.000248988 -0.000287535 -0.000556151)
(-0.000599784 -0.000355145 9.00898e-05)
(1.11255e-06 -7.48575e-05 7.90398e-05)
(-8.25867e-05 0.000301241 0.000496527)
(0.00119505 0.00084125 0.0127868)
(-0.000294023 0.00101793 0.0126372)
(-0.00121869 0.00247248 0.0113429)
(-0.00120996 0.00427098 0.0116071)
(-9.65509e-05 0.000564549 0.0155815)
(0.00101127 0.000637002 0.0141215)
(0.000711439 0.000131314 0.0128342)
(0.00041552 0.00129677 0.0110788)
(0.000263756 0.0014521 0.0161886)
(-5.47031e-05 0.00137705 0.0142807)
(-0.000685824 -0.000347158 0.0139886)
(-0.000692717 0.0010248 0.0114664)
(0.000175097 0.00100961 0.016293)
(-0.00129379 0.000869251 0.0143421)
(-0.000104042 0.00101263 0.0144916)
(-6.7328e-05 0.0033729 0.0117188)
(-0.000578165 -0.000142008 0.0159019)
(-0.00120796 0.000251943 0.0146581)
(-0.00068131 0.000760577 0.0132128)
(2.89551e-05 0.00141022 0.0100777)
(0.000412922 0.000168302 0.0158126)
(0.00113308 -0.00288342 0.0131369)
(-0.000209999 -0.000575953 0.0124409)
(-0.000281747 -0.000262992 0.00895317)
(0 0 0)
(0 0 0)
(0 0 0)
(0 0 0)
(0 0 0)
(0 0 0)
(0 0 0)
(0 0 0)
(0 0 0)
(0 0 0)
(0 0 0)
(0 0 0)
(0 0 0)
(0 0 0)
(0 0 0)
(0 0 0)
(0 0 0)
(0 0 0)
(0 0 0)
(0 0 0)
(0 0 0)
(0 0 0)
(0 0 0)
(0 0 0)
(0 0 0)
(0 0 0)
(0 0 0)
(0 0 0)
(0 0 0)
(0 0 0)
(0 0 0)
(0 0 0)
(0 0 0)
(0 0 0)
(0 0 0)
(0 0 0)
(0 0 0)
(0 0 0)
(0 0 0)
(0 0 0)
(0 0 0)
(0 0 0)
(0 0 0)
(0 0 0)
(0 0 0)
(0 0 0)
(0 0 0)
(0 0 0)
(0 0 0)
(0 0 0)
(0 0 0)
(0 0 0)
(0 0 0)
(0 0 0)
(0 0 0)
(0 0 0)
(0 0 0)
(0 0 0)
(0 0 0)
(0 0 0)
(0 0 0)
(0 0 0)
(0 0 0)
(0 0 0)
(0 0 0)
(0 0 0)
(0 0 0)
(0 0 0)
)
;
    }
    procBoundary3to2
    {
        type            processor;
        value           nonuniform List<vector> 
192
(
(-2.5235e-05 1.59802e-05 -0.000239421)
(-0.000268195 0.00108393 -0.0013045)
(0.000162027 7.20869e-05 -0.000617404)
(0.000715862 -0.000106619 -1.40721e-05)
(0.000432783 -0.000964286 0.0138855)
(2.20254e-05 -0.000482968 0.0139316)
(-0.000402654 0.000492404 0.0139736)
(0.000114369 0.00136956 0.0118402)
(-0.00013412 -6.69567e-06 0.0149896)
(0.00124031 -5.12951e-05 0.0146837)
(0.00115666 -0.000146571 0.0135732)
(0.000879127 -0.0005126 0.013283)
(0.000626209 -0.000157507 0.0151538)
(0.000849956 -0.00029386 0.015352)
(0.00104663 -0.000169066 0.0147926)
(0.00107469 -0.000604326 0.0144529)
(0.000257941 -0.000107469 0.0156329)
(0.000639997 0.000104576 0.0157689)
(0.000429628 -0.000184205 0.015116)
(0.000242234 -0.000865574 0.0150852)
(-9.17319e-06 0.000213715 0.015655)
(0.000112233 0.000224876 0.0156242)
(2.83918e-05 1.00137e-06 0.0156885)
(-0.000591609 -0.000132106 0.0150819)
(-0.000202746 0.000386305 0.0153608)
(-0.00026945 0.000640453 0.0154155)
(-0.000573958 0.00056758 0.0160041)
(9.1786e-06 0.000490969 0.015079)
(0 0 0)
(0 0 0)
(0 0 0)
(0 0 0)
(0 0 0)
(0 0 0)
(0 0 0)
(0 0 0)
(0 0 0)
(0 0 0)
(0 0 0)
(0 0 0)
(0 0 0)
(0 0 0)
(0 0 0)
(0 0 0)
(0 0 0)
(0 0 0)
(0 0 0)
(0 0 0)
(0 0 0)
(0 0 0)
(0 0 0)
(0 0 0)
(0 0 0)
(0 0 0)
(0 0 0)
(0 0 0)
(0 0 0)
(0 0 0)
(0 0 0)
(0 0 0)
(0 0 0)
(0 0 0)
(0 0 0)
(0 0 0)
(0 0 0)
(0 0 0)
(0 0 0)
(0 0 0)
(0 0 0)
(0 0 0)
(0 0 0)
(0 0 0)
(0 0 0)
(0 0 0)
(0 0 0)
(0 0 0)
(0 0 0)
(0 0 0)
(0 0 0)
(0 0 0)
(0 0 0)
(0 0 0)
(0 0 0)
(0 0 0)
(0 0 0)
(0 0 0)
(0 0 0)
(0 0 0)
(0 0 0)
(0 0 0)
(0 0 0)
(0 0 0)
(0 0 0)
(0 0 0)
(0 0 0)
(0 0 0)
(0.000755123 -0.000181751 -0.000282013)
(-0.000360382 -0.000160017 -0.000261051)
(-0.000348345 -0.000412216 -4.94579e-05)
(0.000205253 1.67446e-05 -0.000179124)
(-0.000126108 0.00171917 0.0121338)
(0.000291976 0.000462742 0.0112342)
(0.000429971 -0.000245205 0.0120268)
(0.000988281 -0.00011608 0.0111818)
(0.000974909 -0.000155916 0.0140514)
(0.000693628 -0.000140587 0.0133447)
(0.00182121 -0.0011452 0.0128265)
(0.00302099 -0.000335458 0.0119974)
(0.00170596 -0.00126338 0.0148284)
(0.00039727 -0.00118976 0.0147421)
(0.000952375 -0.00146678 0.0126507)
(0.00071098 -0.0009635 0.010375)
(0.000357315 -0.000825627 0.0144186)
(0.000914745 -0.000935692 0.0139597)
(0.00107814 -0.00134624 0.0121614)
(0.00192577 0.000254957 0.00995177)
(-0.000311387 7.42677e-05 0.0143522)
(0.000476151 4.38089e-05 0.0144079)
(0.000744912 -0.000779229 0.0128775)
(0.000827763 -0.000195971 0.00900789)
(-0.000691849 2.98525e-05 0.0139772)
(-0.000618241 -0.00118337 0.0145368)
(-0.000674363 -0.000979867 0.0131015)
(-7.73631e-05 -0.000260625 0.00986577)
(0 0 0)
(0 0 0)
(0 0 0)
(-0.00238569 -0.00221855 0.00786074)
(0 0 0)
(0 0 0)
(0 0 0)
(0 0 0)
(0 0 0)
(0 0 0)
(0 0 0)
(0 0 0)
(0 0 0)
(0 0 0)
(0 0 0)
(0 0 0)
(0 0 0)
(0 0 0)
(0 0 0)
(0 0 0)
(0 0 0)
(0 0 0)
(0 0 0)
(0 0 0)
(0 0 0)
(0 0 0)
(0 0 0)
(0 0 0)
(0 0 0)
(0 0 0)
(0 0 0)
(0 0 0)
(0 0 0)
(0 0 0)
(0 0 0)
(0 0 0)
(0 0 0)
(0 0 0)
(0 0 0)
(0 0 0)
(0 0 0)
(0 0 0)
(0 0 0)
(0 0 0)
(0 0 0)
(0 0 0)
(0 0 0)
(0 0 0)
(0 0 0)
(0 0 0)
(0 0 0)
(0 0 0)
(0 0 0)
(0 0 0)
(0 0 0)
(0 0 0)
(0 0 0)
(0 0 0)
(0 0 0)
(0 0 0)
(0 0 0)
(0 0 0)
(0 0 0)
(0 0 0)
(0 0 0)
(0 0 0)
(0 0 0)
(0 0 0)
)
;
    }
}


// ************************************************************************* //
