/*--------------------------------*- C++ -*----------------------------------*\
| =========                 |                                                 |
| \\      /  F ield         | OpenFOAM: The Open Source CFD Toolbox           |
|  \\    /   O peration     | Version:  2506                                  |
|   \\  /    A nd           | Website:  www.openfoam.com                      |
|    \\/     M anipulation  |                                                 |
\*---------------------------------------------------------------------------*/
FoamFile
{
    version     2.0;
    format      ascii;
    arch        "LSB;label=32;scalar=64";
    class       volScalarField;
    location    "0.09";
    object      voidfraction;
}
// * * * * * * * * * * * * * * * * * * * * * * * * * * * * * * * * * * * * * //

dimensions      [0 0 0 0 0 0 0];

internalField   nonuniform List<scalar> 
1152
(
0.428563
0.436463
0.578664
0.41013
0.525997
0.46543
0.420663
0.510197
0.539164
0.454897
0.44173
0.486497
0.40223
0.420663
0.47333
0.541797
0.462797
0.53653
0.42593
0.40223
0.44173
0.44963
0.462797
0.44963
0.431196
0.478597
0.52863
0.44173
0.507564
0.554964
0.48123
0.41803
0.381163
0.346929
0.44963
0.486497
0.349563
0.389063
0.454897
0.383796
0.378529
0.383796
0.370629
0.39433
0.45753
0.41803
0.370629
0.431196
0.383796
0.370629
0.360096
0.46543
0.38643
0.38643
0.349563
0.39433
0.333763
0.428563
0.39433
0.370629
0.378529
0.439097
0.436463
0.41803
0.491764
0.296896
0.452263
0.317962
0.412763
0.344296
0.38643
0.373263
0.407496
0.39433
0.346929
0.41013
0.357463
0.339029
0.436463
0.399596
0.415396
0.48123
0.407496
0.365363
0.454897
0.404863
0.43383
0.454897
0.383796
0.420663
0.360096
0.439097
0.47333
0.436463
0.396963
0.383796
0.607631
0.523364
0.578664
0.739298
0.568131
0.531264
0.644498
0.765632
0.620798
0.620798
0.668198
0.723498
0.639231
0.689265
0.726132
0.655031
1
1
1
1
1
1
1
1
1
1
1
1
1
1
1
1
1
1
1
1
1
1
1
1
1
1
1
1
1
1
1
1
1
1
1
1
1
1
1
1
1
1
1
1
1
1
1
1
1
1
1
1
1
1
1
1
1
1
1
1
1
1
1
1
1
1
1
1
1
1
1
1
1
1
1
1
1
1
1
1
1
1
1
1
1
1
1
1
1
1
1
1
1
1
1
1
1
1
1
1
1
1
1
1
1
1
1
1
1
1
1
1
1
1
1
1
1
1
1
1
1
1
1
1
1
1
1
1
1
1
1
1
1
1
1
1
1
1
1
1
1
1
1
1
1
1
1
1
1
1
1
1
1
1
1
1
1
1
1
1
1
1
1
1
1
1
1
1
1
1
1
1
1
1
1
1
1
1
1
1
1
1
1
1
1
1
1
1
1
1
1
1
1
1
1
1
1
1
1
1
1
1
1
1
1
1
1
1
1
1
1
1
1
1
1
1
1
1
1
1
1
1
1
1
1
1
1
1
1
1
1
1
1
1
1
1
1
1
1
1
1
1
1
1
1
1
1
1
1
1
1
1
1
1
1
1
1
1
1
1
1
1
1
1
1
1
1
1
1
1
1
1
0.488804
0.472155
0.457583
0.412943
0.445055
0.404079
0.451562
0.45236
0.457994
0.422793
0.498152
0.430693
0.45952
0.460683
0.482541
0.463137
0.436181
0.466741
0.457583
0.382276
0.482641
0.484802
0.429403
0.405212
0.459973
0.450279
0.461609
0.452352
0.409409
0.432097
0.434709
0.479324
0.338452
0.369293
0.435116
0.500563
0.361039
0.389834
0.396164
0.372572
0.374913
0.469308
0.403142
0.350248
0.420147
0.411135
0.43036
0.455043
0.408616
0.380121
0.390182
0.412943
0.321243
0.46106
0.398934
0.365318
0.368979
0.422793
0.468918
0.424505
0.378985
0.411135
0.480367
0.441554
0.446204
0.41531
0.447954
0.320941
0.436211
0.370841
0.398934
0.397959
0.448104
0.427022
0.386088
0.368812
0.384354
0.424475
0.44558
0.506302
0.471263
0.41531
0.470421
0.382276
0.33893
0.392208
0.443252
0.44148
0.485688
0.382621
0.464045
0.375
0.346771
0.3997
0.454276
0.463137
0.674238
0.713069
0.640528
0.662661
0.59761
0.726969
0.728551
0.702606
0.727019
0.598281
0.63214
0.603961
0.690387
0.647443
0.510805
0.641192
1
1
1
1
1
1
1
1
1
1
1
1
1
1
1
1
1
1
1
1
1
1
1
1
1
1
1
1
1
1
1
1
1
1
1
1
1
1
1
1
1
1
1
1
1
1
1
1
1
1
1
1
1
1
1
1
1
1
1
1
1
1
1
1
1
1
1
1
1
1
1
1
1
1
1
1
1
1
1
1
1
1
1
1
1
1
1
1
1
1
1
1
1
1
1
1
1
1
1
1
1
1
1
1
1
1
1
1
1
1
1
1
1
1
1
1
1
1
1
1
1
1
1
1
1
1
1
1
1
1
1
1
1
1
1
1
1
1
1
1
1
1
1
1
1
1
1
1
1
1
1
1
1
1
1
1
1
1
1
1
1
1
1
1
1
1
1
1
1
1
1
1
1
1
1
1
1
1
1
1
1
1
1
1
1
1
1
1
1
1
1
1
1
1
1
1
1
1
1
1
1
1
1
1
1
1
1
1
1
1
1
1
1
1
1
1
1
1
1
1
1
1
1
1
1
1
1
1
1
1
1
1
1
1
1
1
1
1
1
1
1
1
1
1
1
1
1
1
1
1
1
1
1
1
1
1
1
1
1
1
1
1
1
1
1
1
1
1
1
1
1
1
0.433675
0.469375
0.430301
0.411199
0.48569
0.437318
0.424908
0.498797
0.492888
0.440483
0.466482
0.410792
0.430467
0.434226
0.412129
0.44695
0.416134
0.449477
0.543054
0.441623
0.466741
0.458686
0.486223
0.49308
0.380553
0.490341
0.493279
0.408618
0.412943
0.499508
0.489481
0.476626
0.393581
0.372094
0.368979
0.445203
0.393655
0.385086
0.41645
0.403512
0.460792
0.365696
0.485971
0.43036
0.364752
0.4306
0.316213
0.417274
0.366017
0.394203
0.410519
0.421937
0.412603
0.41595
0.433365
0.45306
0.470421
0.418323
0.446992
0.482541
0.391038
0.408839
0.409035
0.47123
0.393581
0.422946
0.396673
0.436254
0.377414
0.35897
0.399536
0.397795
0.393391
0.340767
0.422631
0.43036
0.461134
0.387079
0.415223
0.444252
0.463745
0.467164
0.424366
0.46131
0.404483
0.411202
0.437593
0.411135
0.470421
0.365696
0.427503
0.378179
0.417324
0.368945
0.405941
0.449648
0.704308
0.683836
0.638004
0.670701
0.745552
0.698478
0.75474
0.735106
0.714348
0.7424
0.724714
0.67387
0.732758
0.59743
0.613243
0.673566
1
1
1
1
1
1
1
1
1
1
1
1
1
1
1
1
1
1
1
1
1
1
1
1
1
1
1
1
1
1
1
1
1
1
1
1
1
1
1
1
1
1
1
1
1
1
1
1
1
1
1
1
1
1
1
1
1
1
1
1
1
1
1
1
1
1
1
1
1
1
1
1
1
1
1
1
1
1
1
1
1
1
1
1
1
1
1
1
1
1
1
1
1
1
1
1
1
1
1
1
1
1
1
1
1
1
1
1
1
1
1
1
1
1
1
1
1
1
1
1
1
1
1
1
1
1
1
1
1
1
1
1
1
1
1
1
1
1
1
1
1
1
1
1
1
1
1
1
1
1
1
1
1
1
1
1
1
1
1
1
1
1
1
1
1
1
1
1
1
1
1
1
1
1
1
1
1
1
1
1
1
1
1
1
1
1
1
1
1
1
1
1
1
1
1
1
1
1
1
1
1
1
1
1
1
1
1
1
1
1
1
1
1
1
1
1
1
1
1
1
1
1
1
1
1
1
1
1
1
1
1
1
1
1
1
1
1
1
1
1
1
1
1
1
1
1
1
1
1
1
1
1
1
1
1
1
1
1
1
1
1
1
1
1
1
1
1
1
1
1
1
1
)
;

boundaryField
{
    inlet
    {
        type            fixedValue;
        value           uniform 1;
    }
    outlet
    {
        type            fixedValue;
        value           uniform 1;
    }
    wall
    {
        type            zeroGradient;
    }
    procBoundary3to1
    {
        type            processor;
        value           nonuniform List<scalar> 
192
(
0.499664
0.41803
0.38643
0.396963
0.444363
0.452263
0.452263
0.483863
0.396963
0.310062
0.454897
0.362729
0.43383
0.439097
0.41013
0.396963
0.373263
0.483863
0.346929
0.494397
0.349563
0.396963
0.378529
0.415396
0.38643
0.523364
0.48123
0.626064
1
0.973667
0.978933
1
1
1
1
1
1
1
1
1
1
1
1
1
1
1
1
1
1
1
1
1
1
1
1
1
1
1
1
1
1
1
1
1
1
1
1
1
1
1
1
1
1
1
1
1
1
1
1
1
1
1
1
1
1
1
1
1
1
1
1
1
1
1
1
1
0.488804
0.400836
0.519316
0.525738
0.471263
0.518016
0.436235
0.488155
0.446204
0.422946
0.45206
0.384354
0.401099
0.38536
0.438213
0.368247
0.411122
0.403047
0.434257
0.386144
0.358499
0.420735
0.384804
0.371826
0.574003
0.701524
0.588551
0.606273
1
1
1
1
1
1
1
1
1
1
1
1
1
1
1
1
1
1
1
1
1
1
1
1
1
1
1
1
1
1
1
1
1
1
1
1
1
1
1
1
1
1
1
1
1
1
1
1
1
1
1
1
1
1
1
1
1
1
1
1
1
1
1
1
1
1
1
1
)
;
    }
    procBoundary3to2
    {
        type            processor;
        value           nonuniform List<scalar> 
192
(
0.46543
0.462797
0.391696
0.478597
0.478597
0.43383
0.468063
0.420663
0.428563
0.399596
0.333763
0.341663
0.428563
0.375896
0.44173
0.375896
0.381163
0.399596
0.415396
0.431196
0.420663
0.341663
0.412763
0.304796
0.549697
0.565497
0.615531
0.731398
1
1
1
1
1
1
1
1
1
1
1
1
1
1
1
1
1
1
1
1
1
1
1
1
1
1
1
1
1
1
1
1
1
1
1
1
1
1
1
1
1
1
1
1
1
1
1
1
1
1
1
1
1
1
1
1
1
1
1
1
1
1
1
1
1
1
1
1
0.488804
0.438422
0.469863
0.491734
0.443699
0.394203
0.45206
0.475627
0.486298
0.445055
0.416454
0.450572
0.416134
0.36325
0.48371
0.466679
0.323417
0.372094
0.368979
0.448782
0.313394
0.447266
0.349198
0.45952
0.624121
0.577711
0.596463
0.506051
1
1
1
0.99821
1
1
1
1
1
1
1
1
1
1
1
1
1
1
1
1
1
1
1
1
1
1
1
1
1
1
1
1
1
1
1
1
1
1
1
1
1
1
1
1
1
1
1
1
1
1
1
1
1
1
1
1
1
1
1
1
1
1
1
1
1
1
1
1
)
;
    }
}


// ************************************************************************* //
