FoamFile
{version 2.0; format ascii;class Cloud<passiveParticle>; location 0;object  positions;}
2523
(
( 0.0116205 -0.00457825 0.0044941 ) 0 
( 0.00184808 -0.0132215 0.0033831 ) 0 
( 0.00482833 -0.00856335 0.00162478 ) 0 
( 0.00966953 -0.00120251 0.00622736 ) 0 
( 0.00452428 -0.00406807 0.00579563 ) 0 
( 0.00518798 -0.00422423 0.000731878 ) 0 
( 0.00816056 -0.00254416 0.0038814 ) 0 
( 0.00183744 -0.0122403 0.00199404 ) 0 
( 0.00995637 -0.00109766 0.00240632 ) 0 
( 0.0118975 -0.00194113 0.000499797 ) 0 
( 0.00166755 -0.00680368 0.00147737 ) 0 
( 0.0109386 -0.00581649 0.00392099 ) 0 
( 0.0071854 -0.00902923 0.00227146 ) 0 
( 0.000611378 -0.00728969 0.00220223 ) 0 
( 0.00636785 -0.00372671 0.00623219 ) 0 
( 0.00989608 -0.00551319 0.00433455 ) 0 
( 0.00451456 -0.00958255 0.00647748 ) 0 
( 0.00163307 -0.00472971 0.00224351 ) 0 
( 0.00756179 -0.00402172 0.00562868 ) 0 
( 0.00833422 -0.00412745 0.00403485 ) 0 
( 0.00589867 -0.000596937 0.00355368 ) 0 
( 0.00146205 -0.00756784 0.00759795 ) 0 
( 0.0122693 -0.00367501 0.00517252 ) 0 
( 0.00899578 -0.00461449 0.0010303 ) 0 
( 0.00952698 -0.00490984 0.0027074 ) 0 
( 0.00307688 -0.00151368 0.00219228 ) 0 
( 0.00784376 -0.00649333 0.00319219 ) 0 
( 0.00182304 -0.00611527 0.00750015 ) 0 
( 0.0060836 -0.00462512 0.00656686 ) 0 
( 0.00284758 -0.00181837 0.000499935 ) 0 
( 0.00761547 -0.00141284 0.00124028 ) 0 
( 0.00979528 -0.00291163 0.000499667 ) 0 
( 0.00705735 -0.00195944 0.000499734 ) 0 
( 0.0025079 -0.00996085 0.00655884 ) 0 
( 0.00954949 -0.00695406 0.00627387 ) 0 
( 0.000219823 -0.0117955 0.00140639 ) 0 
( 0.00275691 -0.0114961 0.0016311 ) 0 
( 0.00330619 -0.00202897 0.00136673 ) 0 
( 0.00927837 -0.00263164 0.0049645 ) 0 
( 0.00175238 -0.00932263 0.00641211 ) 0 
( 0.0110178 -0.00238898 0.00475886 ) 0 
( 0.0025529 -0.00848491 0.00049987 ) 0 
( 0.00660566 -0.00107143 0.00588033 ) 0 
( 0.00756044 -0.00392217 0.00463381 ) 0 
( 0.00383632 -0.00863504 0.00141875 ) 0 
( 0.00128585 -0.000258357 0.0055885 ) 0 
( 0.00456384 -0.0074541 0.000499822 ) 0 
( 0.00621898 -0.0102263 0.00177277 ) 0 
( 0.0120039 -0.00398181 0.000499638 ) 0 
( 0.00284242 -0.00243302 0.00579018 ) 0 
( 0.00545456 -0.00177142 0.000860915 ) 0 
( 0.00438275 -0.00570887 0.00109879 ) 0 
( 0.00107977 -0.012302 0.00134459 ) 0 
( 0.0102106 -0.000109165 0.00140559 ) 0 
( 0.0028995 -0.00900373 0.00138152 ) 0 
( 0.0103467 -0.00715118 0.00179923 ) 0 
( 0.00898765 -0.00577651 0.00668412 ) 0 
( 0.0129872 -0.00308824 0.00255869 ) 0 
( 0.00252069 -0.00450826 0.00183988 ) 0 
( 0.00680402 -0.00641979 0.00736773 ) 0 
( 0.00829987 -0.00488781 0.0023798 ) 0 
( 0.00110248 -0.00274366 0.00667152 ) 0 
( 0.00856615 -0.00695622 0.00125936 ) 0 
( 0.0103572 -0.00842054 0.00326276 ) 0 
( 0.0022653 -0.00720246 0.00485319 ) 0 
( 0.00454147 -0.0125541 0.00489651 ) 0 
( 0.00675329 -0.00457603 0.00582605 ) 0 
( 0.00906906 -0.00172036 0.00296023 ) 0 
( 0.00651649 -0.00371491 0.00126207 ) 0 
( 0.00930471 -2.08826e-05 0.00223774 ) 0 
( 0.00390076 -0.00860322 0.00290991 ) 0 
( 0.0121359 -0.00556147 0.00581341 ) 0 
( 0.00450449 -0.00637989 0.0026085 ) 0 
( 0.0095182 -2.45085e-06 0.0035646 ) 0 
( 0.00320379 -0.000370406 0.00571707 ) 0 
( 0.00364603 -0.00584837 0.00349499 ) 0 
( 0.00516294 -0.00826956 0.00717683 ) 0 
( 0.00909381 -0.00974093 0.00509899 ) 0 
( 0.00663671 -0.00369145 0.00418826 ) 0 
( 0.0041971 -0.00392073 0.00459323 ) 0 
( 0.0032116 -0.0109253 0.00645421 ) 0 
( 0.00367878 -0.00608969 0.000499658 ) 0 
( 0.0045656 -0.00750919 0.00550821 ) 0 
( 0.0115377 -0.00169481 0.00646273 ) 0 
( 0.00589069 -0.00355194 0.000499633 ) 0 
( 0.0103523 -0.00514611 0.00335679 ) 0 
( 0.00619316 -0.00242319 0.00285118 ) 0 
( 0.00524264 -0.0022499 0.00259374 ) 0 
( 0.0128736 -0.00278135 0.00143009 ) 0 
( 0.00520392 -0.000926144 0.00133311 ) 0 
( 0.00165362 -0.000978969 0.00389054 ) 0 
( 0.00880131 -0.00155255 0.00106703 ) 0 
( 0.00514489 -0.0116952 0.00266866 ) 0 
( 0.000987928 -0.00679416 0.00801739 ) 0 
( 0.00315355 -0.000656845 0.00168277 ) 0 
( 0.0119042 -0.0043243 0.00671105 ) 0 
( 0.00306018 -0.00802378 0.00126459 ) 0 
( 0.00222669 -0.00733492 0.00211391 ) 0 
( 0.00772035 -0.00643099 0.00112971 ) 0 
( 0.00237005 -0.01114 0.00497783 ) 0 
( 0.0016299 -0.00473542 0.00817931 ) 0 
( 0.0086122 -0.00812496 0.0069116 ) 0 
( 0.00461241 -0.012528 0.00705715 ) 0 
( 0.00726518 -0.00145388 0.00338378 ) 0 
( 0.00809804 -0.00298282 0.000499739 ) 0 
( 0.0019351 -0.00474204 0.00325782 ) 0 
( 0.00172878 -0.00561433 0.00664024 ) 0 
( 0.00297257 -0.00503557 0.00676201 ) 0 
( 0.00357605 -0.00705303 0.000746695 ) 0 
( 0.00707054 -0.00453608 0.00144902 ) 0 
( 0.00656416 -0.00842387 0.0010565 ) 0 
( 0.00118337 -0.00315935 0.00574087 ) 0 
( 0.00457418 -0.011591 0.00348299 ) 0 
( 0.007406 -0.00325853 0.00176582 ) 0 
( 0.0079183 -0.000177462 0.00433706 ) 0 
( 0.010788 -0.00215702 0.00375035 ) 0 
( 0.00693527 -0.00686661 0.00518903 ) 0 
( 0.00812563 -0.0101002 0.00362754 ) 0 
( 0.00964684 -0.000331973 0.00693236 ) 0 
( 0.00787529 -0.0083432 0.00250389 ) 0 
( 0.00562584 -0.00438174 0.00285311 ) 0 
( 0.0111461 -0.000191576 0.00273582 ) 0 
( 0.000447507 -0.0121992 0.00758548 ) 0 
( 0.0019679 -0.00278663 0.00255842 ) 0 
( 0.00724799 -0.0112116 0.00677637 ) 0 
( 0.0070852 -0.00484912 0.000499686 ) 0 
( 0.00387769 -0.00280003 0.00288683 ) 0 
( 0.00228964 -0.0113029 0.00661446 ) 0 
( 0.00751091 -0.0105256 0.00578149 ) 0 
( 0.00409458 -0.0100081 0.00536141 ) 0 
( 0.00599642 -0.00879406 0.00700603 ) 0 
( 0.00686221 -0.0103669 0.00096806 ) 0 
( 0.00578963 -0.00970177 0.00528363 ) 0 
( 0.000647547 -0.00759129 0.00337525 ) 0 
( 0.00169183 -0.00909944 0.000499605 ) 0 
( 0.0116693 -0.00438062 0.00135337 ) 0 
( 0.0109151 -0.000959216 0.00532819 ) 0 
( 0.00167773 -0.0084337 0.00453921 ) 0 
( 0.00798885 -0.00278501 0.00662326 ) 0 
( 0.00952528 -0.00934801 0.00591104 ) 0 
( 0.00454896 -0.00814196 0.00457225 ) 0 
( 0.0104781 -0.00418879 0.00112457 ) 0 
( 0.00253793 -0.00655901 0.00413804 ) 0 
( 0.00546869 -0.00860397 0.00355417 ) 0 
( 0.000100037 -0.00950048 0.00131759 ) 0 
( 0.00524134 -0.0122782 0.00127373 ) 0 
( 0.00313815 -0.00116903 0.00337958 ) 0 
( 0.0121146 -0.00560906 0.00131258 ) 0 
( 0.0101007 -0.00372853 0.00351904 ) 0 
( 0.00897686 -0.00987464 0.004102 ) 0 
( 0.00561292 -0.00801355 0.00630621 ) 0 
( 0.000458611 -0.00327734 0.00148851 ) 0 
( 0.00043311 -0.00421401 0.00439885 ) 0 
( 0.00627957 -0.00207781 0.00694614 ) 0 
( 0.00955791 -0.00381295 0.00123283 ) 0 
( 0.00733347 -0.00512634 0.00404139 ) 0 
( 0.00981701 -0.00904726 0.00500318 ) 0 
( 0.0108179 -0.00124585 0.00289174 ) 0 
( 0.0122025 -0.00189163 0.00425036 ) 0 
( 0.00300465 -0.0114792 0.000499851 ) 0 
( 0.00977147 -0.00543629 0.00115183 ) 0 
( 0.0112578 -0.00264007 0.00699792 ) 0 
( 0.00739625 -0.00416452 0.00367792 ) 0 
( 0.0100591 -0.00565543 0.00542553 ) 0 
( 0.000939789 -0.00356504 0.00381937 ) 0 
( 0.0108318 -0.00112671 0.00186191 ) 0 
( 0.00144526 -0.00738027 0.00281048 ) 0 
( 0.0065558 -0.00606036 0.00646871 ) 0 
( 0.00265733 -0.0130678 0.000499878 ) 0 
( 0.00486507 -0.0114532 0.00450593 ) 0 
( 0.00473379 -0.00139573 0.00209805 ) 0 
( 0.00484896 -0.00306535 0.00210564 ) 0 
( 0.0083406 -0.000883973 0.00492816 ) 0 
( 0.0102175 -0.00712469 0.00699805 ) 0 
( 0.0110963 -0.00567166 0.00294436 ) 0 
( 0.00163308 -0.000138627 0.0033491 ) 0 
( 0.000536231 -0.0110156 0.00653706 ) 0 
( 0.0100737 -0.00648502 0.00416984 ) 0 
( 0.00523572 -0.00585322 0.00304189 ) 0 
( 0.000116032 -0.0117304 0.00258829 ) 0 
( 0.00227217 -0.00103287 0.00810992 ) 0 
( 0.00704788 -0.00595782 0.00347448 ) 0 
( 0.00138733 -0.0102315 0.00621156 ) 0 
( 0.0106873 -0.000515727 0.003563 ) 0 
( 0.0109981 -0.000597574 0.00103001 ) 0 
( 0.000765058 -0.00981525 0.00515461 ) 0 
( 0.00140267 -0.00442781 0.0040752 ) 0 
( 0.0114801 -0.00440985 0.00279036 ) 0 
( 0.00487303 -0.00941311 0.00555971 ) 0 
( 0.00901409 -0.00546146 0.000499673 ) 0 
( 0.00389636 -0.0117275 0.00743645 ) 0 
( 0.00124211 -0.000942762 0.0029014 ) 0 
( 0.000178338 -0.0133489 0.00287472 ) 0 
( 0.00186768 -0.00390209 0.00576131 ) 0 
( 0.00653447 -0.00689482 0.00242796 ) 0 
( 0.00304258 -0.0119458 0.0064758 ) 0 
( 0.0104363 -0.00832514 0.00122393 ) 0 
( 0.0035738 -0.00912381 0.00382186 ) 0 
( 0.0016135 -0.0132512 0.00660544 ) 0 
( 0.0125225 -0.00462598 0.00295626 ) 0 
( 0.00990052 -0.00206623 0.00667483 ) 0 
( 0.0115768 -0.00290893 0.00243024 ) 0 
( 0.00654938 -0.00585034 0.00212788 ) 0 
( 0.00520856 -0.0100613 0.00153747 ) 0 
( 0.00473709 -0.00653867 0.00730094 ) 0 
( 0.00256429 -0.00220361 0.00672283 ) 0 
( 0.0124378 -0.00159 0.00517684 ) 0 
( 0.00103908 -0.00388962 0.00202514 ) 0 
( 0.00114011 -0.0118112 0.00649549 ) 0 
( 0.00920523 -0.000695752 0.00540595 ) 0 
( 0.00920541 -0.00953268 0.000499865 ) 0 
( 0.0100755 -0.00235966 0.00442566 ) 0 
( 0.00917473 -0.000652886 0.0044073 ) 0 
( 0.00463643 -0.00119959 0.00546537 ) 0 
( 0.00338493 -0.00556188 0.00750546 ) 0 
( 0.00827221 -0.00182827 0.00203557 ) 0 
( 0.0025035 -0.00630651 0.00124561 ) 0 
( 0.00320677 -0.00740339 0.00458314 ) 0 
( 0.00472012 -0.0111837 0.00605916 ) 0 
( 0.00512323 -0.00677856 0.00359209 ) 0 
( 0.000424894 -0.00298533 0.0074323 ) 0 
( 0.00329597 -0.0017168 0.00851901 ) 0 
( 0.00850048 -0.00718428 0.0028903 ) 0 
( 0.00223215 -0.0083301 0.00221167 ) 0 
( 0.000349432 -0.00179886 0.00550611 ) 0 
( 0.000443677 -0.00455856 0.00760534 ) 0 
( 0.00596929 -0.0102541 0.0036347 ) 0 
( 0.000226548 -0.00305604 0.00333729 ) 0 
( 0.00404637 -0.000577696 0.00123957 ) 0 
( 0.00142465 -0.00854363 0.00286157 ) 0 
( 0.00935046 -0.00773768 0.00278773 ) 0 
( 0.004421 -0.0105634 0.0031865 ) 0 
( 0.00800364 -0.00894475 0.0067923 ) 0 
( 0.00108302 -0.00585359 0.00505923 ) 0 
( 0.00596486 -0.0119419 0.00576035 ) 0 
( 0.000272575 -0.00841078 0.0012945 ) 0 
( 0.008062 -0.00191477 0.000499735 ) 0 
( 0.0111746 -0.0045406 0.000499597 ) 0 
( 0.00578213 -0.0120329 0.0033619 ) 0 
( 0.00316469 -0.00802907 0.00693119 ) 0 
( 0.0014271 -0.00118478 0.00759821 ) 0 
( 0.0109483 -0.0059233 0.00579588 ) 0 
( 0.00195991 -0.000177324 0.0044493 ) 0 
( 0.00424347 -0.0126577 0.00349555 ) 0 
( 0.00953442 -0.0023717 0.00129973 ) 0 
( 0.0120589 -0.00347455 0.00151703 ) 0 
( 0.00568782 -0.0109855 0.00139723 ) 0 
( 0.0100199 -0.00759297 0.00566542 ) 0 
( 0.0101291 -0.000191138 0.00279351 ) 0 
( 0.00259867 -0.00226099 0.00464689 ) 0 
( 0.00477503 -0.0065322 0.00542026 ) 0 
( 0.00560105 -0.00109005 0.00570446 ) 0 
( 0.00834346 -0.0104219 0.00464865 ) 0 
( 0.00131137 -0.00461359 0.00510546 ) 0 
( 0.0038473 -0.00938508 0.00208039 ) 0 
( 0.0108593 -0.00439406 0.00677278 ) 0 
( 0.00161943 -0.00651097 0.00453036 ) 0 
( 0.00798247 -0.00138572 0.00679845 ) 0 
( 0.00632121 -0.0117589 0.00140023 ) 0 
( 0.000811748 -0.00942222 0.0060883 ) 0 
( 0.00751721 -0.00173716 0.00516526 ) 0 
( 0.0107552 -0.00317019 0.00402859 ) 0 
( 0.00295285 -0.0025415 0.00214924 ) 0 
( 0.00273768 -0.00133887 0.00624035 ) 0 
( 0.0102005 -0.00505714 0.00641813 ) 0 
( 0.00908618 -0.00898692 0.00673345 ) 0 
( 0.000554855 -0.00914515 0.00444302 ) 0 
( 0.00497853 -0.00517401 0.000499839 ) 0 
( 0.00125639 -0.00397692 0.00757685 ) 0 
( 0.00586553 -0.010556 0.00462156 ) 0 
( 0.00190974 -0.00643176 0.00242326 ) 0 
( 0.00979106 -0.00434399 0.00460102 ) 0 
( 0.00596172 -0.000884665 0.00662166 ) 0 
( 0.000185791 -0.00592032 0.00462331 ) 0 
( 0.00357647 -0.00390345 0.00123392 ) 0 
( 0.00633093 -0.00760138 0.0047265 ) 0 
( 0.0103482 -0.00320257 0.00128015 ) 0 
( 0.000758555 -0.0127282 0.00660661 ) 0 
( 0.0010182 -0.00511597 0.00339681 ) 0 
( 0.00321825 -0.0127451 0.00583919 ) 0 
( 0.0060868 -0.00251657 0.000499886 ) 0 
( 0.00601426 -0.0070582 0.00394915 ) 0 
( 0.00771256 -0.00892427 0.00330122 ) 0 
( 0.0127 -0.00411497 0.00438364 ) 0 
( 0.00186998 -0.00975461 0.00358669 ) 0 
( 0.00336012 -0.0034267 0.00586073 ) 0 
( 0.00997857 -0.00336227 0.00462817 ) 0 
( 0.00831569 -0.00253788 0.00521878 ) 0 
( 0.00307245 -0.00371306 0.00810839 ) 0 
( 0.00264067 -0.00596019 0.00694631 ) 0 
( 0.00210637 -0.0108452 0.000499672 ) 0 
( 0.00669777 -0.00960923 0.00569164 ) 0 
( 0.00467518 -0.00701984 0.00445475 ) 0 
( 0.00697948 -0.00800919 0.00536887 ) 0 
( 0.0107495 -0.00400969 0.00470604 ) 0 
( 0.004279 -0.00225662 0.00704057 ) 0 
( 0.0105564 -0.00678524 0.00611701 ) 0 
( 0.00449268 -0.0094487 0.00463438 ) 0 
( 0.00252846 -0.00331285 0.00529478 ) 0 
( 0.00420194 -0.00305489 0.00809418 ) 0 
( 0.0056487 -0.00338848 0.00273902 ) 0 
( 0.000111425 -0.00746563 0.00782521 ) 0 
( 0.00582667 -0.00941444 0.00624065 ) 0 
( 0.00273328 -0.00817965 0.00500813 ) 0 
( 0.0107341 -0.00644541 0.00242486 ) 0 
( 0.00164392 -0.00565444 0.00049985 ) 0 
( 0.00769153 -0.00611784 0.00530121 ) 0 
( 0.00955631 -0.00713858 0.00118724 ) 0 
( 0.00562048 -0.00282576 0.00356527 ) 0 
( 0.00881732 -0.00499774 0.00412969 ) 0 
( 0.00561622 -0.000140009 0.00601533 ) 0 
( 0.0124968 -0.00155247 0.00335713 ) 0 
( 0.0037039 -0.00801332 0.000499709 ) 0 
( 0.00398981 -0.0119775 0.00276957 ) 0 
( 0.00783324 -0.00974714 0.00273825 ) 0 
( 0.000922895 -0.00650706 0.00278612 ) 0 
( 0.00211834 -0.0104449 0.00426606 ) 0 
( 0.00686983 -0.00955848 0.00310033 ) 0 
( 0.0012715 -1.46202e-05 0.00219724 ) 0 
( 0.0108492 -0.00775198 0.00620105 ) 0 
( 0.00350044 -0.00445395 0.00206517 ) 0 
( 0.00669306 -0.00779357 0.00192361 ) 0 
( 0.00136739 -0.00748366 0.00451504 ) 0 
( 0.0103068 -0.00618655 0.0015392 ) 0 
( 0.0106978 -0.00798633 0.00716116 ) 0 
( 0.00199898 -0.00632803 0.00546119 ) 0 
( 0.000795042 -0.00514591 0.00441435 ) 0 
( 0.0105864 -0.00322753 0.00280288 ) 0 
( 0.0107018 -0.00492199 0.0042998 ) 0 
( 2.41016e-05 -0.00942178 0.00364201 ) 0 
( 0.00422158 -0.00411455 0.000499728 ) 0 
( 0.00584962 -0.00800106 0.000499524 ) 0 
( 0.000289817 -0.00117716 0.00270578 ) 0 
( 0.00715001 -0.00724143 0.00428013 ) 0 
( 0.00127025 -0.00248677 0.00762399 ) 0 
( 0.00349799 -0.00218894 0.00766114 ) 0 
( 0.00673427 -5.02123e-05 0.00193272 ) 0 
( 0.00146069 -0.0126775 0.000499718 ) 0 
( 0.00140007 -0.00783223 0.00185093 ) 0 
( 0.00603681 -0.000852777 0.00786789 ) 0 
( 0.00484776 -0.0115324 0.000499649 ) 0 
( 0.00301018 -0.0069292 0.00265434 ) 0 
( 0.0131772 -0.00214096 0.00556725 ) 0 
( 0.0124832 -0.00288567 0.00574766 ) 0 
( 0.00759356 -0.00959636 0.00614103 ) 0 
( 0.00436968 -0.00143956 0.00453212 ) 0 
( 0.00251108 -0.00303124 0.000499671 ) 0 
( 0.0113559 -0.000324926 0.00428161 ) 0 
( 0.00554984 -0.00378769 0.00165792 ) 0 
( 0.000809236 -0.00581295 0.0069923 ) 0 
( 0.00507599 -0.00285689 0.00710058 ) 0 
( 0.00832385 -3.10012e-05 0.00249778 ) 0 
( 0.0112136 -0.00617938 0.00111822 ) 0 
( 0.00673053 -0.0033572 0.00738915 ) 0 
( 0.00224293 -0.00520204 0.0074625 ) 0 
( 1.66439e-05 -0.00793603 0.00268019 ) 0 
( 0.00789786 -0.0101733 0.00127274 ) 0 
( 0.00549489 -0.00119767 0.00286405 ) 0 
( 0.00773009 -0.0033462 0.00740994 ) 0 
( 0.00388645 -0.00608103 0.0056694 ) 0 
( 0.00408336 -0.00270645 0.00128637 ) 0 
( 0.00279838 -0.0130072 0.0049707 ) 0 
( 0.00774619 -0.00643267 0.0069603 ) 0 
( 0.00648953 -0.0097756 0.00457261 ) 0 
( 0.00333838 -0.00342456 0.00471957 ) 0 
( 0.00884753 -0.00516984 0.00748599 ) 0 
( 0.00243999 -0.00784912 0.00411067 ) 0 
( 0.00679651 -0.00657391 0.00148379 ) 0 
( 0.00208873 -0.00355727 0.00795415 ) 0 
( 0.00745775 -0.0056137 0.00166217 ) 0 
( 0.0099759 -0.00604191 0.00645008 ) 0 
( 0.0043863 -0.00192828 0.0061024 ) 0 
( 0.00683756 -0.00432835 0.00717771 ) 0 
( 0.00589922 -0.00556397 0.000499764 ) 0 
( 0.0119039 -0.000894799 0.000499661 ) 0 
( 0.00270266 -0.0130735 0.00664747 ) 0 
( 0.00332132 -0.00978896 0.00595611 ) 0 
( 0.00880796 -0.00325436 0.00695583 ) 0 
( 0.00139478 -0.00768761 0.00049971 ) 0 
( 0.00740514 -0.011108 0.00497573 ) 0 
( 0.0015442 -0.000465214 0.00691392 ) 0 
( 0.00350958 -0.00266167 0.00654704 ) 0 
( 0.000729346 -0.00443592 0.00664183 ) 0 
( 0.00367009 -0.00440429 0.00539932 ) 0 
( 0.00388751 -0.00508001 0.000499725 ) 0 
( 0.00115495 -0.0132977 0.00266657 ) 0 
( 0.0091303 -0.0070123 0.00208297 ) 0 
( 0.00447094 -0.0114162 0.00141837 ) 0 
( 0.000871384 -0.00420267 0.000499804 ) 0 
( 0.00387703 -0.00836407 0.00618773 ) 0 
( 0.00456326 -0.00367252 0.00132893 ) 0 
( 0.00604932 -0.00848793 0.00435982 ) 0 
( 0.00672102 -0.000476241 0.0072438 ) 0 
( 0.0112302 -0.00355026 0.000962732 ) 0 
( 0.00548017 -0.0111362 0.00541117 ) 0 
( 0.00527732 -0.00301793 0.0010811 ) 0 
( 0.00614105 -0.00452008 0.000499744 ) 0 
( 0.00751101 -0.00293388 0.00477697 ) 0 
( 0.00425156 -0.00601829 0.00474064 ) 0 
( 0.00339224 -0.000258173 0.00305451 ) 0 
( 0.0103179 -0.00732424 0.00465577 ) 0 
( 0.00605177 -0.0078072 0.00718052 ) 0 
( 0.00837679 -0.00569135 0.00127627 ) 0 
( 0.00445663 -0.00942857 0.00128882 ) 0 
( 0.0133048 -0.00109844 0.00298231 ) 0 
( 0.0128319 -0.00368327 0.00334714 ) 0 
( 0.00153063 -0.00217952 0.00596573 ) 0 
( 0.00675819 -0.00888599 0.00494204 ) 0 
( 0.0020099 -0.0106208 0.00308447 ) 0 
( 0.0100099 -0.00273301 0.0035003 ) 0 
( 0.00502001 -0.0097243 0.00343691 ) 0 
( 0.0112311 -0.00557973 0.00191804 ) 0 
( 0.00195667 -0.00429321 0.000499642 ) 0 
( 0.00222222 -0.013164 0.00577255 ) 0 
( 0.00392601 -0.000746812 0.00385757 ) 0 
( 0.000865857 -0.00853617 0.000499695 ) 0 
( 0.00995428 -0.00664529 0.00533108 ) 0 
( 0.00343787 -0.010031 0.00691898 ) 0 
( 0.000697956 -0.0107235 0.00460601 ) 0 
( 0.000406099 -0.00209207 0.00697082 ) 0 
( 0.00664576 -0.000611154 0.00288932 ) 0 
( 0.0058175 -0.0120159 0.000499849 ) 0 
( 0.00249338 -0.0121913 0.00447994 ) 0 
( 0.00222318 -0.00507081 0.00106877 ) 0 
( 0.00160458 -0.0112018 0.00585379 ) 0 
( 0.00559861 -0.00669667 0.00596283 ) 0 
( 0.00119395 -0.00560203 0.00245839 ) 0 
( 0.00406916 -0.010451 0.00625721 ) 0 
( 0.00731203 -0.00821568 0.0044481 ) 0 
( 0.00653458 -0.000108386 0.00562119 ) 0 
( 0.0058032 -0.00989617 0.00270696 ) 0 
( 0.000831872 -0.000404493 0.00778829 ) 0 
( 0.00639434 -0.0117192 0.00663526 ) 0 
( 0.00388902 -0.0119008 0.000699608 ) 0 
( 0.0122754 -0.00282119 0.00321465 ) 0 
( 0.009995 -0.00396305 0.00648942 ) 0 
( 0.0115942 -0.00358498 0.00438073 ) 0 
( 0.00369267 -0.00633184 0.00146958 ) 0 
( 0.00178683 -0.00964878 0.00546779 ) 0 
( 0.00730881 -0.00368259 0.0065678 ) 0 
( 0.0063263 -0.00178079 0.00516787 ) 0 
( 0.00487651 -0.0104852 0.00407311 ) 0 
( 0.00277265 -0.00972837 0.00402442 ) 0 
( 0.0104518 -0.00691164 0.000804543 ) 0 
( 0.00399388 -6.1693e-05 0.00209441 ) 0 
( 0.00141147 -0.00370186 0.0066282 ) 0 
( 0.00413802 -0.00489262 0.0069634 ) 0 
( 0.00168799 -0.000368877 0.0085932 ) 0 
( 0.00316597 -0.00212894 0.00309401 ) 0 
( 0.0031307 -0.00300982 0.00128391 ) 0 
( 0.0017085 -0.00881159 0.00729167 ) 0 
( 0.00190724 -0.00388755 0.00476241 ) 0 
( 0.00101057 -0.0111852 0.0004999 ) 0 
( 0.0113877 -0.00503127 0.00621215 ) 0 
( 0.0117742 -0.000954143 0.00289033 ) 0 
( 0.000600318 -0.00324019 0.000499554 ) 0 
( 0.00636588 -0.01143 0.005001 ) 0 
( 0.0107203 -0.00613027 0.00484481 ) 0 
( 0.00168279 -0.0104385 0.00130876 ) 0 
( 0.0110072 -0.00144518 0.000499763 ) 0 
( 0.00398135 -0.0032948 0.00377901 ) 0 
( 0.00818915 -0.000979143 0.00278542 ) 0 
( 0.00683911 -0.00412757 0.00284844 ) 0 
( 0.00835151 -0.00355072 0.00128271 ) 0 
( 0.00848711 -0.00631118 0.000499613 ) 0 
( 0.00306444 -0.0049356 0.0035307 ) 0 
( 0.00829926 -0.00776123 0.00603479 ) 0 
( 0.00155435 -0.00792875 0.00363942 ) 0 
( 0.0119822 -0.00258456 0.00493662 ) 0 
( 0.00956104 -0.00340188 0.00553572 ) 0 
( 0.00713336 -0.00920018 0.00406825 ) 0 
( 0.00673545 -0.00156634 0.00781911 ) 0 
( 0.00290871 -0.0031369 0.00301859 ) 0 
( 0.00104088 -0.00569316 0.00795758 ) 0 
( 0.00890816 -0.00735733 0.00378673 ) 0 
( 0.00478086 -0.0115209 0.00699807 ) 0 
( 0.00796972 -0.00546994 0.00711296 ) 0 
( 0.00589771 -0.0108699 0.00249197 ) 0 
( 0.0050358 -0.0123611 0.00402839 ) 0 
( 0.00987038 -0.00460436 0.00724667 ) 0 
( 0.0106824 -0.00209523 0.0059844 ) 0 
( 0.00596847 -0.00843024 0.00543896 ) 0 
( 0.00718354 -0.00556614 0.00772318 ) 0 
( 0.00899787 -0.00422531 0.00195129 ) 0 
( 0.00368483 -0.00738353 0.00622294 ) 0 
( 0.00677376 -0.00456618 0.00465274 ) 0 
( 0.00826524 -0.00665759 0.00409787 ) 0 
( 0.00280741 -0.00334969 0.00672727 ) 0 
( 0.00748455 -0.00210587 0.0072804 ) 0 
( 0.0113847 -0.00370289 0.00612552 ) 0 
( 0.00294201 -0.0105158 0.00343102 ) 0 
( 5.54675e-07 -0.0114354 0.000499795 ) 0 
( 0.00949134 -0.00799633 0.00482977 ) 0 
( 0.00219285 -0.00547202 0.00262498 ) 0 
( 0.0020372 -0.0113456 0.00239611 ) 0 
( 0.0100537 -0.000725191 0.00487808 ) 0 
( 0.00120404 -0.00280418 0.00322243 ) 0 
( 0.000747176 -0.00820526 0.0041611 ) 0 
( 0.0112926 -0.00712074 0.0014769 ) 0 
( 0.011691 -0.00644554 0.00211475 ) 0 
( 0.00739543 -0.00737281 0.00268643 ) 0 
( 0.0100339 -0.00177443 0.00321674 ) 0 
( 0.0106659 -0.0011405 0.00627906 ) 0 
( 0.00147127 -0.00836866 0.00631135 ) 0 
( 0.00771555 -0.000685439 0.00758373 ) 0 
( 0.00587657 -0.00835269 0.00177887 ) 0 
( 0.011615 -0.00266076 0.00399942 ) 0 
( 0.0119519 -0.00587017 0.00384953 ) 0 
( 0.00767311 -0.00414463 0.00214436 ) 0 
( 0.000666736 -0.00192452 0.00166982 ) 0 
( 0.00166001 -0.00186395 0.00451297 ) 0 
( 0.0125381 -0.000123354 0.000561047 ) 0 
( 0.00313605 -0.00415871 0.00721311 ) 0 
( 0.000209668 -0.00119159 0.00116379 ) 0 
( 0.00500417 -0.0102718 0.00504149 ) 0 
( 0.0031925 -0.00937275 0.000499679 ) 0 
( 0.00850817 -0.000621245 0.00366282 ) 0 
( 0.00730147 -0.00304989 0.00380613 ) 0 
( 0.010232 -0.00192663 0.00186097 ) 0 
( 0.00647298 -0.00327532 0.00329368 ) 0 
( 0.00994363 -0.00107629 0.00392687 ) 0 
( 0.0111481 -0.00367658 0.00195116 ) 0 
( 0.0116662 -0.00441136 0.00547878 ) 0 
( 0.0093332 -0.0052021 0.00594258 ) 0 
( 0.00626794 -0.00151627 0.00341905 ) 0 
( 0.00738162 -0.00627206 0.00436314 ) 0 
( 0.00736048 -0.00103527 0.00218157 ) 0 
( 0.00473752 -0.0124811 0.00220169 ) 0 
( 0.00628296 -0.00735303 0.00112518 ) 0 
( 0.00024663 -0.0128541 0.00125613 ) 0 
( 0.0010727 -0.00927494 0.00126468 ) 0 
( 0.00887905 -0.0026843 0.00277491 ) 0 
( 0.00987523 -0.00468532 0.000499835 ) 0 
( 0.0103315 -0.00539367 0.00236323 ) 0 
( 0.00782298 -0.00917037 0.00526613 ) 0 
( 0.00324528 -0.00821682 0.00355904 ) 0 
( 0.00765914 -1.91894e-05 0.000499807 ) 0 
( 0.00384898 -0.0118612 0.00542625 ) 0 
( 0.000339824 -0.00267878 0.00598033 ) 0 
( 0.00504405 -0.00960619 0.000499609 ) 0 
( 0.0122033 -0.00375448 0.00257275 ) 0 
( 0.00735769 -0.00866831 0.000499741 ) 0 
( 0.0038135 -0.00257469 0.00559862 ) 0 
( 0.0114712 -0.00500785 0.00359127 ) 0 
( 0.00060283 -0.00988396 0.00209206 ) 0 
( 0.00404702 -0.010934 0.000499798 ) 0 
( 0.00588874 -0.0028937 0.00651974 ) 0 
( 0.00739332 -0.000473571 0.00353897 ) 0 
( 0.00401974 -0.00522336 0.00418015 ) 0 
( 0.00617387 -0.0092815 0.00376263 ) 0 
( 0.00626202 -0.00739803 0.00570297 ) 0 
( 0.00476677 -0.00316148 0.00316737 ) 0 
( 0.0107638 -0.00224578 0.00272182 ) 0 
( 0.000854302 -0.00157018 0.000499795 ) 0 
( 0.0023127 -0.010088 0.00218972 ) 0 
( 0.00944632 -0.00558903 0.00344465 ) 0 
( 0.00226921 -0.00514695 0.00489513 ) 0 
( 0.00372084 -0.00116611 0.000499684 ) 0 
( 0.00489651 -0.00429894 0.00669453 ) 0 
( 0.00915912 -0.00552092 0.00501098 ) 0 
( 0.000745859 -0.00528186 0.00610933 ) 0 
( 0.0090447 -0.0073529 0.00550835 ) 0 
( 0.00178917 -0.0114338 0.00138746 ) 0 
( 0.00836398 -0.00635019 0.00202828 ) 0 
( 0.0122737 -0.00525212 0.00675404 ) 0 
( 0.000907021 -0.00148966 0.0063322 ) 0 
( 0.00421309 -0.0126679 0.00590307 ) 0 
( 0.00654399 -0.00267999 0.00478366 ) 0 
( 0.00580228 -0.00332459 0.00459907 ) 0 
( 0.00534371 -0.00184675 0.00360975 ) 0 
( 0.00357266 -0.0109762 0.00137884 ) 0 
( 0.00567055 -0.00642255 0.00225155 ) 0 
( 0.0051025 -0.0105853 0.000692584 ) 0 
( 0.00678403 -0.00948721 0.000499662 ) 0 
( 0.01099 -0.0025565 0.0016926 ) 0 
( 0.0075833 -0.00246559 0.0011831 ) 0 
( 0.00485202 -0.00280005 0.00595112 ) 0 
( 0.00697441 -0.00136733 0.00683982 ) 0 
( 0.00593939 -0.00985658 0.000886617 ) 0 
( 0.00879526 -0.00429836 0.00302237 ) 0 
( 0.00989708 -0.00750141 0.0037537 ) 0 
( 0.00240255 -0.0044314 0.00408525 ) 0 
( 0.00869039 -0.00100239 0.00620614 ) 0 
( 0.00749632 -0.000432268 0.00139563 ) 0 
( 0.0056496 -0.00269196 0.00535818 ) 0 
( 0.00855731 -0.0102467 0.0022529 ) 0 
( 0.00802326 -0.00197728 0.00599345 ) 0 
( 0.0115496 -0.00182393 0.00221048 ) 0 
( 0.00336613 -0.00537745 0.00517879 ) 0 
( 0.00999259 -0.00885288 0.000499792 ) 0 
( 0.0132363 -0.00173974 0.00699946 ) 0 
( 0.00405097 -0.0119816 0.0042401 ) 0 
( 0.00964051 -0.00790135 0.00182811 ) 0 
( 0.0111775 -0.00729987 0.00269543 ) 0 
( 0.0120338 -0.00577007 0.00484097 ) 0 
( 0.00524518 -0.00579798 0.00159673 ) 0 
( 0.000660893 -0.00678042 0.00443811 ) 0 
( 0.0111859 -0.00522327 0.00512253 ) 0 
( 0.00409469 -0.00957346 0.00308919 ) 0 
( 0.00467384 -0.000313897 0.00671401 ) 0 
( 0.0133066 -0.000778159 0.00399441 ) 0 
( 0.0121456 -0.000693028 0.00378123 ) 0 
( 0.00210951 -0.0073454 0.00583036 ) 0 
( 0.00610586 -0.0103607 0.00607814 ) 0 
( 0.00358989 -0.0128583 0.00437794 ) 0 
( 0.00128317 -0.00896299 0.00378251 ) 0 
( 0.00808225 -0.00938488 0.00432469 ) 0 
( 0.0117239 -9.44016e-05 0.00524093 ) 0 
( 0.00721641 -0.0058403 0.000499839 ) 0 
( 0.00475862 -0.00239156 0.000499626 ) 0 
( 0.00268146 -0.0043035 0.00523928 ) 0 
( 0.00625209 -0.00893106 0.00262696 ) 0 
( 0.0069918 -0.00771206 0.000499666 ) 0 
( 0.000266474 -0.00735392 0.00587975 ) 0 
( 0.00322164 -0.00152079 0.00538463 ) 0 
( 0.00168051 -0.00534483 0.00567876 ) 0 
( 0.00772037 -0.00481667 0.0062139 ) 0 
( 0.00432676 -0.00061007 0.00760351 ) 0 
( 0.00577817 -0.00275531 0.00190573 ) 0 
( 0.00114526 -0.010013 0.000499875 ) 0 
( 0.00659465 -0.00128273 0.00434341 ) 0 
( 0.00166596 -0.00315677 0.00160408 ) 0 
( 0.00806023 -0.0046597 0.00137982 ) 0 
( 0.0100772 -0.00874828 0.00697734 ) 0 
( 0.00250886 -0.000385571 0.00643563 ) 0 
( 0.0105903 -0.00150625 0.00455678 ) 0 
( 0.0063781 -0.00533493 0.00306537 ) 0 
( 0.0023836 -0.00372807 0.00120541 ) 0 
( 0.00360821 -0.00328431 0.00732304 ) 0 
( 0.00522237 -0.000927856 0.00729304 ) 0 
( 0.00885638 -0.00874995 0.00500156 ) 0 
( 0.003476 -0.0095617 0.00471524 ) 0 
( 0.00456675 -6.2916e-05 0.00420602 ) 0 
( 0.00926708 -0.00165675 0.00194566 ) 0 
( 0.00614663 -0.00401299 0.00786695 ) 0 
( 0.00382841 -0.00107869 0.0060449 ) 0 
( 0.00150796 -0.00961474 0.00450828 ) 0 
( 0.0102621 -0.00613642 0.00325154 ) 0 
( 0.00163588 -0.00188422 0.006915 ) 0 
( 0.00663906 -0.00271289 0.00139927 ) 0 
( 0.00576664 -0.00523864 0.00224092 ) 0 
( 0.00294808 -0.00035379 0.00475082 ) 0 
( 0.00465389 -0.012513 0.000499548 ) 0 
( 0.00739486 -0.00640753 0.00226743 ) 0 
( 0.000152405 -0.00395583 0.00256646 ) 0 
( 0.00216552 -0.00759816 0.00113021 ) 0 
( 0.00888265 -0.00418639 0.00730944 ) 0 
( 0.00378033 -0.00759489 0.00298739 ) 0 
( 8.58897e-05 -0.00554816 0.00763142 ) 0 
( 0.00920508 -0.000729841 0.00295416 ) 0 
( 0.000426085 -0.00604343 0.000940715 ) 0 
( 0.00310396 -0.00377316 0.00381219 ) 0 
( 0.011525 -0.00673793 0.00585689 ) 0 
( 0.0036174 -5.95678e-05 0.000499766 ) 0 
( 0.00463108 -0.00803019 0.00328165 ) 0 
( 9.35594e-06 -0.00536323 0.003807 ) 0 
( 0.0107603 -0.00171587 0.00709115 ) 0 
( 0.0100545 -0.0046595 0.00551251 ) 0 
( 0.00665337 -0.000292836 0.00421448 ) 0 
( 0.00470936 -0.00688493 0.00140323 ) 0 
( 0.00152718 -0.00664781 0.000499789 ) 0 
( 0.000418851 -0.0124945 0.00569619 ) 0 
( 0.00243472 -0.00319166 0.00427535 ) 0 
( 0.00481132 -0.00216582 0.00517915 ) 0 
( 0.00224226 -0.00171389 0.00544031 ) 0 
( 0.00483403 -0.00895297 0.00282823 ) 0 
( 0.00157033 -0.0105511 0.0050955 ) 0 
( 0.00459419 -0.00235116 0.00403825 ) 0 
( 0.00499403 -0.0052143 0.00440471 ) 0 
( 0.00193027 -0.00221631 0.000499748 ) 0 
( 0.00054951 -0.0116179 0.00523359 ) 0 
( 0.0022288 -0.000892613 0.00305983 ) 0 
( 0.00365991 -0.0112008 0.00330825 ) 0 
( 0.00212874 -0.0131793 0.00745944 ) 0 
( 0.00204799 -0.00121842 0.000499625 ) 0 
( 0.00139453 -0.00448415 0.00130406 ) 0 
( 0.00358073 -0.00837759 0.00448724 ) 0 
( 0.00849815 -0.00323713 0.00451838 ) 0 
( 0.00261138 -0.00696322 0.000499655 ) 0 
( 0.000701494 -0.00865417 0.00216418 ) 0 
( 0.000609936 -0.00227156 0.00382478 ) 0 
( 0.00810019 -0.00192433 0.00309919 ) 0 
( 0.00121924 -0.00677104 0.00704496 ) 0 
( 0.0100564 -0.00878066 0.0020589 ) 0 
( 0.0133459 -0.000305412 0.00237466 ) 0 
( 0.013116 -0.00247956 0.00381328 ) 0 
( 0.00553867 -0.00506524 0.00357772 ) 0 
( 0.00480521 -0.00990642 0.00246931 ) 0 
( 0.0100004 -0.00112775 0.00130618 ) 0 
( 0.0073453 -0.00209607 0.00424796 ) 0 
( 0.000692354 -0.00518642 0.00049973 ) 0 
( 0.00696009 -0.00300842 0.000499737 ) 0 
( 0.00335121 -0.0108297 0.00545178 ) 0 
( 0.00442478 -0.00791137 0.00226653 ) 0 
( 0.00446579 -0.00180902 0.00304313 ) 0 
( 0.00936969 -0.00950974 0.00213347 ) 0 
( 0.00490306 -0.00842892 0.00573345 ) 0 
( 0.0067802 -0.00929209 0.00663626 ) 0 
( 0.00459506 -0.00493017 0.00327592 ) 0 
( 0.00337218 -0.00662436 0.00679347 ) 0 
( 0.00294723 -0.00415716 0.000499666 ) 0 
( 0.00571451 -0.00375079 0.00700445 ) 0 
( 0.00139262 -0.0104724 0.00226504 ) 0 
( 0.00631645 -0.00701825 0.00662632 ) 0 
( 0.0026822 -0.000378092 0.00378743 ) 0 
( 0.0106575 -0.00304136 0.00630593 ) 0 
( 0.00590947 -0.00404256 0.00528665 ) 0 
( 0.00397643 -0.0109847 0.00423165 ) 0 
( 0.00555885 -0.0121378 0.00485063 ) 0 
( 0.00354929 -0.00609807 0.00251822 ) 0 
( 0.00606847 -0.00751333 0.00306052 ) 0 
( 0.000283791 -0.0110837 0.00377025 ) 0 
( 0.00010792 -0.00338615 0.00527611 ) 0 
( 0.0120231 -0.00497209 0.00207787 ) 0 
( 0.00246149 -0.0123591 0.00122189 ) 0 
( 0.00580103 -0.00460199 0.00442415 ) 0 
( 0.00200576 -0.0118396 0.000499733 ) 0 
( 0.0118543 -0.000966081 0.00571313 ) 0 
( 0.00587653 -0.00199227 0.00603541 ) 0 
( 0.000724509 -0.0107066 0.00560534 ) 0 
( 0.00689903 -0.0114294 0.00775569 ) 0 
( 0.00790625 -0.00750758 0.00368261 ) 0 
( 0.000825144 -0.00927391 0.00721757 ) 0 
( 0.0125423 -0.00134174 0.00238072 ) 0 
( 0.00219918 -0.00689647 0.00325998 ) 0 
( 0.00879565 -0.000726233 0.000499715 ) 0 
( 0.00761772 -0.00112804 0.00426081 ) 0 
( 0.0036611 -0.0119103 0.00173443 ) 0 
( 0.00343852 -0.00988898 0.00131964 ) 0 
( 0.0030674 -0.00884684 0.00241372 ) 0 
( 3.00069e-05 -0.00856207 0.00506303 ) 0 
( 0.00769939 -0.00557775 0.00281701 ) 0 
( 0.00143859 -0.0109015 0.00695176 ) 0 
( 0.00664671 -0.0105012 0.00524272 ) 0 
( 0.00390058 -0.00336802 0.00201355 ) 0 