FoamFile
{version 2.0; format ascii;class vectorField; location 0;object  v;}
2523
(
( 0.00111585 0.000843561 0.00484994 )  
( -0.00535379 -0.000590478 0.00689071 )  
( 6.66487e-05 -0.000639711 0.000380841 )  
( -0.000403914 0.00189585 0.00839849 )  
( 2.88765e-05 0.000286457 0.0054546 )  
( 9.36589e-05 0.000329866 -0.000196468 )  
( 8.91268e-05 0.00148629 0.00624434 )  
( 0.000402105 0.000507282 0.000356156 )  
( -0.000931685 0.00146047 0.0048788 )  
( -0.000115066 0.000149583 2.94272e-06 )  
( 0.000308081 0.000289682 5.17833e-05 )  
( -0.000983718 0.00022611 0.00432056 )  
( -0.00279687 0.00441747 -0.00143382 )  
( -0.00152102 -0.00256009 -0.000223772 )  
( -0.000809828 0.00136518 0.010231 )  
( 0.000306631 0.00126198 0.00766712 )  
( 8.53166e-05 -0.00024748 0.00623961 )  
( 0.000132727 -0.00210624 -0.000668365 )  
( 0.00113185 0.0012419 0.00567651 )  
( 0.00118393 0.000320741 0.00681464 )  
( 0.00230903 -9.99259e-05 0.0094673 )  
( 3.94019e-05 0.000871968 0.00542169 )  
( 0.00186586 0.000108248 0.0058094 )  
( 0.000920721 -0.000106961 -0.000772323 )  
( 0.00205634 0.00149507 0.0060931 )  
( -0.00011398 0.00126939 -0.000534793 )  
( -0.000997558 -0.00139592 0.00559342 )  
( 0.000278758 0.000741405 0.00536462 )  
( 0.00113059 -0.000260938 0.00660318 )  
( 0.000249127 0.000397531 -4.77244e-06 )  
( 0.00115923 -0.000518609 3.04163e-05 )  
( 8.01107e-05 0.00011036 5.62256e-05 )  
( 0.00026587 -0.000381197 2.77818e-05 )  
( -0.000303039 0.000524901 0.00551818 )  
( -0.000193067 7.43594e-05 0.00534084 )  
( 0.00039729 -0.000301883 -0.000452114 )  
( -0.000282589 0.000291809 -0.00011663 )  
( 4.894e-05 0.000101992 0.000160945 )  
( 0.000753499 0.000119312 0.00506139 )  
( -0.000117007 0.0009165 0.00615342 )  
( 0.000470131 -0.000748671 0.00617399 )  
( -0.000236971 -0.000874725 3.14767e-07 )  
( 0.000191703 0.00196812 0.00620793 )  
( 0.000884526 0.00135691 0.00569682 )  
( -0.000294862 -0.000466688 6.13866e-05 )  
( 0.00119508 -0.00277424 0.00781901 )  
( 0.000189482 -7.00008e-07 -7.81976e-05 )  
( -0.000422865 -6.35746e-05 -0.000284807 )  
( 0.000145602 -2.86504e-05 2.53558e-05 )  
( 0.000898117 -0.00023097 0.00692328 )  
( 0.000607628 0.00163683 -0.00018438 )  
( 0.000312978 2.12913e-05 0.000103162 )  
( 0.00059858 7.12031e-05 0.000151123 )  
( -1.71108e-05 -0.000744862 -7.53373e-05 )  
( -0.000770081 0.000170273 -0.000146774 )  
( 0.000149223 0.000172895 -0.000419527 )  
( 0.00100503 -7.41386e-05 0.00600665 )  
( -2.57121e-05 -0.000286756 0.00659938 )  
( -0.000282071 0.000473916 -0.000291162 )  
( 0.000114577 0.000441679 0.00592265 )  
( 0.00330543 0.00122628 0.00588525 )  
( 0.000196692 0.000238789 0.00570868 )  
( 0.000286708 -0.000271602 0.000174235 )  
( -0.00286648 -0.00271164 0.0161243 )  
( -0.000454649 -0.000881482 0.00492582 )  
( 0.000621894 0.000323758 0.00365466 )  
( 0.00107136 0.00170072 0.00673374 )  
( 0.000554536 0.00112716 0.00442621 )  
( -0.000499699 -0.00199325 -0.000517623 )  
( 0.00213873 -0.000999096 -0.000122453 )  
( 0.00107498 -0.00247604 0.00868304 )  
( 0.000695006 0.00164508 0.00429648 )  
( 0.000673848 -0.00160571 0.00654659 )  
( -2.72966e-05 0.00109759 0.00510272 )  
( 0.00107018 0.00101498 0.00722692 )  
( 0.000398798 -0.000343564 0.00475374 )  
( 0.00103191 0.000964095 0.00571822 )  
( 0.00399931 -0.00179171 0.0096747 )  
( 0.00123643 -0.000373569 0.00684823 )  
( -0.000506314 -0.000369017 0.00509671 )  
( 0.000122474 0.000568668 0.00476399 )  
( 0.000282194 0.000129969 2.70813e-05 )  
( -0.000100891 0.000193865 0.00585253 )  
( 0.00085759 -0.00249227 0.00766616 )  
( -0.000415783 0.00101627 8.11411e-05 )  
( 0.00168012 0.000173467 0.00537611 )  
( 0.0025066 -0.00115323 0.00610127 )  
( 0.0027739 0.0003581 0.0060324 )  
( 0.000703061 0.00113493 -0.00176865 )  
( 0.000667698 0.00147918 -5.18829e-06 )  
( 0.00112999 0.00106794 0.00671758 )  
( 0.00136895 -0.00134994 -0.000104607 )  
( 0.00028224 0.0019851 0.0043185 )  
( 0.000196076 0.000876013 0.00547437 )  
( 0.00345685 0.000381903 -0.00141686 )  
( -0.000980889 0.000307872 0.0059126 )  
( 0.000197691 9.6854e-05 4.09326e-05 )  
( 8.75849e-05 0.00044903 -0.000112869 )  
( 0.000143368 0.000229623 0.000225349 )  
( 0.000464354 -0.00109294 0.00600005 )  
( 0.000126915 0.000778086 0.00540622 )  
( -0.000817254 0.00263184 0.00481833 )  
( 0.00217366 0.000614359 0.00428583 )  
( 0.00152571 0.000509523 0.00720308 )  
( -0.000414497 -0.00079622 5.08344e-05 )  
( 0.000584613 0.00157055 0.005578 )  
( 0.000288063 0.000471806 0.00516895 )  
( -5.97851e-05 0.000799906 0.00570592 )  
( 0.000233775 0.000103239 -1.41792e-05 )  
( 0.000825254 -0.00117891 0.000538443 )  
( 0.000325347 0.000216539 0.000315749 )  
( -4.72309e-05 0.000649651 0.00662554 )  
( -0.000158687 0.0010317 0.00416014 )  
( -0.000175753 -0.000885043 -0.00128344 )  
( 0.000854733 0.00150014 0.00575808 )  
( 0.000563551 0.00111467 0.00639013 )  
( -0.000130034 0.000995106 0.00610294 )  
( 0.0041536 -0.00136257 0.00681541 )  
( -0.000790905 0.000496119 0.00559995 )  
( -0.00132206 -0.000147424 0.00898932 )  
( 0.00116991 0.00101038 0.00781783 )  
( -0.000190289 0.00348469 0.0057042 )  
( 0.00137627 -0.000947434 0.00598019 )  
( 0.000697791 0.000361624 0.00698898 )  
( 0.000406548 8.9296e-05 0.00235658 )  
( 3.18138e-05 3.21882e-05 5.15077e-05 )  
( 0.000217286 -0.00150675 0.00782742 )  
( 0.000699948 0.00150108 0.00464944 )  
( 0.000965144 0.000203553 0.0039984 )  
( -0.00027235 0.00200529 0.00547174 )  
( 0.000938691 0.00170987 0.00420687 )  
( -0.000308936 -0.00026075 -0.000821327 )  
( 0.000616917 0.000227174 0.00576228 )  
( 0.000669212 0.000701872 0.00569583 )  
( 0.000159674 1.47859e-05 -0.000172397 )  
( -9.63096e-05 -4.8259e-05 4.296e-05 )  
( 0.000392499 0.000876215 0.00611347 )  
( -0.000764591 0.000237729 0.00539773 )  
( 0.00051725 0.00117787 0.00542509 )  
( 0.00302277 0.0013238 0.00781804 )  
( -0.00058297 0.000212866 0.00715431 )  
( 2.43532e-06 0.000103386 0.000121459 )  
( 0.000786476 -0.000468034 0.00560608 )  
( 0.00069035 0.00172634 0.00744925 )  
( -0.000147228 -0.00330023 -0.0015278 )  
( 9.86035e-05 7.85229e-05 8.03961e-05 )  
( 0.00238797 -0.000551208 0.00533843 )  
( -0.000120356 -0.000270797 -5.63462e-05 )  
( 0.00131511 0.000786614 0.00546455 )  
( 0.000395672 0.00137854 0.0108839 )  
( 0.000726009 0.000152587 0.00363749 )  
( -0.000606147 -0.00047085 -0.000186967 )  
( 0.00171706 0.000839435 0.00852427 )  
( 0.000586586 0.000835567 0.00620583 )  
( 7.06114e-05 0.000359054 4.43316e-05 )  
( 0.00273143 0.00258691 0.00910535 )  
( 0.00368595 0.0016933 0.00763636 )  
( -0.00105055 0.00106127 0.00535124 )  
( 0.00080501 0.00146036 0.00493592 )  
( 0.000143547 0.000688104 -3.39099e-05 )  
( 0.000608265 -5.96863e-05 0.000254618 )  
( 0.00096736 0.00169034 0.00525134 )  
( 0.000505179 0.00119913 0.00571363 )  
( 0.000668806 0.000247689 0.00661268 )  
( -0.00190647 0.000455669 0.00776669 )  
( 0.000607863 0.000450309 0.00070029 )  
( 0.00057798 -0.00174593 0.00492783 )  
( 0.00100312 0.0013426 0.00588298 )  
( 1.367e-05 0.00041307 -1.84408e-05 )  
( 0.000101354 -0.00264741 0.00710301 )  
( 0.00088191 0.00245243 -0.000812828 )  
( -0.000139546 0.00152645 -0.000472709 )  
( 0.00216647 0.000532213 0.0080008 )  
( -0.000766218 0.000236362 0.00567846 )  
( 0.000367355 -0.000923486 0.00447276 )  
( 0.00227694 0.000683785 0.00562453 )  
( 0.000545701 0.000848076 0.00623355 )  
( 0.00023703 0.00184774 0.00502169 )  
( -0.000320248 -0.000543636 0.00657326 )  
( -0.00171444 -0.000508794 0.00445501 )  
( 0.00050354 0.00064535 0.00621762 )  
( 0.000450666 0.000234937 0.00662941 )  
( -0.0025494 0.00139455 0.00827579 )  
( 0.000145357 0.000886423 0.00483628 )  
( 0.000556738 -2.99085e-05 0.000212803 )  
( 0.00192022 0.000510642 0.00690262 )  
( 0.000792224 0.001194 0.00903719 )  
( -0.00080021 -0.00172044 0.00936316 )  
( 0.000599331 0.000230597 0.00653929 )  
( 0.000731731 -0.00057564 3.64529e-05 )  
( 0.00448659 -0.00241476 0.00524714 )  
( 0.00106044 -0.00116442 0.0104695 )  
( -0.00229349 0.000102473 0.0038152 )  
( 0.00024873 0.000606151 0.00605183 )  
( 0.00310816 0.000125538 0.0055554 )  
( -0.000660429 0.000300432 0.00358209 )  
( 1.21472e-05 4.44179e-06 5.26613e-07 )  
( 0.000274697 0.00246722 0.00561732 )  
( -0.00115978 0.000516998 0.00942378 )  
( -0.000488361 -0.00210864 0.00718748 )  
( -0.000274556 0.000621389 0.00591351 )  
( -0.0014883 -0.000810972 0.00425279 )  
( 0.00271517 0.0036624 -0.002894 )  
( 0.000735733 -0.000317257 0.000408357 )  
( 0.000549232 0.000703877 0.00535683 )  
( -0.000194045 -0.00047618 0.00673098 )  
( 0.000672924 -0.000412768 0.00360182 )  
( 0.00065923 0.000663131 -0.000300606 )  
( 0.000421126 0.000554699 0.00765115 )  
( 0.00114592 0.00060778 0.00721701 )  
( 0.000240245 1.88403e-05 3.58821e-07 )  
( 0.000688644 0.00141922 0.00565467 )  
( -0.000455006 -0.000634776 0.00740888 )  
( -0.0007417 6.29136e-05 0.00616238 )  
( 0.000440571 0.000625322 0.00531062 )  
( -0.000118061 -0.000637846 -0.000980906 )  
( 0.000326626 0.000174602 4.96462e-05 )  
( -0.00022468 -0.000831639 0.0065981 )  
( -0.00044758 -0.000427561 0.00401479 )  
( -5.5541e-05 -0.00110945 0.00695871 )  
( 0.000310297 0.00074707 0.00606208 )  
( 0.000384975 0.000264908 0.00631526 )  
( -0.00236498 -0.00250766 0.00516943 )  
( 0.0032459 0.000323867 -0.00132805 )  
( -0.000131479 0.00121749 0.00807501 )  
( 0.000184698 -0.000287461 0.00598326 )  
( -0.00143173 0.00221882 0.00502031 )  
( -0.00157512 0.00101177 0.00704495 )  
( 0.0031917 0.00171059 -0.00147679 )  
( -0.000511845 -0.00345678 0.00675803 )  
( -0.0011472 -0.00134629 0.00211695 )  
( -0.00407558 0.00158301 0.00712161 )  
( 0.000266359 0.000953225 0.00516087 )  
( 0.00089322 -0.000383389 0.005239 )  
( 0.000822859 0.000346536 0.00303488 )  
( -6.27316e-05 -0.0011992 -0.000497255 )  
( 0.000747957 -0.000597891 0.000113465 )  
( -0.00011388 0.000203599 -3.33886e-06 )  
( -0.001922 -0.00158619 0.00474258 )  
( -0.00112833 0.00187432 0.00698061 )  
( 0.000554526 0.000131242 0.006241 )  
( 0.00155375 0.000910563 0.00497821 )  
( 0.000745516 -0.000873346 0.00562109 )  
( -0.00318826 -0.000850858 0.0105634 )  
( 0.000907412 0.000791743 -0.000232056 )  
( -1.83701e-05 -7.39244e-05 0.000237876 )  
( -0.000417468 -0.000135255 -0.000195595 )  
( -0.000704383 0.000461836 0.00456255 )  
( -0.00249093 -0.000760633 0.0107573 )  
( 0.00113385 0.00206723 0.00927818 )  
( -0.00152798 0.000452307 0.00794321 )  
( -0.00108876 0.0005513 0.00743865 )  
( 0.00022028 -0.000465379 0.00874103 )  
( 0.000341688 0.000431954 0.005463 )  
( -0.000855667 -0.00064399 -0.000198649 )  
( 0.00148656 0.00080602 0.00497297 )  
( 0.000328734 -0.000126917 0.00488629 )  
( -0.00146701 0.00194824 0.00567364 )  
( 0.000258926 0.000276894 -1.51684e-06 )  
( -0.000215036 -0.000571916 0.00665268 )  
( -0.000818864 0.00154939 0.00651207 )  
( 0.00101561 0.00129896 0.00513163 )  
( 0.00161852 -0.00155262 -0.000148437 )  
( 0.000530476 0.000113974 0.00606363 )  
( 0.00151757 0.000358981 0.00583077 )  
( -0.000763575 0.00269415 0.00540392 )  
( -0.000156907 -0.000378599 0.00675392 )  
( 6.03321e-05 0.000254408 7.25143e-06 )  
( 0.000124163 -0.000177839 0.00592083 )  
( -0.0013511 -6.06488e-05 0.00402851 )  
( 0.0015626 -0.000325476 0.00570576 )  
( 0.00308668 -0.000233983 0.00574993 )  
( -0.000315975 0.00114307 0.0058754 )  
( 0.000714373 0.00122928 0.00547194 )  
( 8.2627e-05 -0.000797804 -8.56395e-05 )  
( 0.000287527 0.000566351 0.00541891 )  
( 0.00019618 0.000196522 3.41889e-05 )  
( -0.00140233 0.0006954 0.00495529 )  
( 0.000378214 0.00195036 0.00575997 )  
( 0.000453061 -0.00116038 0.00426004 )  
( 0.00110518 -9.57814e-05 -2.02534e-07 )  
( 0.000670572 0.000277863 0.00535055 )  
( 0.00335631 -0.00424173 0.00708637 )  
( -0.000589737 -0.00184442 0.00649062 )  
( -0.000119999 0.000847581 0.0063679 )  
( -0.00329837 0.0042903 0.0148945 )  
( 0.00160903 0.000165661 0.00566848 )  
( 0.000693927 0.00109326 0.00611246 )  
( 0.000563083 0.000529107 0.00571725 )  
( 0.000348869 0.000535851 0.00545339 )  
( 0.000228621 -3.92712e-05 4.15934e-05 )  
( 0.00111793 -0.00122712 0.00490029 )  
( 0.00228127 -0.0011254 0.00827358 )  
( 0.00102094 0.00130403 0.00489558 )  
( 0.00131348 0.00017262 0.00602772 )  
( 0.000503131 0.000184026 0.0064163 )  
( -8.59943e-05 0.00191764 0.00641086 )  
( -0.000361422 0.00396158 0.00698696 )  
( 0.000627066 0.00086405 0.00593276 )  
( 0.000456187 0.000424395 0.00594845 )  
( 0.000996466 0.000785382 0.0064346 )  
( 0.000248948 0.00063249 0.00512108 )  
( -0.00112239 -0.000353161 0.00605012 )  
( -0.000348954 0.00148545 0.00697405 )  
( 0.000368965 -0.00105294 0.00466277 )  
( -0.000217652 0.000123957 -2.45353e-05 )  
( 0.000549421 0.00173351 0.00567285 )  
( 0.000112115 -0.000174663 -0.000372561 )  
( 0.00152175 0.000498524 0.00636383 )  
( 0.00197844 0.000628158 0.00630653 )  
( 0.0017506 0.000929106 0.00656246 )  
( 0.000466664 0.00430524 0.00596118 )  
( 0.000121638 9.23447e-05 -9.82234e-06 )  
( -0.00159336 -0.00298637 0.00750181 )  
( 0.0012198 -0.00265814 0.00633159 )  
( -0.000552942 -0.00100122 0.00216228 )  
( 0.000785797 0.000441752 0.00580363 )  
( 0.00375006 0.000239469 0.00646028 )  
( 0.00156171 0.00324784 -0.000866528 )  
( -0.00128584 0.00302815 0.00624176 )  
( -0.000426902 -0.000468649 9.44238e-05 )  
( 0.0012523 -0.00178635 -0.000998251 )  
( -0.000686953 0.000208569 0.00410907 )  
( 0.000886675 0.000602125 0.00110307 )  
( -0.000125872 0.000479923 0.00561001 )  
( -0.000967273 0.00212334 0.00581393 )  
( 0.00046117 0.000375855 0.00654515 )  
( -0.000147828 -5.58156e-05 0.0040215 )  
( 0.00116221 0.000205822 0.00592954 )  
( -6.30248e-05 -0.00134933 0.00725995 )  
( 5.8411e-05 -0.000510919 -0.000111617 )  
( 0.000184279 -0.000120483 0.000116335 )  
( -0.000316589 0.00397068 0.00852569 )  
( 0.00148985 -0.000635144 0.00638177 )  
( 0.000399856 0.000122048 0.00633642 )  
( 0.000490187 0.000357706 0.00643381 )  
( 0.00105051 0.000406625 0.00053282 )  
( -6.16558e-07 -9.59943e-05 -4.50737e-05 )  
( 0.000313981 0.000121041 -0.000135942 )  
( 5.71478e-06 5.61433e-05 0.00688177 )  
( -7.88442e-05 0.000184819 -2.78193e-05 )  
( 0.00226997 -0.000867312 0.00626597 )  
( -0.00020922 -0.00105048 0.00611185 )  
( -0.000191102 0.000887152 0.0057108 )  
( -3.73602e-05 0.000577475 0.00391929 )  
( 0.00204794 -0.00162411 0.0056736 )  
( 0.000185127 0.000400908 -1.42941e-05 )  
( -0.00196445 -5.69679e-05 0.00709096 )  
( -0.000858789 -0.000858828 -0.00244744 )  
( 0.000878442 -0.000541537 0.00532922 )  
( 0.000765591 0.00048873 0.00622248 )  
( 0.00308229 0.00177674 0.0119682 )  
( 0.000514799 2.94738e-05 0.000229143 )  
( 0.000509453 0.000713925 0.0057445 )  
( 0.000186805 0.000465256 0.00524233 )  
( 0.00192638 -0.00133147 0.00576594 )  
( -0.000105918 -8.79348e-05 -0.000214384 )  
( -0.00217402 0.00311193 0.00693445 )  
( 0.000663695 0.00156144 0.00591205 )  
( 0.00058234 -0.000361938 0.00633784 )  
( 0.00148179 0.000816993 -0.000148281 )  
( -0.000163605 -0.00198708 0.00470484 )  
( 0.000151578 0.00152367 0.0056878 )  
( -0.00218726 0.00160953 0.005386 )  
( 0.000406365 0.0014057 0.00545165 )  
( 0.000938887 0.000940127 0.00686626 )  
( 0.00174343 -0.00119444 0.00634379 )  
( 0.000192552 9.60525e-05 0.000105313 )  
( 0.000309059 0.000577883 0.00604838 )  
( 0.000191 -0.000147589 -0.000200594 )  
( 0.000885231 0.00158392 0.0111019 )  
( 0.000120118 0.000226696 0.00649462 )  
( 0.000249473 0.000850255 0.00576214 )  
( -0.000168006 -0.00023038 1.95253e-05 )  
( -0.000258736 9.455e-05 3.87473e-05 )  
( 0.00129063 0.000505258 0.0073249 )  
( 0.000636535 0.00175065 0.00592494 )  
( 0.0010702 0.000659703 0.00626093 )  
( 0.000150818 3.76043e-05 7.16395e-05 )  
( -0.000773525 -0.000419764 0.00511939 )  
( 0.000100218 7.51432e-05 0.00624895 )  
( 0.000605403 0.000380761 0.00604495 )  
( 0.000425424 0.000462621 0.00648196 )  
( 0.000564621 -0.00192436 0.00634801 )  
( -0.000221693 -0.000365891 7.79867e-05 )  
( -0.00223924 0.00118639 0.00347741 )  
( -0.000550681 -0.00340684 1.48324e-05 )  
( 0.000270864 0.000319009 9.9015e-05 )  
( -1.88264e-05 -3.3446e-05 -2.70348e-05 )  
( 2.88397e-05 0.00075727 0.00771634 )  
( -0.000918863 0.000986414 -0.000596073 )  
( 0.00080577 -0.000665671 0.00766201 )  
( 6.33342e-05 0.00153443 0.00783076 )  
( 8.73843e-05 -5.97365e-05 1.6774e-05 )  
( 0.00673565 0.00286397 0.0126256 )  
( -0.000806666 0.000992884 -7.96615e-05 )  
( 0.000852381 0.00223303 3.39556e-05 )  
( 0.000488295 0.00142495 0.00589242 )  
( 0.00016619 -0.000434416 0.00613863 )  
( 0.00289993 0.00128016 0.0106272 )  
( -3.97005e-05 0.00253125 0.00574023 )  
( 0.00129605 -0.000214101 0.0037759 )  
( 0.000217213 0.000144278 -0.000137565 )  
( -0.000448934 -0.000374028 3.70856e-05 )  
( 0.000281378 0.00353031 0.00455252 )  
( -0.000141919 -0.000973779 0.00603252 )  
( 0.000162708 0.000201013 0.00598584 )  
( 0.000678721 -0.000291565 0.00825618 )  
( 0.000171709 0.000126937 0.00272117 )  
( 0.000701654 0.000825431 0.00652129 )  
( 0.00101277 -0.00112033 0.00589934 )  
( 0.000590632 0.000320986 2.53937e-05 )  
( -6.9615e-05 -5.76807e-05 -1.40875e-05 )  
( 0.00152022 1.4465e-05 0.0065759 )  
( 0.0011953 -0.0054868 0.0164988 )  
( 2.29786e-05 9.54419e-06 -0.000203298 )  
( -0.00597522 0.000600253 0.0108134 )  
( -0.000502281 0.00138534 0.00596974 )  
( 0.000365518 -0.00255262 0.0056143 )  
( 0.00076889 0.000757544 0.00612036 )  
( -0.00109127 0.00359271 0.0070301 )  
( 4.41619e-05 9.21677e-06 1.7286e-05 )  
( 0.000155281 0.001144 0.00755347 )  
( -9.75729e-05 -8.22483e-05 4.07423e-05 )  
( 0.000483649 0.000144313 0.00702516 )  
( 0.000228977 0.000367052 0.00548993 )  
( -0.000622635 -0.00136501 0.00100883 )  
( 0.000391714 0.000134248 0.00457383 )  
( -0.000453044 -0.00111412 0.00566655 )  
( 0.00115691 0.00185832 0.00543492 )  
( -0.00214617 0.00278912 0.00538336 )  
( 0.000452848 -5.02824e-05 0.00636038 )  
( 0.00146999 0.000596807 0.00264417 )  
( -1.51647e-05 6.19455e-05 -0.000886788 )  
( 0.000876475 0.000170875 0.00802222 )  
( 0.00479149 0.000491083 0.00750969 )  
( 0.000680171 0.00135163 0.00539271 )  
( 0.000956086 -0.000608592 -0.000218252 )  
( 0.000385071 -0.00150656 0.00699907 )  
( 0.00075301 0.00018068 0.00625344 )  
( 0.00220205 0.00100241 0.0089554 )  
( -0.00126639 -0.000831161 0.00567126 )  
( 0.00135952 -0.000180083 0.00585651 )  
( 0.000176025 0.000108818 -0.000112688 )  
( -0.00279768 0.00637205 -0.00473929 )  
( 8.89373e-05 0.000102171 0.00604691 )  
( 0.0012501 0.00246768 0.00854056 )  
( 0.000470288 0.000245258 0.00644387 )  
( 0.000430064 -0.000875902 0.00622291 )  
( 0.00154672 -0.000110656 -0.00104056 )  
( -0.00103737 0.000668217 0.00549859 )  
( 0.000658739 0.000598947 0.00611091 )  
( 0.00145104 -0.000879024 -1.66586e-06 )  
( -3.94495e-05 0.000494146 0.00411939 )  
( -0.00143725 0.00210952 0.00459303 )  
( -2.65077e-05 -7.33245e-05 -2.20584e-05 )  
( 0.000866177 -0.000537987 0.00241168 )  
( 0.000173374 0.00173653 0.00518554 )  
( -9.30639e-05 -0.000662834 0.000206973 )  
( 0.00155518 2.19113e-05 4.10049e-05 )  
( 0.00146529 -0.000421014 0.00626111 )  
( 0.00119433 0.000360882 0.00627151 )  
( -0.00139769 0.00187523 0.00712046 )  
( -0.00047017 -0.00185967 -0.00068351 )  
( -2.86594e-05 -0.000111963 8.48444e-05 )  
( 0.00331436 0.0021852 0.0073815 )  
( -0.0002776 0.00148548 0.00418104 )  
( -0.000270627 -0.00204555 0.00501412 )  
( 0.00103617 0.00129911 0.00513265 )  
( 0.00053961 4.30368e-05 0.00527358 )  
( 0.00176964 -0.000275445 0.00759982 )  
( 0.00102361 0.000822682 0.0093607 )  
( 0.00156714 0.00126642 0.00768338 )  
( 9.15524e-05 5.04447e-05 0.00542956 )  
( 0.000235842 0.000239391 0.0044511 )  
( -0.000425876 -0.000465469 0.00369988 )  
( 0.000951043 0.000552748 0.00690252 )  
( -0.000623744 0.00223609 0.00400517 )  
( -0.000593376 0.000440518 0.00711286 )  
( 0.00297318 0.00041654 0.007632 )  
( 3.78893e-05 0.000266596 0.00638366 )  
( 0.00150156 0.00080818 0.0034208 )  
( -8.15719e-05 0.000538312 0.00554182 )  
( -0.00273362 0.00162308 -0.00147004 )  
( 0.00039752 0.000814057 0.00552509 )  
( 0.000273561 -0.000668968 0.0068193 )  
( 0.000836918 1.1059e-06 0.0064348 )  
( 0.000444114 0.000529823 0.00609265 )  
( -0.000263262 0.0017837 0.00671964 )  
( -0.000337626 4.24817e-05 0.0051793 )  
( -0.000611776 -0.000777162 0.00539952 )  
( 0.000619735 0.000544816 -6.17872e-05 )  
( 4.83447e-05 0.00251005 0.00623604 )  
( 0.000923276 0.00140164 0.0059066 )  
( 0.000799151 -0.00336858 0.00633799 )  
( 0.000388698 0.00168967 0.0062587 )  
( -0.00158234 0.000616107 0.00674286 )  
( -0.000537862 -0.000748531 0.00570865 )  
( 0.000343677 0.000600773 0.000103727 )  
( -0.00153994 -0.0027304 -0.00826344 )  
( 0.00274807 -0.00283217 0.00940504 )  
( -9.33298e-05 0.000696643 0.00665137 )  
( -0.00017431 0.00031913 0.00602839 )  
( 0.000138326 0.000851782 0.00564162 )  
( -0.00578173 0.00604243 0.010021 )  
( -0.000144678 -0.000673297 9.75955e-05 )  
( 0.0013169 0.00107703 0.00437803 )  
( -0.00374518 0.000454722 0.00480377 )  
( 0.00470932 -7.24016e-05 -0.00285729 )  
( -0.000341884 0.00105173 -0.0012246 )  
( -0.000397256 0.0012108 0.00701016 )  
( 5.68937e-05 0.000191582 -9.6756e-05 )  
( 0.00035707 0.000557604 0.00607525 )  
( -0.000191575 0.000481838 -0.000428423 )  
( -0.000829464 0.000824939 0.0050281 )  
( 6.92673e-05 6.32678e-05 5.29215e-05 )  
( 0.000449082 0.000111856 0.00656572 )  
( 0.0013081 -0.00063486 0.00653535 )  
( 0.000772434 0.000215506 0.000636544 )  
( 0.00106139 -0.000250737 0.00657764 )  
( 0.000310157 0.0014327 0.00592237 )  
( 0.000894712 -4.10517e-05 0.000103133 )  
( 0.0007969 0.000720563 0.00495138 )  
( 0.00115734 0.00103452 0.00693213 )  
( 0.00161951 0.00118706 0.00684054 )  
( 0.000394593 -0.000921195 0.00627111 )  
( 0.00112987 -0.000692118 -0.000631526 )  
( 0.00690051 0.00266114 -0.00479573 )  
( 0.0013066 -0.000443908 -0.000245846 )  
( 4.84865e-05 0.000297307 -0.000311944 )  
( -0.000579209 -0.00150151 -0.00138166 )  
( 0.000441343 0.000660906 0.00718477 )  
( 0.000256636 -0.000354347 -4.29513e-05 )  
( 0.000970349 0.000864515 0.00456326 )  
( 0.00145975 0.000459879 0.00393688 )  
( 0.00107281 0.00272137 0.00554153 )  
( 0.00187724 -3.18356e-05 -5.61466e-05 )  
( -0.00528811 0.00155688 0.00513357 )  
( -0.000205235 0.000471697 0.00662125 )  
( -7.96381e-05 0.000519255 2.49764e-06 )  
( -0.00264204 -0.00154784 0.00815052 )  
( 0.000123759 -3.74203e-05 5.15137e-05 )  
( 0.00063694 6.74177e-06 0.00609139 )  
( -0.00156856 -0.00230956 0.00767317 )  
( 0.000718092 0.00046665 -0.000247763 )  
( 8.77545e-06 0.000159795 -5.40549e-05 )  
( 0.00079084 0.000129115 0.00628009 )  
( -0.00136752 0.00098116 0.00776209 )  
( -0.000237545 -0.000688576 0.00565788 )  
( 0.00191635 0.00147124 0.00404045 )  
( 0.000187327 6.86349e-05 0.00570064 )  
( 0.0012678 0.000508379 0.00703695 )  
( -0.000630552 1.30479e-05 0.00648939 )  
( 0.000146524 0.000752345 -4.57923e-05 )  
( -7.80439e-07 0.000151079 4.36497e-05 )  
( 0.00256011 0.0024324 0.00644066 )  
( 0.000501944 0.0013501 0.0054563 )  
( 0.000381817 0.00185456 -9.26768e-05 )  
( 0.00101573 0.000871759 0.00558353 )  
( 0.000521428 0.00140384 0.00695181 )  
( 0.000144362 0.000363057 0.00651745 )  
( 5.98448e-05 0.00155086 0.00476619 )  
( -0.00029307 0.00062874 -0.000385954 )  
( 0.00149977 0.000417284 0.000243027 )  
( 0.000435911 0.000888591 0.00463831 )  
( -3.9978e-05 3.34569e-05 0.00609315 )  
( 0.000416693 0.000144397 0.00296838 )  
( 0.000420244 0.00106055 0.00626858 )  
( 0.00127379 -0.000276407 0.00677793 )  
( 0.00139628 0.00152787 0.00690485 )  
( 2.60317e-05 3.25611e-05 -4.02042e-05 )  
( 0.00563338 0.000642352 -0.00423075 )  
( -0.000468844 0.000410334 6.21659e-05 )  
( 4.34384e-05 0.000312782 0.00014028 )  
( 0.000392973 -0.000128705 0.00017331 )  
( 0.000224274 -7.99328e-05 0.000142495 )  
( 0.000637546 0.00107772 0.00574945 )  
( -0.000397547 0.0019433 0.00713212 )  
( -0.000234648 -0.000213606 -0.000776856 )  
( 0.00236402 0.000256682 0.0068699 )  
( 0.00022079 0.000652968 0.00783488 )  
( 0.000754486 0.000897565 0.00579875 )  
( -0.000453106 0.000805486 0.00623485 )  
( 6.30968e-05 -0.000578396 -0.000693763 )  
( 0.000891059 0.000104191 0.00614203 )  
( 0.000460684 0.000235715 -0.000729472 )  
( -0.000372793 0.0012202 0.00606267 )  
( 0.00148532 -0.00343389 -0.00117638 )  
( 0.00117571 -1.79021e-05 0.00736178 )  
( -1.82434e-05 -1.51136e-06 1.08788e-05 )  
( -0.000152848 0.000619323 0.00360402 )  
( 0.000134956 0.00106977 0.0044276 )  
( 0.000700998 0.000407698 0.000109225 )  
( -0.00118389 -0.00176221 0.00489976 )  
( 0.00050951 0.00136775 0.00433816 )  
( 0.000890053 0.000980135 -0.000732601 )  
( 0.00010159 0.00103573 0.00462318 )  
( 0.000260054 0.00458435 0.00811637 )  
( 0.000938987 -5.84581e-05 0.00656226 )  
( 0.000348015 3.74493e-05 0.00638523 )  
( -5.17095e-05 0.000322922 0.00459542 )  
( -0.00134218 0.00160176 0.00476961 )  
( -0.000822619 0.000402809 0.0052786 )  
( -3.6946e-05 0.000220899 0.00543496 )  
( 0.00152949 0.000418976 0.00778421 )  
( 0.00144909 -0.00327201 0.00753144 )  
( 0.0037009 0.00128678 0.00419762 )  
( -0.00267207 0.00482855 0.0120972 )  
( -0.00012753 -7.74037e-05 6.70384e-05 )  
( 0.000514303 0.00172059 -0.000127325 )  
( 0.000760522 0.00107799 0.00615672 )  
( -0.0011761 -0.000727587 0.0111546 )  
( 4.78179e-06 6.82772e-05 6.31103e-05 )  
( -0.000522166 -0.000410924 0.00538398 )  
( 0.000688115 -0.000580625 0.00627262 )  
( 0.000378669 0.00029586 0.00512507 )  
( 0.00112172 0.00111241 0.0057725 )  
( 0.000216096 0.000295897 0.00628911 )  
( -0.000368459 0.00212156 -0.000789115 )  
( 0.00252766 0.00010097 2.76967e-07 )  
( -0.0011553 0.00192008 0.00873804 )  
( -7.34709e-05 0.0010394 -0.00117634 )  
( 0.000592656 -0.00245169 -0.00234604 )  
( 0.000546023 -7.84391e-05 0.00478153 )  
( 0.000962822 8.57517e-05 0.00701765 )  
( -0.00159519 0.000367195 0.00719845 )  
( 0.000180004 0.000225447 0.00495229 )  
( 0.000180792 0.000163684 -0.000269105 )  
( 0.00045477 0.000455761 0.00620566 )  
( 0.000362757 0.00037532 0.006509 )  
( 0.000434933 0.00171953 0.00536961 )  
( 0.00016052 0.00331385 0.00606171 )  
( 0.000588658 0.000326923 0.00758643 )  
( 0.00232616 0.00148078 -0.000260157 )  
( 0.000443573 0.000873032 0.00582734 )  
( 0.000357616 3.54655e-05 0.00629731 )  
( 0.000493255 -0.00284207 0.00709316 )  
( 2.49665e-05 0.00029217 0.00512538 )  
( -0.000138457 7.50874e-05 0.00607773 )  
( 0.000174702 -0.000338583 -0.000148861 )  
( 0.000221242 0.000236559 -0.000691943 )  
( 0.00156854 -0.000178921 0.00702063 )  
( 0.000184679 6.64331e-05 2.69812e-05 )  
( 0.00115061 -0.00110031 -0.000380467 )  
( 0.0013549 -0.00099361 0.00885452 )  
( 0.000202931 0.000120127 0.000142966 )  
( 0.0010608 0.000738247 0.006394 )  
( 0.00342715 0.000367294 0.00515709 )  
( 0.00053802 -0.000133681 0.005551 )  
( -0.000764733 0.0012845 0.00528875 )  
( -0.00010119 2.71069e-05 -2.78071e-05 )  
( 0.000919743 0.000582431 0.00553333 )  
( 0.000200703 0.000180802 0.00576268 )  
( 0.000388335 0.00179346 5.43018e-05 )  
( 0.00213195 -0.00188803 0.00578696 )  
( 0.000794662 0.000338273 0.00396575 )  
( -0.000615674 7.4887e-05 0.00586675 )  
( 0.00123463 0.000352272 0.00603385 )  
( -0.000295596 0.00158931 0.00783058 )  
( 0.000557148 -0.000311611 -4.57229e-05 )  
( -0.000162129 -0.000327109 8.18402e-06 )  
( -0.000234081 0.000190175 0.00425642 )  
( 0.0014753 0.000318004 0.0069557 )  
( -0.00289088 0.00575755 0.00973389 )  
( 0.000785364 -0.00068334 0.00610013 )  
( 0.00138832 -0.000886042 0.00607427 )  
( 0.000657846 -0.00115931 0.00571638 )  
( 0.00245635 9.24696e-05 0.00744605 )  
( -0.000357695 -0.00123262 0.00669166 )  
( 0.000850338 -0.000576037 7.08421e-06 )  
( 0.000712244 0.000285434 0.00456903 )  
( 0.000255183 -0.000765094 0.00786453 )  
( -0.00186051 -0.00182965 0.00549438 )  
( 0.0015165 0.000187446 0.00777193 )  
( 5.04629e-05 0.000184691 -8.94581e-05 )  
( -2.33928e-05 -2.7978e-05 -3.15851e-05 )  
( -0.00114585 0.0021428 0.00635462 )  
( 0.00157531 0.00343297 0.00750181 )  
( 0.000273078 0.000188547 1.91254e-05 )  
( 0.00170702 0.000722854 -0.00250914 )  
( -0.00143231 0.00111828 0.00765743 )  
( 0.000792175 0.000177656 0.00525943 )  
( 0.000467511 0.00110277 0.00560662 )  
( 0.000432426 0.000432077 0.000489239 )  
( 0.000164577 0.00320705 0.00397711 )  
( 0.00296103 -0.00217349 0.00596608 )  
( -0.000530913 -0.000382387 0.00626833 )  
( -0.000838627 0.00100455 0.00406428 )  
( 0.00107655 -0.000264318 -0.000147862 )  
( 4.52823e-05 0.00043131 0.00701772 )  
( 5.77815e-05 -4.4139e-08 -7.6513e-06 )  
( 0.000111249 -0.000547529 -4.8346e-05 )  
( -0.000319389 -0.000317535 0.00503255 )  
( 0.00124426 0.000655465 -1.44408e-05 )  
( 0.003634 -0.000447016 0.00820464 )  
( 0.000301012 0.000267614 -0.00042366 )  
( 0.00266716 0.000169654 0.00655018 )  
( 0.000222114 0.000583118 0.00433432 )  
( -7.89234e-05 -0.00118231 0.00446773 )  
( 0.000551837 0.000870469 0.00541026 )  
( -4.41301e-05 -0.000560058 1.70239e-05 )  
( 0.000673412 -0.000217218 0.00492597 )  
( -6.23863e-08 -0.00023781 0.000162359 )  
( 0.000482255 0.00130183 0.00532297 )  
( 0.00223674 -0.000868283 0.00656867 )  
( 0.000260412 0.000210132 0.00619074 )  
( 0.00236299 2.44098e-05 0.00689721 )  
( -8.81137e-05 0.00115301 0.00420864 )  
( 0.00320229 0.00127961 0.00541315 )  
( 0.0010974 0.000366674 0.00903194 )  
( 0.000506321 0.00112737 0.00478638 )  
( 0.000143297 -0.00175691 0.00532241 )  
( 0.000823307 0.000757748 0.0069477 )  
( 1.78217e-05 -0.000291304 2.98546e-06 )  
( 9.94281e-05 5.36386e-05 3.54799e-05 )  
( 0.000320213 -0.000974231 0.006284 )  
( -2.60888e-05 -3.64396e-05 2.76736e-06 )  
( -0.000826314 0.00123186 0.00521402 )  
( -0.00108924 0.000193232 0.00685845 )  
( 0.000512451 -0.000204197 0.00569497 )  
( -0.000561607 0.000302396 0.0035904 )  
( 0.00683246 -0.0023053 0.013904 )  
( -0.00115467 0.000769702 0.00677691 )  
( -0.000533221 0.00271072 0.00555296 )  
( 0.000706066 -0.000911741 0.00576548 )  
( -0.000127985 -0.000722843 9.06624e-06 )  
( 0.00134385 0.00108359 0.00715385 )  
( -8.28804e-05 0.00034962 -0.000893223 )  