/*--------------------------------*- C++ -*----------------------------------*\
| =========                 |                                                 |
| \\      /  F ield         | OpenFOAM: The Open Source CFD Toolbox           |
|  \\    /   O peration     | Version:  2506                                  |
|   \\  /    A nd           | Website:  www.openfoam.com                      |
|    \\/     M anipulation  |                                                 |
\*---------------------------------------------------------------------------*/
FoamFile
{
    version     2.0;
    format      ascii;
    arch        "LSB;label=32;scalar=64";
    class       surfaceScalarField;
    location    "0.01";
    object      phi;
}
// * * * * * * * * * * * * * * * * * * * * * * * * * * * * * * * * * * * * * //

dimensions      [0 3 -1 0 0 0 0];

oriented        oriented;

internalField   nonuniform List<scalar> 
3120
(
-1.49172e-09
-2.59677e-09
2.07294e-08
4.61102e-10
-2.23371e-10
-2.24311e-10
1.03833e-08
-8.4846e-11
-1.8944e-10
-1.15682e-09
1.08443e-08
1.48314e-09
2.99382e-10
7.89257e-09
6.6891e-10
2.34873e-09
3.05062e-10
-4.18962e-11
9.97808e-09
-1.33862e-09
2.90341e-11
1.27036e-08
1.04983e-09
8.85734e-10
6.9725e-09
8.16201e-10
1.13736e-08
5.4173e-10
2.88412e-10
-2.8305e-10
1.19391e-08
2.13551e-10
2.22836e-10
1.11366e-08
1.53847e-09
1.81074e-09
9.10659e-09
6.48384e-10
1.34565e-08
-3.87157e-10
7.32482e-10
5.37268e-09
1.7461e-09
1.05535e-08
3.15466e-10
1.46915e-08
1.57209e-08
-1.8171e-09
-9.90896e-10
-4.42395e-10
2.19207e-08
-3.35511e-10
7.5024e-10
9.27562e-11
7.81813e-09
7.31313e-10
-6.52897e-11
1.28766e-09
1.10522e-08
-6.80019e-10
1.09844e-09
4.21931e-09
1.63584e-09
8.73692e-10
-4.66336e-10
9.26555e-12
8.2802e-09
1.68587e-09
7.47329e-10
9.89681e-09
-4.39197e-10
-1.17625e-09
1.15615e-08
-2.32616e-09
1.38758e-08
4.83251e-10
2.53304e-10
7.40911e-10
1.02387e-08
3.35832e-10
-1.95289e-10
1.19967e-08
-1.19199e-09
-1.20046e-09
1.06586e-08
1.94653e-10
7.95528e-09
1.78846e-09
-5.53123e-10
1.1124e-08
-2.03983e-10
9.84643e-09
-2.19232e-10
1.35695e-08
7.63952e-09
3.46823e-09
-7.9922e-10
-1.71316e-09
1.40578e-08
-3.1759e-09
-7.19341e-10
-1.09003e-09
1.02652e-08
-1.4369e-09
8.10635e-11
8.64719e-10
9.10348e-09
2.83591e-10
-1.99757e-10
5.97778e-09
-7.55416e-10
-7.22236e-10
-5.56212e-10
-6.00556e-10
6.73111e-09
1.30328e-09
-8.77997e-10
7.82529e-09
-1.18171e-09
-1.58583e-09
1.6497e-08
-4.84852e-10
1.33179e-08
-3.38734e-10
-6.08396e-10
-1.15018e-09
1.0701e-08
5.14209e-10
1.12493e-09
8.87114e-09
-1.41256e-11
1.16148e-09
8.43964e-09
-6.45145e-10
7.16978e-09
9.3166e-10
1.80423e-09
8.61249e-09
6.07409e-10
1.37274e-08
-1.8604e-09
1.84309e-08
2.12815e-09
2.1747e-09
1.11221e-09
8.38876e-10
1.12003e-08
1.00177e-09
9.35882e-11
-9.68212e-10
1.1511e-08
7.4103e-10
6.62658e-10
-1.52785e-09
9.97429e-09
8.79713e-11
-1.2986e-09
1.05504e-08
-4.13579e-10
-2.19778e-09
-9.60264e-10
-3.01448e-10
1.03685e-08
-6.37479e-11
9.06977e-10
5.05358e-09
1.45e-09
6.92776e-10
1.27626e-08
1.68942e-09
1.12041e-08
5.75778e-10
4.95835e-10
-4.29737e-10
8.98056e-09
-9.17236e-10
-1.69045e-09
1.28816e-08
1.19111e-09
1.32111e-09
5.70296e-09
2.08273e-10
1.08452e-08
-1.00316e-09
-9.83561e-10
1.00278e-08
2.40798e-09
5.36834e-09
8.57034e-10
2.23475e-08
7.77783e-09
-2.47498e-09
-4.24642e-10
1.75019e-09
9.85224e-09
4.2082e-10
3.03365e-11
2.10411e-10
9.94819e-09
8.974e-10
8.52374e-10
-1.35463e-09
1.10468e-08
-5.39938e-10
-1.92748e-09
1.63103e-08
-1.92673e-09
-1.05331e-09
-8.62581e-10
-1.74892e-09
1.55397e-08
-9.35315e-10
5.9902e-10
4.7377e-09
3.84784e-10
8.67846e-10
9.22007e-09
1.19773e-09
6.57109e-09
1.89258e-09
1.53164e-09
-1.58409e-09
6.00454e-09
-7.31777e-10
1.93988e-10
1.55501e-08
-3.20673e-10
6.46572e-10
5.51313e-09
1.61783e-09
1.01755e-08
-7.10991e-11
-7.78021e-10
7.7803e-09
-2.88175e-09
4.10503e-09
1.03767e-09
2.0588e-08
1.34962e-08
-2.52781e-09
-8.34387e-10
-4.14356e-09
1.50303e-08
9.95966e-10
-1.53899e-10
-6.96511e-10
8.19699e-09
1.76723e-09
-6.37888e-10
2.52989e-10
1.01756e-08
1.10227e-09
-1.33603e-09
1.75401e-08
-3.68065e-10
-1.63611e-10
5.88115e-10
-1.38403e-09
1.40165e-08
-7.91952e-10
-6.16364e-10
6.03761e-09
-1.2213e-09
6.05441e-10
9.29695e-09
2.63669e-10
2.68716e-09
1.06294e-09
6.25623e-10
-2.51841e-09
6.20301e-09
-7.87173e-10
-8.7198e-10
1.72185e-08
-4.50451e-10
6.51083e-10
5.13076e-09
3.69873e-10
9.79038e-09
-1.715e-10
2.03463e-09
5.04403e-09
4.10406e-10
8.89872e-09
-1.80213e-09
2.65091e-08
1.2817e-08
-2.74806e-10
-4.56584e-09
1.64332e-09
1.56252e-08
1.17993e-09
-6.48114e-09
-1.03471e-08
8.57469e-09
1.18848e-08
-3.83143e-09
-3.20024e-09
9.81386e-09
9.12223e-10
-3.60479e-09
1.46782e-08
3.67318e-09
-1.0379e-09
1.20968e-09
2.92526e-09
1.22846e-08
-1.85133e-09
-2.61438e-09
1.36578e-09
5.12751e-11
-1.07482e-09
5.269e-09
-9.4744e-10
1.97498e-09
-1.8939e-09
-8.63531e-10
-7.39838e-11
1.13051e-08
-2.48027e-09
-3.24726e-09
1.94682e-08
-8.34724e-10
-5.45397e-09
7.86404e-09
2.77955e-09
4.62153e-09
6.07094e-10
5.1666e-09
9.71306e-09
-5.49769e-09
2.09907e-08
3.43668e-09
1.73051e-08
5.56868e-09
9.70473e-09
1.37205e-09
3.11776e-09
1.29141e-08
-1.52002e-09
-1.09666e-09
9.50228e-10
1.22808e-08
-2.18743e-09
-2.39222e-09
6.2424e-10
1.19037e-08
-1.41842e-09
1.62774e-09
1.27385e-08
-1.0206e-09
-1.05963e-09
1.61686e-09
3.08132e-09
1.12708e-08
-1.2952e-09
1.43758e-09
3.79046e-09
-1.17153e-09
-2.49899e-10
6.01956e-09
1.17082e-10
4.1572e-09
-1.84319e-09
-5.36171e-10
2.50076e-09
1.44825e-08
-1.55307e-09
1.74504e-09
2.01773e-08
-8.96913e-10
-2.64737e-09
9.60526e-09
6.25073e-10
3.22475e-09
-8.35498e-12
-8.33083e-10
1.77547e-08
-8.57155e-09
3.36235e-08
-1.16777e-09
5.2939e-09
2.59449e-09
2.14551e-09
8.25299e-10
1.48405e-09
1.22053e-08
-1.70253e-09
2.20506e-09
1.75556e-09
1.12325e-08
-2.08693e-09
1.63139e-09
2.35832e-09
1.15099e-08
-1.39079e-09
3.44949e-09
1.1406e-08
-2.20779e-09
1.72215e-09
2.2149e-09
-9.43834e-10
1.14955e-08
2.48519e-09
-4.4428e-09
9.71886e-09
1.44305e-09
-3.40141e-10
9.76015e-09
4.86664e-10
9.17801e-09
-6.14865e-10
-4.76632e-11
-7.54007e-10
1.27952e-08
5.30083e-09
-3.61706e-09
1.40032e-08
3.64928e-09
-9.35928e-11
1.10105e-08
-1.38886e-09
9.24187e-09
-4.92339e-10
-1.86385e-09
1.27279e-08
8.28411e-09
1.47548e-08
2.72509e-09
1.00163e-08
8.97716e-09
-1.83088e-09
7.658e-10
8.23808e-10
1.18687e-08
-1.04184e-09
8.30964e-10
6.99533e-10
1.15915e-08
-1.12371e-09
7.34837e-10
7.70564e-10
1.14273e-08
-5.91844e-10
9.11492e-10
1.12575e-08
-6.22403e-10
5.94236e-10
8.94731e-10
8.60238e-11
1.15152e-08
9.07122e-10
-6.8318e-10
1.10892e-08
5.68343e-10
3.61995e-11
1.08334e-08
1.66558e-10
1.06087e-08
-1.17383e-10
2.46891e-10
4.27396e-10
1.19437e-08
1.47378e-09
-8.64948e-11
1.21798e-08
1.02211e-09
2.71642e-10
1.12268e-08
-1.85564e-10
1.07151e-08
-9.88344e-11
8.77745e-11
1.18151e-08
1.60332e-09
1.22486e-08
6.40942e-10
1.09168e-08
1.06585e-08
-6.26826e-10
4.8391e-10
5.53177e-10
1.17331e-08
-6.05854e-10
5.48793e-10
4.74344e-10
1.16101e-08
-5.57739e-10
4.48303e-10
4.66405e-10
1.14727e-08
-4.11243e-10
4.83186e-10
1.13727e-08
-4.45681e-10
2.95684e-10
4.69361e-10
2.66614e-10
1.15717e-08
5.46458e-10
4.90496e-11
1.14374e-08
3.89332e-10
1.7706e-10
1.12799e-08
1.85784e-10
1.11805e-08
1.15013e-10
2.61672e-10
3.56388e-10
1.16584e-08
6.44353e-10
1.79349e-10
1.1667e-08
4.62693e-10
2.1541e-10
1.13702e-08
6.54654e-11
1.12112e-08
8.69281e-11
1.73799e-10
1.15805e-08
6.25786e-10
1.16461e-08
3.1092e-10
1.12816e-08
1.12063e-08
-1.10081e-10
3.1865e-10
3.51623e-10
1.16626e-08
-3.59822e-10
3.53389e-10
3.04844e-10
1.15918e-08
-3.21252e-10
3.03023e-10
2.79865e-10
1.15085e-08
-2.65251e-10
2.61836e-10
1.14432e-08
-2.56378e-10
2.27052e-10
2.87079e-10
2.5942e-10
1.15819e-08
3.29146e-10
1.82036e-10
1.15183e-08
2.66848e-10
1.84914e-10
1.14372e-08
1.67064e-10
1.13827e-08
1.59486e-10
2.14194e-10
2.63134e-10
1.15721e-08
3.22258e-10
1.95156e-10
1.15459e-08
2.57652e-10
1.78337e-10
1.14414e-08
1.27369e-10
1.13801e-08
1.28494e-10
1.6222e-10
1.15271e-08
2.92357e-10
1.15213e-08
2.03282e-10
1.14092e-08
1.13755e-08
6.7502e-11
2.13164e-10
2.34171e-10
1.16195e-08
-2.27627e-10
2.27839e-10
2.09147e-10
1.1576e-08
-2.07949e-10
2.04278e-10
1.89916e-10
1.15261e-08
-1.83972e-10
1.74676e-10
1.1481e-08
-1.73476e-10
1.6533e-10
1.92155e-10
2.07868e-10
1.15735e-08
2.0877e-10
1.74408e-10
1.15365e-08
1.83542e-10
1.60382e-10
1.14921e-08
1.44678e-10
1.14575e-08
1.38826e-10
1.60154e-10
1.96509e-10
1.1547e-08
1.92609e-10
1.65537e-10
1.15224e-08
1.68143e-10
1.49048e-10
1.14773e-08
1.28714e-10
1.14459e-08
1.18349e-10
1.31351e-10
1.15163e-08
1.72951e-10
1.15007e-08
1.46221e-10
1.1458e-08
1.14356e-08
9.64054e-11
1.44647e-10
1.609e-10
1.15909e-08
-1.50915e-10
1.51459e-10
1.47843e-10
1.15631e-08
-1.41793e-10
1.40617e-10
1.36191e-10
1.15319e-08
-1.31078e-10
1.26526e-10
1.14987e-08
-1.23343e-10
1.19757e-10
1.32971e-10
1.55474e-10
1.15621e-08
1.39842e-10
1.39163e-10
1.15383e-08
1.2873e-10
1.27895e-10
1.15115e-08
1.17443e-10
1.14875e-08
1.07849e-10
1.1704e-10
1.46585e-10
1.15384e-08
1.28106e-10
1.30838e-10
1.15197e-08
1.17855e-10
1.20115e-10
1.14954e-08
1.10283e-10
1.1475e-08
9.59229e-11
1.01438e-10
1.15158e-08
1.16481e-10
1.15017e-08
1.0746e-10
1.14799e-08
1.14632e-08
8.55268e-11
9.95954e-11
1.12655e-10
1.1571e-08
-1.03187e-10
1.03298e-10
1.05939e-10
1.15526e-08
-9.91584e-11
9.81429e-11
9.94318e-11
1.15319e-08
-9.43309e-11
9.37714e-11
1.15064e-08
-8.94651e-11
8.61801e-11
9.34899e-11
1.13513e-10
1.1552e-08
9.67796e-11
1.05072e-10
1.15359e-08
9.13044e-11
9.8032e-11
1.15184e-08
9.15457e-11
1.15008e-08
8.01774e-11
8.51476e-11
1.08607e-10
1.15338e-08
8.95893e-11
1.00118e-10
1.15202e-08
8.45991e-11
9.36126e-11
1.15047e-08
8.79439e-11
1.14901e-08
7.30906e-11
7.65684e-11
1.15171e-08
8.27902e-11
1.15058e-08
7.88175e-11
1.1492e-08
1.14791e-08
6.73243e-11
6.93694e-11
7.97227e-11
1.15568e-08
-7.18761e-11
7.16477e-11
7.63114e-11
1.15442e-08
-7.02389e-11
6.90493e-11
7.27789e-11
1.15298e-08
-6.81113e-11
6.9516e-11
1.15094e-08
-6.52109e-11
6.17585e-11
6.62866e-11
8.22218e-11
1.15438e-08
6.80896e-11
7.77094e-11
1.15326e-08
6.50791e-11
7.35458e-11
1.15206e-08
6.95231e-11
1.15074e-08
5.84693e-11
6.18179e-11
7.99768e-11
1.15305e-08
6.38734e-11
7.52222e-11
1.15206e-08
6.0965e-11
7.12226e-11
1.15099e-08
6.75324e-11
1.14991e-08
5.40075e-11
5.69834e-11
1.1518e-08
5.97804e-11
1.15094e-08
5.7348e-11
1.14997e-08
1.14899e-08
5.02413e-11
4.86788e-11
5.67349e-11
1.15464e-08
-5.05933e-11
5.01873e-11
5.50311e-11
1.15376e-08
-5.00577e-11
4.87744e-11
5.31234e-11
1.15272e-08
-4.91819e-11
5.12237e-11
1.15102e-08
-4.74713e-11
4.41135e-11
4.71794e-11
5.93656e-11
1.15375e-08
4.8256e-11
5.69134e-11
1.15296e-08
4.64191e-11
5.44484e-11
1.1521e-08
5.18889e-11
1.15109e-08
4.2204e-11
4.47607e-11
5.85682e-11
1.15279e-08
4.57808e-11
5.58238e-11
1.15206e-08
4.38391e-11
5.32873e-11
1.1513e-08
5.07295e-11
1.15048e-08
3.92536e-11
4.19724e-11
1.15186e-08
4.32274e-11
1.15121e-08
4.14088e-11
1.1505e-08
1.14976e-08
3.65921e-11
3.42799e-11
4.04289e-11
1.15389e-08
-3.577e-11
3.53089e-11
3.96021e-11
1.15326e-08
-3.57193e-11
3.44746e-11
3.85679e-11
1.15248e-08
-3.54161e-11
3.74349e-11
1.15102e-08
-3.43977e-11
3.13976e-11
3.35901e-11
4.27232e-11
1.15327e-08
3.42584e-11
4.1378e-11
1.1527e-08
3.30541e-11
3.98925e-11
1.15208e-08
3.82228e-11
1.15129e-08
3.02457e-11
3.22744e-11
4.26277e-11
1.15257e-08
3.27808e-11
4.10074e-11
1.15204e-08
3.13857e-11
3.93562e-11
1.15148e-08
3.75402e-11
1.15086e-08
2.82336e-11
3.06328e-11
1.15188e-08
3.11414e-11
1.15139e-08
2.96984e-11
1.15087e-08
1.15031e-08
2.62958e-11
2.41109e-11
2.87013e-11
1.15335e-08
-2.52483e-11
2.4816e-11
2.83214e-11
1.15289e-08
-2.53895e-11
2.42948e-11
2.77574e-11
1.15228e-08
-2.53381e-11
2.70667e-11
1.15099e-08
-2.47191e-11
2.22189e-11
2.3826e-11
3.05516e-11
1.15292e-08
2.42417e-11
2.98112e-11
1.1525e-08
2.34137e-11
2.89011e-11
1.15204e-08
2.77933e-11
1.1514e-08
2.15021e-11
2.31104e-11
3.07557e-11
1.15241e-08
2.33452e-11
2.97839e-11
1.15201e-08
2.23157e-11
2.86933e-11
1.1516e-08
2.7402e-11
1.15111e-08
2.01105e-11
2.21302e-11
1.15189e-08
2.22753e-11
1.15152e-08
2.11347e-11
1.15114e-08
1.15071e-08
1.86995e-11
1.68114e-11
2.01424e-11
1.15297e-08
-1.7644e-11
1.72876e-11
1.99872e-11
1.15262e-08
-1.78391e-11
1.69481e-11
1.96801e-11
1.15213e-08
-1.78871e-11
1.92538e-11
1.15095e-08
-1.75059e-11
1.55424e-11
1.67221e-11
2.15627e-11
1.15267e-08
1.69737e-11
2.11576e-11
1.15236e-08
1.6393e-11
2.05968e-11
1.15201e-08
1.98601e-11
1.15147e-08
1.5087e-11
1.63367e-11
2.1858e-11
1.15228e-08
1.64265e-11
2.12727e-11
1.15199e-08
1.56687e-11
2.05518e-11
1.15168e-08
1.96457e-11
1.15129e-08
1.41272e-11
1.57489e-11
1.15189e-08
1.57263e-11
1.15161e-08
1.48496e-11
1.15132e-08
1.15098e-08
1.31166e-11
1.14524e-11
1.37776e-11
1.15271e-08
-1.203e-11
1.17639e-11
1.37299e-11
1.15244e-08
-1.22146e-11
1.15396e-11
1.35655e-11
1.15202e-08
-1.22899e-11
1.33042e-11
1.15092e-08
-1.20553e-11
1.06031e-11
1.14491e-11
1.48157e-11
1.15249e-08
1.15946e-11
1.45977e-11
1.15225e-08
1.11916e-11
1.42555e-11
1.15198e-08
1.37738e-11
1.15151e-08
1.03162e-11
1.1246e-11
1.50985e-11
1.1522e-08
1.12636e-11
1.47491e-11
1.15197e-08
1.07211e-11
1.42798e-11
1.15173e-08
1.36624e-11
1.15141e-08
9.66637e-12
1.08962e-11
1.15189e-08
1.08114e-11
1.15168e-08
1.01678e-11
1.15145e-08
1.15117e-08
8.9657e-12
7.3828e-12
8.90771e-12
1.15254e-08
-7.7585e-12
7.57554e-12
8.90442e-12
1.15232e-08
-7.90276e-12
7.43299e-12
8.81974e-12
1.15195e-08
-7.97143e-12
8.66631e-12
1.1509e-08
-7.83031e-12
6.83908e-12
7.40777e-12
9.61245e-12
1.15238e-08
7.48739e-12
9.49907e-12
1.15219e-08
7.22206e-12
9.29783e-12
1.15196e-08
8.998e-12
1.15154e-08
6.66627e-12
7.30422e-12
9.83563e-12
1.15214e-08
7.29411e-12
9.63232e-12
1.15196e-08
6.9304e-12
9.33965e-12
1.15176e-08
8.94273e-12
1.15148e-08
6.24871e-12
7.10007e-12
1.1519e-08
7.0138e-12
1.15172e-08
6.577e-12
1.15153e-08
1.1513e-08
5.79229e-12
4.15801e-12
5.05119e-12
1.15245e-08
-4.39089e-12
4.26457e-12
5.05903e-12
1.15225e-08
-4.48107e-12
4.18574e-12
5.01906e-12
1.15191e-08
-4.52688e-12
4.93749e-12
1.15088e-08
-4.44932e-12
3.8565e-12
4.18164e-12
5.46495e-12
1.15232e-08
4.22251e-12
5.41025e-12
1.15215e-08
4.07164e-12
5.30318e-12
1.15195e-08
5.13753e-12
1.15155e-08
3.76234e-12
4.13235e-12
5.609e-12
1.15211e-08
4.12001e-12
5.50069e-12
1.15195e-08
3.91062e-12
5.33759e-12
1.15178e-08
5.11297e-12
1.15153e-08
3.52708e-12
4.02214e-12
1.1519e-08
3.96444e-12
1.15174e-08
3.71152e-12
1.15158e-08
1.15137e-08
3.267e-12
1.72934e-12
2.2332e-12
-1.93732e-12
1.77823e-12
2.23286e-12
-1.97072e-12
1.74977e-12
2.21082e-12
-1.98362e-12
2.16863e-12
-1.94311e-12
1.62161e-12
1.73565e-12
2.42463e-12
1.75518e-12
2.39785e-12
1.695e-12
2.34671e-12
2.2691e-12
1.57239e-12
1.71104e-12
2.49938e-12
1.70598e-12
2.44939e-12
1.61948e-12
2.37357e-12
2.26992e-12
1.46461e-12
1.65975e-12
1.63363e-12
1.5274e-12
1.3454e-12
-6.87934e-10
-1.63033e-09
2.09368e-08
3.64971e-10
1.89019e-09
1.28677e-08
1.01465e-09
3.20102e-09
9.87753e-09
-1.87248e-09
1.33847e-08
5.74825e-10
1.11208e-09
7.5684e-10
1.15039e-08
1.41932e-09
-2.28751e-09
1.79484e-08
2.51324e-10
-1.79122e-09
1.84265e-08
-7.83221e-10
8.56034e-09
2.69775e-10
-8.86411e-10
3.5696e-10
1.46361e-08
1.63578e-09
8.76412e-10
6.90258e-09
2.06082e-10
-2.86422e-09
1.33365e-08
-3.00204e-09
1.07498e-08
-6.68554e-11
-1.17424e-09
1.49349e-08
2.90849e-10
1.03632e-08
-5.55762e-10
8.78136e-09
3.69727e-09
2.5348e-10
2.3233e-09
2.51565e-09
1.22576e-08
7.74235e-11
-1.88083e-09
1.69976e-08
4.71368e-10
-2.50735e-09
1.20127e-08
-1.53741e-09
1.61404e-08
-7.45214e-10
2.67688e-10
6.30941e-11
1.15992e-08
-4.74905e-10
1.04019e-09
1.577e-08
7.02259e-10
2.18495e-10
1.45235e-08
-1.49843e-09
9.38012e-09
-1.56491e-10
6.77898e-10
-6.08857e-10
1.43968e-08
-9.70603e-10
-5.83427e-10
1.01747e-08
4.13109e-10
-1.44541e-10
1.23159e-08
2.98008e-09
5.58883e-09
1.09554e-09
2.20488e-10
9.50502e-09
-4.54275e-10
1.11858e-08
1.7673e-09
5.73522e-09
9.91282e-09
1.67668e-10
1.20873e-09
9.21254e-10
7.18858e-09
-1.85758e-11
-9.12701e-10
1.90547e-08
1.98608e-10
-1.55318e-10
1.19138e-08
-1.55803e-09
1.79844e-08
-1.06745e-10
6.33221e-10
1.73218e-09
9.30324e-09
5.03137e-10
4.50032e-10
1.45374e-08
-6.77624e-11
-1.5159e-10
1.50907e-08
-4.69668e-10
8.20998e-09
1.40136e-11
-2.7834e-10
-1.27592e-09
1.79099e-08
1.56928e-10
5.89547e-10
9.59991e-09
-6.01458e-11
9.74838e-10
1.14065e-08
9.10371e-10
4.01236e-09
1.36282e-10
5.82928e-10
4.83911e-09
7.44978e-10
1.01764e-08
-5.12082e-10
8.25071e-09
9.32245e-09
2.33242e-10
-2.10925e-10
2.22121e-11
7.21474e-09
2.38386e-10
-8.0793e-10
1.93295e-08
-6.70606e-10
-1.92257e-09
1.47834e-08
-9.27797e-10
1.8347e-08
-1.99574e-10
-5.35831e-10
-5.57848e-10
1.09534e-08
-3.67663e-10
-2.42317e-11
1.35855e-08
-3.91994e-11
1.53539e-09
1.13043e-08
1.38447e-09
5.80199e-09
5.65179e-11
-5.83972e-10
-1.72996e-10
1.90038e-08
4.60446e-10
4.16585e-10
8.11468e-09
2.61681e-10
-3.02283e-11
1.31709e-08
-2.79752e-10
6.53431e-09
-5.9605e-10
2.3082e-11
7.01978e-09
-3.3032e-10
1.16875e-08
2.86569e-10
7.69157e-09
9.74429e-09
-8.28606e-10
-2.4954e-10
2.94488e-09
4.90283e-09
-4.54278e-10
1.08442e-09
1.83922e-08
2.96791e-10
1.17444e-09
1.28561e-08
2.51644e-09
1.49246e-08
1.27356e-09
-1.3899e-09
-3.55516e-09
2.05223e-08
-3.63509e-10
4.52019e-10
1.31915e-08
4.30368e-10
6.31032e-10
1.10538e-08
1.43852e-10
8.65787e-09
-5.29186e-11
5.28244e-10
5.82913e-10
1.36269e-08
-8.59176e-10
-7.07118e-10
1.06612e-08
5.35335e-10
-4.71026e-10
1.28784e-08
1.42062e-10
7.66732e-09
-5.9589e-10
-2.05937e-10
7.66932e-09
-1.24209e-09
1.29139e-08
1.08621e-09
4.35231e-09
9.37604e-09
-3.30206e-10
1.77561e-09
7.56432e-09
-5.15392e-09
8.20814e-11
5.59844e-09
1.43114e-08
9.35538e-10
1.09332e-09
1.09698e-08
-7.51281e-10
1.55795e-08
9.63491e-10
1.77212e-10
2.8529e-09
2.63642e-08
-1.54744e-09
1.33974e-09
1.91749e-08
7.39041e-10
3.1401e-09
6.72056e-09
2.81286e-09
5.31168e-09
5.21099e-10
-3.0394e-10
9.98038e-10
1.58929e-08
-7.42478e-10
-1.7387e-10
1.26134e-08
3.33269e-10
1.10531e-09
1.38375e-08
-1.20891e-09
1.19811e-08
4.12384e-11
-1.1192e-09
1.34469e-08
-5.12665e-10
1.39007e-08
-1.0575e-09
7.10473e-09
6.87062e-09
-1.29056e-10
6.35355e-10
3.18063e-10
1.16903e-08
-3.68926e-09
3.0406e-09
1.66785e-08
-6.45402e-10
5.35781e-10
7.92835e-09
5.29047e-10
1.29658e-08
7.93285e-11
-5.44772e-09
2.59356e-09
2.30907e-08
5.07464e-10
2.6634e-09
1.35969e-08
3.95578e-10
1.30926e-10
7.23731e-09
-1.47093e-09
7.46113e-09
2.46102e-10
-1.74707e-10
-2.4435e-09
1.64063e-08
1.57097e-09
-5.46468e-10
1.40776e-08
-2.04718e-11
2.8666e-09
1.26932e-08
-9.75628e-10
1.14668e-08
-1.49238e-12
-9.1827e-09
1.97375e-08
-4.92831e-09
2.09847e-08
-2.96596e-09
8.92123e-09
8.22376e-09
-1.62161e-09
4.49249e-10
-2.35103e-09
1.41826e-08
-7.69035e-10
-1.20131e-09
1.90981e-08
-9.51994e-10
-1.06474e-09
9.17608e-09
4.80154e-10
1.19709e-08
-4.37176e-10
-4.27558e-10
-6.18492e-10
2.07106e-08
6.29794e-10
-2.16225e-10
1.15546e-08
-3.83513e-10
-1.34934e-09
8.53522e-09
-6.47031e-10
8.61416e-09
-4.09345e-10
-5.43225e-10
-4.90024e-10
1.52157e-08
3.27941e-12
7.68471e-10
1.25465e-08
-2.25097e-10
1.26771e-09
1.03045e-08
9.1371e-10
9.63531e-09
4.57204e-11
-7.60353e-10
1.60812e-08
1.09161e-09
1.77138e-08
2.15743e-10
9.64635e-09
8.24335e-09
8.93408e-11
1.73497e-09
-1.34342e-09
1.69382e-08
2.27564e-09
2.01254e-09
1.65449e-08
2.10229e-10
-6.40938e-10
1.18825e-08
9.29871e-10
1.08368e-08
4.14456e-10
2.6646e-09
9.23472e-10
1.79417e-08
2.18236e-09
-1.11577e-10
1.4161e-08
4.15038e-10
-1.33192e-09
1.09936e-08
5.16068e-11
9.3654e-09
5.4202e-10
1.7062e-09
6.5074e-10
1.52159e-08
1.74509e-09
-6.06735e-10
1.30029e-08
6.4405e-10
-1.80541e-10
1.02542e-08
9.68364e-10
8.31081e-09
1.05177e-09
8.78896e-10
1.41262e-08
2.73808e-09
1.3161e-08
1.39526e-09
9.41781e-09
6.8839e-09
1.51542e-09
8.28819e-10
-5.11718e-10
1.71199e-08
1.06764e-09
3.27061e-10
1.59791e-08
2.92328e-10
-2.13836e-10
1.28717e-08
1.20869e-10
1.08165e-08
1.91692e-10
1.20257e-09
3.94449e-10
1.63283e-08
1.14721e-09
2.07263e-10
1.43363e-08
3.85558e-10
-2.02829e-10
1.17442e-08
1.36241e-10
9.49537e-09
2.40177e-10
1.05301e-09
5.13361e-10
1.4488e-08
1.09032e-09
2.40234e-10
1.29327e-08
4.92004e-10
5.58771e-11
1.05938e-08
3.50528e-10
8.24317e-09
3.4534e-10
8.37052e-10
1.29594e-08
1.28802e-09
1.18266e-08
7.31961e-10
9.43793e-09
6.88618e-09
4.57844e-10
5.47135e-10
6.57503e-11
1.6926e-08
6.02562e-10
2.74737e-10
1.5649e-08
2.29848e-10
5.81491e-11
1.31863e-08
1.97259e-10
1.066e-08
1.89114e-10
6.68835e-10
3.58298e-10
1.58089e-08
6.39337e-10
2.51333e-10
1.43892e-08
2.67893e-10
6.21527e-11
1.21117e-08
2.09612e-10
9.52808e-09
2.22847e-10
6.60533e-10
4.21095e-10
1.41936e-08
6.39378e-10
2.75971e-10
1.29292e-08
3.22538e-10
1.57303e-10
1.08156e-08
2.83903e-10
8.23485e-09
2.56583e-10
5.86283e-10
1.25307e-08
6.81459e-10
1.14497e-08
4.23006e-10
9.4425e-09
6.85566e-09
2.91798e-10
3.51221e-10
1.02797e-10
1.67277e-08
3.68364e-10
1.26406e-10
1.55055e-08
2.0514e-10
4.3091e-11
1.33064e-08
7.15062e-11
1.06491e-08
1.44625e-10
3.98091e-10
2.40362e-10
1.55533e-08
3.93265e-10
1.83625e-10
1.43368e-08
2.28745e-10
9.81848e-11
1.22212e-08
1.27215e-10
9.53616e-09
1.64992e-10
4.09167e-10
3.01309e-10
1.40063e-08
4.03548e-10
2.31623e-10
1.28869e-08
2.5838e-10
1.63953e-10
1.0895e-08
1.81757e-10
8.25677e-09
1.81937e-10
3.86842e-10
1.23464e-08
4.10791e-10
1.13362e-08
2.95152e-10
9.4569e-09
6.87885e-09
1.97389e-10
2.26113e-10
8.57308e-11
1.65814e-08
2.28907e-10
7.58697e-11
1.54269e-08
1.52219e-10
4.06118e-11
1.33425e-08
4.45184e-11
1.06497e-08
1.07076e-10
2.49346e-10
1.62002e-10
1.54091e-08
2.46892e-10
1.28569e-10
1.42866e-08
1.68833e-10
8.66137e-11
1.22533e-08
8.42418e-11
9.5454e-09
1.19901e-10
2.58566e-10
2.04022e-10
1.38942e-08
2.56739e-10
1.69273e-10
1.2848e-08
1.86264e-10
1.33434e-10
1.09187e-08
1.25548e-10
8.27083e-09
1.30893e-10
2.51917e-10
1.22561e-08
2.59806e-10
1.12897e-08
2.02381e-10
9.46381e-09
6.89306e-09
1.4027e-10
1.47414e-10
6.14224e-11
1.64828e-08
1.47838e-10
5.04173e-11
1.5376e-08
1.10037e-10
3.31901e-11
1.33471e-08
2.92021e-11
1.06525e-08
7.80877e-11
1.61082e-10
1.09124e-10
1.53214e-08
1.60506e-10
8.9927e-11
1.42477e-08
1.21648e-10
6.77781e-11
1.22575e-08
5.87704e-11
9.55082e-09
8.66682e-11
1.68189e-10
1.37838e-10
1.38255e-08
1.68495e-10
1.20011e-10
1.28177e-08
1.32603e-10
1.00795e-10
1.09216e-08
8.99102e-11
8.27769e-09
9.45803e-11
1.67087e-10
1.22054e-08
1.71227e-10
1.12638e-08
1.41186e-10
9.46356e-09
6.89968e-09
1.01117e-10
9.77725e-11
4.22633e-11
1.64178e-08
9.8368e-11
3.48021e-11
1.53406e-08
7.84891e-11
2.55428e-11
1.33414e-08
2.0644e-11
1.06536e-08
5.66982e-11
1.06767e-10
7.41818e-11
1.52654e-08
1.0733e-10
6.32202e-11
1.42186e-08
8.66932e-11
5.08554e-11
1.22528e-08
4.2588e-11
9.55293e-09
6.26343e-11
1.12303e-10
9.43006e-11
1.37814e-08
1.13537e-10
8.48329e-11
1.27948e-08
9.40443e-11
7.42529e-11
1.09178e-08
6.56281e-11
8.28022e-09
6.84165e-11
1.13172e-10
1.21737e-08
1.16172e-10
1.12464e-08
9.9438e-11
9.46016e-09
6.90207e-09
7.31406e-11
6.59669e-11
2.90056e-11
1.63746e-08
6.686e-11
2.44263e-11
1.53152e-08
5.57345e-11
1.91052e-11
1.33334e-08
1.50722e-11
1.06532e-08
4.10547e-11
7.22145e-11
5.10654e-11
1.52283e-08
7.3229e-11
4.47058e-11
1.41973e-08
6.15437e-11
3.74902e-11
1.22461e-08
3.12817e-11
9.55302e-09
4.523e-11
7.6486e-11
6.53616e-11
1.3752e-08
7.79452e-11
6.01733e-11
1.27778e-08
6.66987e-11
5.41751e-11
1.09123e-08
4.81421e-11
8.28056e-09
4.94413e-11
7.78824e-11
1.21524e-08
8.02995e-11
1.12339e-08
7.04316e-11
9.456e-09
6.90245e-09
5.28678e-11
4.51337e-11
2.00773e-11
1.63454e-08
4.60976e-11
1.72982e-11
1.52969e-08
3.95273e-11
1.40768e-11
1.33258e-08
1.11047e-11
1.0652e-08
2.96383e-11
4.95465e-11
3.55363e-11
1.52031e-08
5.06321e-11
3.17576e-11
1.41816e-08
4.36499e-11
2.7381e-11
1.22397e-08
2.30064e-11
9.55215e-09
3.25973e-11
5.27727e-11
4.57555e-11
1.37318e-08
5.41586e-11
4.2827e-11
1.27653e-08
4.73384e-11
3.9321e-11
1.09071e-08
3.52638e-11
8.27993e-09
3.56455e-11
5.41702e-11
1.21376e-08
5.61165e-11
1.12247e-08
5.0018e-11
9.45213e-09
6.90198e-09
3.81196e-11
3.11588e-11
1.40032e-11
1.63252e-08
3.20485e-11
1.22853e-11
1.52837e-08
2.79988e-11
1.02589e-11
1.33196e-08
8.15318e-12
1.06505e-08
2.13032e-11
3.42907e-11
2.48953e-11
1.51856e-08
3.52726e-11
2.25888e-11
1.41702e-08
3.09245e-11
1.98498e-11
1.22344e-08
1.68318e-11
9.55097e-09
2.34035e-11
3.66872e-11
3.22001e-11
1.37177e-08
3.78705e-11
3.05038e-11
1.27561e-08
3.35794e-11
2.83949e-11
1.09029e-08
2.56915e-11
8.279e-09
2.55977e-11
3.78921e-11
1.21271e-08
3.94209e-11
1.12178e-08
3.55207e-11
9.44891e-09
6.90126e-09
2.73743e-11
2.15769e-11
9.78356e-12
1.63112e-08
2.2323e-11
8.69863e-12
1.52741e-08
1.97521e-11
7.3886e-12
1.33147e-08
5.92462e-12
1.06491e-08
1.52004e-11
2.37941e-11
1.74497e-11
1.51734e-08
2.46054e-11
1.60107e-11
1.4162e-08
2.18212e-11
1.42557e-11
1.22302e-08
1.21924e-11
9.54982e-09
1.6686e-11
2.55462e-11
2.26433e-11
1.37077e-08
2.64928e-11
2.16427e-11
1.27495e-08
2.37225e-11
2.03451e-11
1.08995e-08
1.8542e-11
8.27808e-09
1.82538e-11
2.65123e-11
1.21197e-08
2.7677e-11
1.12129e-08
2.51246e-11
9.44639e-09
6.90055e-09
1.95224e-11
1.48593e-11
6.78394e-12
1.63015e-08
1.54438e-11
6.08959e-12
1.52674e-08
1.37861e-11
5.2322e-12
1.3311e-08
4.23028e-12
1.06479e-08
1.07007e-11
1.64127e-11
1.21283e-11
1.51649e-08
1.70413e-11
1.12203e-11
1.41562e-08
1.52339e-11
1.00837e-11
1.22271e-08
8.68604e-12
9.54886e-09
1.17403e-11
1.76693e-11
1.57742e-11
1.37008e-08
1.83882e-11
1.51797e-11
1.27447e-08
1.65791e-11
1.43723e-11
1.0897e-08
1.31714e-11
8.2773e-09
1.28464e-11
1.84075e-11
1.21145e-08
1.92649e-11
1.12093e-08
1.75793e-11
9.44452e-09
6.89995e-09
1.37423e-11
1.00237e-11
4.5976e-12
1.6295e-08
1.04531e-11
4.15493e-12
1.52628e-08
9.38796e-12
3.59775e-12
1.33084e-08
2.92889e-12
1.0647e-08
7.3343e-12
1.10854e-11
8.23385e-12
1.51592e-08
1.15436e-11
7.6638e-12
1.41522e-08
1.03767e-11
6.9334e-12
1.22249e-08
6.00669e-12
9.54813e-09
8.04413e-12
1.1959e-11
1.07269e-11
1.36961e-08
1.24762e-11
1.03764e-11
1.27415e-08
1.13043e-11
9.87729e-12
1.08952e-08
9.09038e-12
8.27671e-09
8.80427e-12
1.24959e-11
1.2111e-08
1.31003e-11
1.12069e-08
1.19979e-11
9.44319e-09
6.8995e-09
9.42051e-12
6.41479e-12
2.95345e-12
1.62908e-08
6.70509e-12
2.68108e-12
1.52598e-08
6.04638e-12
2.33319e-12
1.33067e-08
1.90912e-12
1.06464e-08
4.74716e-12
7.10082e-12
5.29344e-12
1.51555e-08
7.40865e-12
4.94775e-12
1.41496e-08
6.68513e-12
4.49696e-12
1.22235e-08
3.91358e-12
9.54763e-09
5.20579e-12
7.67171e-12
6.90416e-12
1.36931e-08
8.01658e-12
6.70387e-12
1.27394e-08
7.28927e-12
6.40701e-12
1.08941e-08
5.91595e-12
8.27631e-09
5.69896e-12
8.03398e-12
1.21087e-08
8.43202e-12
1.12053e-08
7.74268e-12
9.44232e-09
6.89919e-09
6.0983e-12
3.597e-12
1.67393e-12
1.62884e-08
3.76626e-12
1.52317e-12
1.52581e-08
3.40522e-12
1.32901e-12
1.33058e-08
1.09066e-12
1.0646e-08
2.68421e-12
3.98584e-12
2.99192e-12
1.51534e-08
4.16543e-12
2.80344e-12
1.41481e-08
3.76908e-12
2.55527e-12
1.22227e-08
2.23127e-12
9.54733e-09
2.94614e-12
4.31048e-12
3.90289e-12
1.36914e-08
4.51109e-12
3.79846e-12
1.27382e-08
4.11376e-12
3.64e-12
1.08934e-08
3.36984e-12
8.27607e-09
3.22657e-12
4.5199e-12
1.21074e-08
4.75025e-12
1.12044e-08
4.37237e-12
9.44181e-09
6.899e-09
3.45243e-12
1.49628e-12
7.28024e-13
1.57372e-12
6.6344e-13
1.42457e-12
5.79962e-13
4.75603e-13
1.12576e-12
1.67269e-12
1.31986e-12
1.75997e-12
1.23786e-12
1.59952e-12
1.12796e-12
9.82302e-13
1.25606e-12
1.81141e-12
1.72336e-12
1.91021e-12
1.67631e-12
1.7522e-12
1.60351e-12
1.48143e-12
1.3822e-12
1.89848e-12
2.01058e-12
1.86225e-12
1.48096e-12
2.17198e-09
-1.00361e-10
7.36173e-09
1.49267e-09
-6.30377e-10
9.51818e-09
3.99869e-09
-1.2461e-10
7.58548e-09
5.97022e-10
1.50632e-08
4.99883e-10
1.19673e-10
9.15923e-09
1.26848e-09
1.65914e-09
7.77019e-09
2.37994e-09
1.0349e-09
1.00292e-08
-1.08633e-09
1.76847e-08
3.3135e-09
-3.16345e-10
7.82292e-09
2.6657e-09
-8.96717e-10
1.58791e-08
3.03751e-10
-5.58968e-10
1.8128e-08
-2.27578e-10
1.54047e-08
2.15441e-09
6.19e-09
3.10107e-09
1.13611e-08
4.84716e-10
1.68771e-08
1.60328e-08
-4.36428e-10
-4.58001e-11
8.88532e-09
-1.70251e-09
9.54322e-10
1.09255e-08
-5.58106e-10
1.55397e-09
4.73062e-09
1.9752e-09
1.18059e-08
1.16097e-09
6.21706e-11
8.37354e-09
3.48306e-10
-1.01061e-09
1.05478e-08
-9.08173e-10
-8.75549e-10
1.37152e-08
-4.20474e-10
1.92174e-08
5.56043e-11
6.71727e-10
8.94622e-09
8.45226e-10
-2.82598e-10
1.43615e-08
2.24046e-10
-6.79476e-10
1.85531e-08
1.23984e-09
1.39768e-08
-6.1372e-10
1.26352e-08
-1.56525e-10
1.10197e-08
3.19121e-09
1.05477e-08
2.12779e-08
-5.01308e-10
-3.54711e-10
9.25235e-09
-5.9179e-11
2.43761e-10
1.03759e-08
5.58349e-10
1.1686e-10
4.01025e-09
-9.85817e-10
1.32491e-08
6.14101e-10
7.45215e-10
6.32078e-09
3.24186e-10
-1.08934e-10
1.11904e-08
-2.29664e-09
3.36238e-10
1.61166e-08
2.40433e-09
1.35191e-08
-6.23208e-10
1.02184e-09
1.02245e-08
1.40966e-09
1.46743e-09
1.07523e-08
4.67689e-09
3.11893e-10
1.53102e-08
-1.08668e-09
2.20853e-08
3.93125e-10
1.59428e-08
-6.95449e-10
1.28804e-08
2.19895e-09
8.17991e-09
2.23278e-08
2.69484e-09
6.22313e-10
2.90882e-09
-1.77467e-10
1.81148e-11
1.2634e-08
-5.54707e-10
9.69721e-10
3.47429e-09
9.51956e-10
1.15433e-08
-2.35065e-10
5.25811e-11
7.70136e-09
2.68225e-09
6.02586e-10
7.68862e-09
4.52524e-10
3.94947e-10
1.89211e-08
-3.28802e-10
1.52162e-08
6.47305e-11
-4.84452e-10
9.6936e-09
8.62443e-10
-1.93235e-10
1.07504e-08
-9.38698e-10
1.08645e-10
1.73977e-08
6.72308e-10
2.00515e-08
-1.57063e-12
1.2755e-08
1.26306e-09
1.16346e-08
-3.55428e-10
1.14011e-08
2.43045e-08
-7.13057e-10
3.42856e-10
1.8955e-09
1.15066e-09
7.90267e-10
9.38414e-09
2.09432e-09
-3.87228e-11
2.51644e-09
-1.57289e-09
1.6576e-08
-3.05709e-10
-5.32436e-10
1.0775e-08
-6.18601e-10
-5.01627e-10
9.29341e-09
-1.05309e-09
-4.44137e-11
1.93613e-08
-1.31828e-09
1.40047e-08
-7.04386e-10
-9.58325e-10
1.07528e-08
6.47799e-10
2.15806e-10
8.68075e-09
-5.11914e-09
1.16127e-10
2.30041e-08
1.76618e-09
1.19612e-08
5.04573e-10
7.6569e-09
3.87887e-10
1.18384e-08
-1.57639e-09
1.31716e-08
2.6973e-08
-2.29189e-09
-2.87031e-09
6.76503e-09
1.37187e-10
-7.96453e-10
7.79274e-09
-2.74254e-09
-1.03556e-09
6.95282e-09
1.30402e-09
1.36469e-08
-1.23685e-09
-4.7779e-10
1.06822e-08
7.91188e-10
6.89094e-10
5.77982e-09
3.87829e-09
1.46048e-09
1.37781e-08
-3.87516e-10
1.95633e-08
2.00763e-09
1.01363e-10
7.99451e-09
-1.32454e-12
-6.28453e-10
1.20073e-08
-8.94119e-10
1.59911e-10
2.51974e-08
9.84546e-11
1.03782e-08
7.61606e-10