/*--------------------------------*- C++ -*----------------------------------*\
| =========                 |                                                 |
| \\      /  F ield         | OpenFOAM: The Open Source CFD Toolbox           |
|  \\    /   O peration     | Version:  2506                                  |
|   \\  /    A nd           | Website:  www.openfoam.com                      |
|    \\/     M anipulation  |                                                 |
\*---------------------------------------------------------------------------*/
FoamFile
{
    version     2.0;
    format      ascii;
    arch        "LSB;label=32;scalar=64";
    class       volVectorField;
    location    "0.01";
    object      stored_U;
}
// * * * * * * * * * * * * * * * * * * * * * * * * * * * * * * * * * * * * * //

dimensions      [0 1 -1 0 0 0 0];

internalField   nonuniform List<vector> 
1152
(
(0.00214074 -0.0010776 0.0118703)
(-0.000309488 -0.000132611 0.00602011)
(-3.696e-05 -0.000846203 0.00609012)
(0.000493798 -0.000278972 0.00498801)
(0.000532139 -0.000384841 0.00537569)
(-0.000408238 -6.95378e-05 0.00804714)
(9.94298e-05 -5.44686e-05 0.00345497)
(0.000555263 0.000202016 0.00525646)
(0.00026453 -0.000224203 0.0064948)
(0.000111543 -2.18629e-05 0.00530343)
(0.000567872 0.000647203 0.00472595)
(0.00045439 0.000446472 0.00812697)
(0.000145445 0.000298391 0.0024065)
(0.00070576 -1.64596e-05 0.0071353)
(0.000724762 0.000534451 0.0099742)
(-0.000524991 -0.000505895 0.00819025)
(-0.000506106 -5.90522e-05 0.0059136)
(-2.90674e-05 -0.000302065 0.00541143)
(0.000248789 0.000545989 0.00624523)
(0.000441575 -0.000170516 0.00399081)
(-0.000710479 -0.000125893 0.00665394)
(0.000419165 0.000190242 0.00473347)
(0.000532832 5.91697e-05 0.00605764)
(8.37215e-05 -0.000427999 0.0091052)
(-0.000307288 0.000230552 0.00733155)
(0.000230783 0.000247564 0.0086439)
(-0.000269527 -0.000696326 0.00693385)
(0.000340944 -0.000452574 0.0047644)
(0.000168261 -0.00016573 0.00469646)
(-0.000237697 -2.02768e-05 0.00312359)
(-2.47089e-05 -5.50425e-05 0.000283948)
(0.00114999 0.00148096 0.00823099)
(-0.000783622 0.00144821 0.0207663)
(-0.000127382 -5.27765e-05 0.00552083)
(-0.000135381 4.52305e-05 0.0102201)
(-1.8101e-05 -1.83218e-05 0.00254925)
(-0.000440167 -0.000347982 0.00515888)
(0.000252108 -0.000718947 0.00948447)
(0.000166481 -0.000255258 0.0104152)
(-0.000364779 -0.000252397 0.0105333)
(-0.000370804 -0.000497977 0.00726676)
(5.49865e-06 9.34973e-06 0.00829518)
(0.000283255 -0.000162517 0.00827907)
(0.000327592 -0.000316745 0.00768714)
(-0.00109788 -0.0017496 0.0128143)
(0.000716461 -0.000101486 0.0104931)
(-0.000524238 1.32442e-05 0.0181874)
(0.000153851 -1.6213e-05 0.00123167)
(-6.80033e-05 -2.69074e-05 0.00163465)
(0.000648313 -0.000818155 0.0116237)
(0.000227215 -0.000296331 0.0050458)
(-0.000663101 -0.000179414 0.00730292)
(-0.000148439 0.000281326 0.00672364)
(-0.000272788 2.70548e-05 0.0041094)
(0.000551007 -0.000467123 0.0142067)
(0.00053746 0.00024145 0.00958335)
(7.10505e-05 -0.000561658 0.00962543)
(-0.000123142 -0.000296937 0.00529245)
(0.000316838 0.000361694 0.00532699)
(0.000219789 0.000498702 0.00443136)
(-0.00010232 -7.57524e-05 0.000562849)
(0.000680032 0.000781495 0.0101393)
(0.00155906 0.00028266 0.00783217)
(-5.453e-05 -0.000261441 0.00250957)
(-7.52684e-05 0.000424499 0.0141721)
(-0.000100202 -4.84162e-05 0.00608056)
(0.000350623 -0.000284598 0.0106865)
(-0.000186246 -0.000228541 0.009159)
(-0.000169167 -0.000211437 0.0087087)
(-0.000620691 9.49105e-05 0.00445029)
(-0.000137401 -6.90039e-05 0.00442397)
(0.000766726 -0.000229614 0.00800651)
(-2.99411e-05 -0.000640507 0.00561314)
(0.000357854 -0.00122758 0.0141396)
(-0.000111316 0.000271503 0.00410744)
(4.61291e-05 0.00101622 0.0127406)
(0.000708354 -0.000405806 0.0140931)
(-8.92261e-05 4.62993e-05 -0.000396953)
(0.00275583 -0.000476202 0.0232901)
(-0.000494623 0.00031473 0.0100653)
(-9.84743e-05 1.04769e-05 0.00105109)
(-0.000238441 -0.000340345 0.006216)
(-0.000207856 -0.00015163 0.004496)
(0.00142831 -0.000355719 0.0092479)
(0.00103423 -0.000692421 0.00946934)
(0.000116801 0.000125958 0.00236746)
(-0.000590816 0.000246166 0.00641383)
(-8.56317e-05 6.15296e-05 0.00186448)
(0.000231443 -0.000350246 0.0025574)
(0.000223848 -0.000570481 0.0054785)
(-0.000227682 0.000189847 0.00325302)
(-0.000263108 0.000121349 0.001516)
(0.000289687 0.000248735 -0.000135234)
(0.00154026 -0.00111481 0.00438462)
(0.000169393 -0.00040245 0.00311939)
(-0.000879824 2.29208e-05 0.00660286)
(-0.000130448 -0.000108322 0.00752153)
(-0.00361581 -0.00811874 0.00274627)
(-0.00103635 -0.00184356 0.00458895)
(-0.000676254 -0.00150671 0.00766663)
(-0.000152903 0.000514172 0.00585635)
(-0.000190652 -0.000707342 0.00318307)
(-0.000374454 -0.000742334 0.00428483)
(-0.000119475 -0.000434701 0.0010694)
(-0.000669646 0.000673044 0.00399536)
(-0.00028966 -0.00500511 0.0108088)
(-2.83074e-05 -0.000175085 0.00286502)
(0.000132751 -3.77885e-05 0.00597907)
(0.00175621 -0.00219743 0.00154302)
(-0.00333981 -0.00373601 -0.00615332)
(0.00325162 -0.00164207 0.0163532)
(0.00161104 0.00236866 0.00624569)
(0.000593903 0.000597236 0.00931268)
(0.000181987 0.000227523 0.00889297)
(-0.000717963 0.000167585 0.00848849)
(-0.000340898 0.000416998 0.0093577)
(0.000179846 0.00039838 0.00904051)
(0.000100823 -0.000551652 0.003135)
(-0.00015762 -0.000124096 0.00470978)
(-0.000195525 0.000127138 0.00285472)
(0.000132245 0.00103144 0.0118844)
(-0.000229991 0.0015528 0.0169461)
(-0.000128434 2.44381e-05 0.00802732)
(0.00014879 0.000219421 0.00220322)
(0.00156209 0.000559263 0.0153611)
(-0.000985947 0.000463525 0.0292653)
(-0.0020973 0.000468139 0.00302702)
(0.000466236 0.000526794 0.00127072)
(8.71641e-06 0.000632604 0.0019193)
(0.000381701 0.000899329 0.00128744)
(0.000517409 0.000649612 0.00176663)
(0.000430754 0.000852724 0.001893)
(0.000230203 8.56145e-05 0.00160211)
(0.000656246 -0.000233733 0.000874599)
(0.000573881 0.00033098 0.0012331)
(2.84633e-05 0.000602923 0.00112306)
(-0.000349412 -0.000136141 0.00184052)
(0.00063615 -0.000982242 0.00218309)
(0.00134064 6.37326e-05 0.00144262)
(0.000216234 7.55896e-05 0.00104183)
(-0.000819172 0.000484278 0.00122825)
(0.00081666 0.000642449 0.00100677)
(0.00156783 0.000470826 0.000799055)
(-0.00036599 -0.000460602 0.000622792)
(0.000127434 0.000323966 0.00452499)
(0.000222553 0.00035374 0.00447528)
(0.00020492 0.000245521 0.00431692)
(0.000162327 0.00024553 0.00417557)
(0.000138558 0.000130297 0.00432132)
(0.000257451 -3.22875e-06 0.00405548)
(0.000214586 0.000135056 0.00389038)
(2.78296e-05 0.000178736 0.00371976)
(-2.66668e-05 0.000101268 0.00456108)
(0.000230924 -9.81476e-05 0.00473986)
(0.000384863 9.1216e-05 0.00409101)
(5.24359e-05 6.23805e-05 0.0037292)
(-8.7563e-05 0.00025038 0.0045221)
(0.000244389 0.000254062 0.00490596)
(0.000369619 0.00019261 0.00384511)
(-0.000137095 -4.44399e-05 0.00366431)
(0.000104486 0.000186635 0.0038457)
(0.000142268 0.000174664 0.00378608)
(0.000130284 0.000141433 0.00374236)
(8.15599e-05 0.000139633 0.00369415)
(9.44547e-05 0.000128736 0.00377217)
(0.000138545 8.59428e-05 0.00369319)
(0.000124377 0.000107166 0.003637)
(4.2284e-05 0.000108613 0.00358902)
(4.10942e-05 0.000108157 0.00382037)
(0.000122161 5.11219e-05 0.00384973)
(0.00015258 8.12552e-05 0.00369369)
(3.78675e-05 6.08621e-05 0.00360836)
(1.85754e-05 0.000134688 0.00376202)
(0.000111973 0.000115131 0.00382082)
(0.000134512 9.07677e-05 0.00361297)
(-2.08918e-05 2.74697e-05 0.00357909)
(7.53152e-05 0.000110671 0.00384209)
(9.09159e-05 9.89302e-05 0.00381144)
(8.53847e-05 8.44747e-05 0.00377864)
(6.08493e-05 7.80357e-05 0.00375358)
(6.61404e-05 9.69051e-05 0.00380061)
(8.24264e-05 8.02976e-05 0.00377027)
(7.67955e-05 7.70473e-05 0.0037363)
(4.45833e-05 7.02053e-05 0.00371398)
(4.68592e-05 8.63109e-05 0.00379746)
(7.17583e-05 6.71251e-05 0.00379298)
(7.50472e-05 6.55912e-05 0.00374055)
(3.60037e-05 5.43606e-05 0.00371225)
(3.38991e-05 8.42257e-05 0.00376807)
(6.18613e-05 7.10169e-05 0.00377405)
(6.44158e-05 6.05016e-05 0.00371388)
(1.77855e-05 4.44856e-05 0.00370254)
(5.26101e-05 7.06916e-05 0.00382467)
(5.92111e-05 6.39367e-05 0.0038062)
(5.64319e-05 5.6624e-05 0.00378544)
(4.43258e-05 5.20072e-05 0.00376811)
(4.71294e-05 6.91559e-05 0.00380138)
(5.32726e-05 6.13101e-05 0.0037855)
(5.04909e-05 5.62679e-05 0.00376664)
(3.69823e-05 5.08822e-05 0.00375322)
(3.85814e-05 6.4579e-05 0.00378883)
(4.66891e-05 5.60872e-05 0.00377977)
(4.59057e-05 5.1589e-05 0.00375927)
(3.14272e-05 4.5579e-05 0.00374675)
(3.09648e-05 5.91263e-05 0.00377213)
(4.03915e-05 5.20483e-05 0.00376736)
(4.0205e-05 4.68487e-05 0.00374724)
(2.50018e-05 4.1823e-05 0.00374011)
(3.65772e-05 4.73022e-05 0.00381218)
(3.96629e-05 4.37407e-05 0.00380042)
(3.8383e-05 3.99179e-05 0.00378748)
(3.21627e-05 3.70606e-05 0.00377504)
(3.36405e-05 4.88528e-05 0.00379787)
(3.62307e-05 4.48203e-05 0.0037879)
(3.48345e-05 4.13473e-05 0.00377679)
(2.84248e-05 3.7975e-05 0.00376767)
(2.93742e-05 4.72207e-05 0.00378644)
(3.2367e-05 4.28925e-05 0.00377902)
(3.14788e-05 3.96038e-05 0.00376876)
(2.52619e-05 3.6235e-05 0.00376115)
(2.50646e-05 4.32473e-05 0.00377518)
(2.86806e-05 3.9425e-05 0.00376982)
(2.8317e-05 3.66178e-05 0.00376063)
(2.25464e-05 3.43749e-05 0.00375499)
(2.55267e-05 3.25369e-05 0.00380332)
(2.71927e-05 3.06879e-05 0.00379558)
(2.66549e-05 2.86627e-05 0.00378715)
(2.322e-05 2.70002e-05 0.00377775)
(2.40232e-05 3.45863e-05 0.00379402)
(2.53284e-05 3.24617e-05 0.00378732)
(2.46316e-05 3.03956e-05 0.00378019)
(2.11605e-05 2.83911e-05 0.00377356)
(2.17946e-05 3.42603e-05 0.00378534)
(2.31307e-05 3.19252e-05 0.00377984)
(2.25461e-05 2.98807e-05 0.00377357)
(1.93283e-05 2.78787e-05 0.00376813)
(1.93901e-05 3.18934e-05 0.00377725)
(2.09936e-05 2.97571e-05 0.00377282)
(2.06868e-05 2.80984e-05 0.00376731)
(1.79009e-05 2.67287e-05 0.00376276)
(1.7916e-05 2.27448e-05 0.00379703)
(1.89426e-05 2.17868e-05 0.00379179)
(1.87406e-05 2.06999e-05 0.00378601)
(1.67032e-05 1.97516e-05 0.00377863)
(1.71753e-05 2.4599e-05 0.00379077)
(1.79525e-05 2.34685e-05 0.00378612)
(1.75917e-05 2.22794e-05 0.00378125)
(1.55054e-05 2.10828e-05 0.00377628)
(1.59893e-05 2.48053e-05 0.00378448)
(1.67062e-05 2.35046e-05 0.00378045)
(1.63289e-05 2.22615e-05 0.00377616)
(1.43973e-05 2.10028e-05 0.00377206)
(1.46391e-05 2.35113e-05 0.00377857)
(1.544e-05 2.22629e-05 0.00377512)
(1.51667e-05 2.12013e-05 0.0037713)
(1.35107e-05 2.02227e-05 0.00376769)
(1.26344e-05 1.60533e-05 0.00379246)
(1.3322e-05 1.55553e-05 0.00378882)
(1.32603e-05 1.49621e-05 0.0037847)
(1.19785e-05 1.44199e-05 0.00377871)
(1.2287e-05 1.75658e-05 0.00378817)
(1.27976e-05 1.69571e-05 0.00378487)
(1.25974e-05 1.62674e-05 0.00378143)
(1.12526e-05 1.55345e-05 0.00377763)
(1.16494e-05 1.79488e-05 0.00378365)
(1.20792e-05 1.72024e-05 0.00378069)
(1.18195e-05 1.64322e-05 0.00377761)
(1.05517e-05 1.56026e-05 0.0037745)
(1.08751e-05 1.72817e-05 0.00377932)
(1.13032e-05 1.6518e-05 0.00377668)
(1.10554e-05 1.58006e-05 0.00377389)
(9.94585e-06 1.50659e-05 0.0037711)
(8.92874e-06 1.13815e-05 0.00378913)
(9.40751e-06 1.11214e-05 0.00378654)
(9.40173e-06 1.07906e-05 0.00378351)
(8.56213e-06 1.04752e-05 0.00377849)
(8.78019e-06 1.25596e-05 0.00378614)
(9.12869e-06 1.22278e-05 0.00378378)
(9.00942e-06 1.18191e-05 0.00378129)
(8.10513e-06 1.13556e-05 0.00377834)
(8.43742e-06 1.29616e-05 0.00378288)
(8.7047e-06 1.25215e-05 0.00378071)
(8.51669e-06 1.20312e-05 0.00377846)
(7.64494e-06 1.14667e-05 0.00377608)
(7.98437e-06 1.26353e-05 0.00377969)
(8.21416e-06 1.21534e-05 0.0037777)
(7.99767e-06 1.16555e-05 0.00377564)
(7.21337e-06 1.11022e-05 0.0037735)
(6.2977e-06 8.05711e-06 0.0037867)
(6.63506e-06 7.92215e-06 0.00378483)
(6.64969e-06 7.73405e-06 0.00378252)
(6.08728e-06 7.5459e-06 0.00377817)
(6.24734e-06 8.94596e-06 0.0037846)
(6.4875e-06 8.76501e-06 0.00378289)
(6.4122e-06 8.51856e-06 0.00378105)
(5.79067e-06 8.2188e-06 0.00377872)
(6.06606e-06 9.30125e-06 0.00378222)
(6.23354e-06 9.03887e-06 0.00378062)
(6.09438e-06 8.72217e-06 0.00377896)
(5.48228e-06 8.33385e-06 0.00377713)
(5.80058e-06 9.15422e-06 0.00377984)
(5.91975e-06 8.84759e-06 0.00377836)
(5.73884e-06 8.50157e-06 0.00377683)
(5.17339e-06 8.09193e-06 0.0037752)
(4.40178e-06 5.6458e-06 0.00378495)
(4.63851e-06 5.57829e-06 0.00378355)
(4.65874e-06 5.47073e-06 0.00378174)
(4.27955e-06 5.35705e-06 0.00377787)
(4.3972e-06 6.29552e-06 0.00378345)
(4.56291e-06 6.19965e-06 0.00378219)
(4.51373e-06 6.05118e-06 0.00378081)
(4.08452e-06 5.85642e-06 0.00377891)
(4.30485e-06 6.58167e-06 0.00378168)
(4.41187e-06 6.42784e-06 0.00378049)
(4.30903e-06 6.22464e-06 0.00377926)
(3.87779e-06 5.96005e-06 0.00377782)
(4.15241e-06 6.5287e-06 0.0037799)
(4.21387e-06 6.33579e-06 0.00377878)
(4.06869e-06 6.09934e-06 0.00377763)
(3.66058e-06 5.80406e-06 0.00377637)
(3.00619e-06 3.85701e-06 0.0037837)
(3.16939e-06 3.8263e-06 0.00378263)
(3.18843e-06 3.7656e-06 0.00378115)
(2.93599e-06 3.69729e-06 0.0037776)
(3.01991e-06 4.31466e-06 0.00378262)
(3.13352e-06 4.26673e-06 0.00378166)
(3.10093e-06 4.1789e-06 0.0037806)
(2.80885e-06 4.05429e-06 0.003779)
(2.97543e-06 4.53038e-06 0.00378128)
(3.04548e-06 4.44234e-06 0.00378037)
(2.97135e-06 4.31441e-06 0.00377943)
(2.67274e-06 4.13849e-06 0.00377827)
(2.88993e-06 4.52356e-06 0.00377991)
(2.92303e-06 4.4043e-06 0.00377905)
(2.81287e-06 4.24712e-06 0.00377817)
(2.52484e-06 4.04192e-06 0.00377717)
(1.94334e-06 2.48892e-06 0.00378286)
(2.05091e-06 2.47768e-06 0.003782)
(2.0654e-06 2.44527e-06 0.00378074)
(1.90496e-06 2.40632e-06 0.00377739)
(1.96094e-06 2.79197e-06 0.00378205)
(2.0362e-06 2.77006e-06 0.0037813)
(2.01501e-06 2.72061e-06 0.00378044)
(1.82553e-06 2.64459e-06 0.00377903)
(1.94174e-06 2.94103e-06 0.003781)
(1.98704e-06 2.89313e-06 0.00378028)
(1.9367e-06 2.81635e-06 0.00377952)
(1.74036e-06 2.70572e-06 0.00377855)
(1.89612e-06 2.95207e-06 0.00377991)
(1.91505e-06 2.8814e-06 0.00377922)
(1.83788e-06 2.78247e-06 0.00377852)
(1.64609e-06 2.64896e-06 0.00377768)
(1.09618e-06 1.40374e-06 0.00378233)
(1.15802e-06 1.4015e-06 0.0037816)
(1.16732e-06 1.38659e-06 0.00378047)
(1.07748e-06 1.36721e-06 0.00377725)
(1.10913e-06 1.57753e-06 0.0037817)
(1.1539e-06 1.56965e-06 0.00378106)
(1.14157e-06 1.5451e-06 0.00378033)
(1.03409e-06 1.50423e-06 0.00377904)
(1.10253e-06 1.66562e-06 0.00378083)
(1.12971e-06 1.64306e-06 0.00378022)
(1.09988e-06 1.60257e-06 0.00377957)
(9.87346e-07 1.54187e-06 0.00377871)
(1.08124e-06 1.67949e-06 0.00377991)
(1.09283e-06 1.64224e-06 0.00377932)
(1.04618e-06 1.58776e-06 0.00377872)
(9.35036e-07 1.51236e-06 0.00377799)
(4.42181e-07 5.87081e-07 0.00378206)
(4.68155e-07 5.86443e-07 0.0037814)
(4.72829e-07 5.80119e-07 0.00378033)
(4.38427e-07 5.71322e-07 0.00377717)
(4.47058e-07 6.59937e-07 0.00378152)
(4.66062e-07 6.5678e-07 0.00378094)
(4.61413e-07 6.46008e-07 0.00378026)
(4.19971e-07 6.28316e-07 0.00377904)
(4.44201e-07 6.9893e-07 0.00378074)
(4.55856e-07 6.8972e-07 0.00378018)
(4.43375e-07 6.72201e-07 0.0037796)
(3.99234e-07 6.4618e-07 0.00377878)
(4.35308e-07 7.07981e-07 0.00377992)
(4.40198e-07 6.91904e-07 0.00377938)
(4.20328e-07 6.68785e-07 0.00377883)
(3.75737e-07 6.36556e-07 0.00377814)
(0.000395374 -0.00040142 0.00768903)
(-2.69113e-05 0.000303029 0.00371529)
(0.000294617 0.000435238 0.00366194)
(0.000735172 3.64288e-05 0.00552688)
(0.000241035 -3.49396e-05 0.00456126)
(0.000642396 -0.000114763 0.00731703)
(0.000351964 0.00064895 0.00975598)
(0.000446907 -0.000337392 0.00586507)
(-0.000403535 0.000139615 0.006196)
(0.000136885 -0.000194828 0.00277573)
(0.00121351 -0.000782063 0.00742421)
(0.000598595 -0.00123318 0.00807389)
(0.000155037 -5.79329e-05 0.00667569)
(-0.000118792 0.000408346 0.00665779)
(0.000221309 -0.00119755 0.00586191)
(9.34048e-05 -0.000361554 0.00197273)
(-0.000397217 0.000662311 0.00609972)
(0.000968919 -0.000230606 0.00885263)
(0.000358404 -0.000493462 0.00716221)
(0.000144772 -0.000545073 0.0115939)
(-0.000437276 0.000479896 0.00573208)
(-2.10571e-05 -0.00019735 0.00864173)
(0.000335716 -0.000326754 0.00528765)
(0.000542031 -0.000422726 0.00552102)
(0.000185588 -0.00016108 0.0080184)
(-7.22537e-05 -9.93754e-05 0.00634943)
(-0.000206772 -9.45697e-05 0.00783898)
(0.000435717 0.000453427 0.00647134)
(-0.000834373 -0.000107776 0.00923974)
(2.98508e-06 -0.00043045 0.0037818)
(0.000324147 0.000295949 0.00662059)
(0.000663402 0.000604428 0.00765436)
(-0.0003341 0.000190905 0.00614826)
(0.000555949 -0.000121394 0.00912095)
(2.21208e-05 6.43367e-05 0.00760249)
(0.000276247 -0.000215431 0.0102059)
(-0.000108845 0.000638379 0.00806508)
(0.00033743 -2.39848e-05 0.00910905)
(0.000237722 -5.73123e-05 0.0132638)
(0.000329666 -0.00045946 0.0110425)
(2.22709e-05 -0.000118424 0.00953369)
(-9.88959e-05 0.000137221 0.00776431)
(-2.37054e-05 0.000308064 0.0101719)
(5.24448e-05 3.2368e-05 0.00468033)
(-4.61334e-05 -8.79453e-05 0.000972177)
(0.00100869 0.000823476 0.0138984)
(-2.88507e-07 3.05513e-05 0.00302497)
(-0.000429775 0.000551908 0.0162861)
(-2.9106e-05 -1.63495e-05 0.00226004)
(2.34451e-05 -0.000190707 0.0117237)
(8.30862e-05 -0.000403852 0.00754156)
(-0.000189812 -0.000504705 0.0162009)
(-7.57966e-05 -7.7433e-05 0.00368851)
(-0.000334756 -0.000276298 0.00934531)
(-2.50086e-05 -0.000221007 0.00885292)
(-3.43985e-05 0.000251633 0.00470751)
(-4.34112e-06 -0.000228597 0.0136369)
(-0.000103905 0.000145759 0.00667496)
(0.000151537 0.000369773 0.00858057)
(-0.000212966 0.000251299 0.00494702)
(0.000456249 -0.000517739 0.00668673)
(-0.000131552 -7.65116e-05 0.00239016)
(-2.76221e-05 -0.000131024 0.0124531)
(-0.000201136 -0.000245652 0.00569803)
(-2.07407e-05 0.000440549 0.00589507)
(-0.00035342 0.000133189 0.00969998)
(-0.000201541 0.000173414 0.0113406)
(0.000343686 0.0011311 0.0113086)
(0.000137436 -4.81461e-05 0.00904044)
(-0.000701465 0.000190629 0.00828924)
(-7.76575e-05 0.000184988 0.00756666)
(-3.14632e-05 0.000347491 0.00650866)
(6.42253e-06 -0.000619864 0.0115437)
(-6.25616e-05 1.13133e-05 0.00563762)
(-0.000142206 -0.000172122 0.0126211)
(-8.34736e-06 -0.000230195 0.00961159)
(-0.000258862 1.97397e-05 0.00564048)
(-0.000592564 -0.000604325 0.0154145)
(9.24705e-05 -1.45828e-06 0.00261487)
(0.000450701 0.000688873 0.0168768)
(6.72948e-05 5.17872e-05 0.000265364)
(-3.17801e-05 0.00114716 0.0080479)
(8.09536e-05 0.000215575 0.00380218)
(0.00072893 9.9323e-05 0.00777709)
(0.000182652 0.00321061 0.00914403)
(-0.000872389 0.00102692 0.00556936)
(-0.000743176 0.000714684 0.00635714)
(0.000726641 0.00101445 0.00701219)
(2.44379e-06 0.000666782 0.00378422)
(-0.000432873 0.000276654 0.00584741)
(-0.000433356 0.000700208 0.00475673)
(8.19439e-05 8.95636e-05 0.00426883)
(0.000153859 -3.47597e-05 0.00372343)
(-0.000444842 -0.000175078 0.00285217)
(-0.000485602 -0.000123535 0.00344709)
(0.000150186 -0.000292703 0.00376105)
(0.00448095 0.0022439 0.0159009)
(-0.00318476 -0.000537543 0.00338614)
(-0.000334735 1.12281e-05 0.00493324)
(2.38473e-05 -0.000188937 0.00807046)
(-0.00407654 0.000318597 0.00889963)
(-0.000184585 0.000740998 0.00761793)
(0.000207247 0.000519393 0.00215012)
(-0.000110357 0.000333825 0.00237041)
(-0.000959183 -0.000291018 0.00659866)
(0.00085046 0.00110387 0.00517477)
(-1.72239e-05 0.000301285 0.00698979)
(0.000322712 -6.88504e-05 0.00832755)
(-0.00123152 -0.000482884 0.00686904)
(-0.00316964 -0.000109551 0.0080959)
(-0.00145969 0.00082002 0.00409562)
(-0.000587793 -0.000704295 0.00581069)
(0.000677816 -0.000210028 0.0054544)
(-0.00022392 -0.000222915 0.0105484)
(-0.00014029 -0.000157917 0.00531485)
(-0.000305019 -2.39702e-05 0.00839752)
(-0.000265159 -0.000280979 0.0112519)
(0.000198331 -3.48478e-05 0.00655204)
(0.000190254 -0.000197029 0.00582272)
(-0.00020489 -0.000113326 0.00673617)
(-0.000223392 -0.000119556 0.00882165)
(6.38995e-05 -4.27425e-05 0.0082552)
(4.55062e-05 -0.000103131 0.00808379)
(-3.76187e-05 -7.29595e-05 0.00952796)
(-0.000374474 8.47812e-05 0.0104505)
(2.35117e-05 0.000733547 0.0133449)
(6.49752e-06 0.000450558 0.00822006)
(-0.000108959 0.000275648 0.0097497)
(0.000899424 -0.000132189 0.00172523)
(0.00051079 0.000440756 0.00177868)
(0.000328257 0.000113123 0.00130938)
(-0.00011927 8.40568e-05 0.00198331)
(0.000901324 0.000107018 0.00238911)
(0.000726518 0.000474718 0.00151817)
(0.000314401 -2.16224e-06 0.00122829)
(-9.33497e-06 0.00011238 0.00174234)
(0.000570551 0.00023009 0.00213116)
(0.00067564 -0.000209705 0.00162006)
(0.000372524 -0.000166437 0.00140459)
(0.000197062 0.000118161 0.00192109)
(5.52427e-05 0.000229437 0.00251199)
(0.000580175 0.000108055 0.00245253)
(0.00064543 0.000100485 0.00173172)
(0.000328016 0.000418735 0.00193288)
(0.000312007 -5.05586e-05 0.00450117)
(0.000290543 0.000138188 0.00444909)
(0.000193833 7.0012e-05 0.0039064)
(3.35894e-05 4.78302e-05 0.00414763)
(0.000344105 3.27225e-05 0.00478407)
(0.000370543 0.000172401 0.00432469)
(0.000205711 5.70127e-05 0.00400186)
(5.80714e-05 7.26091e-05 0.00416443)
(0.000267565 0.000134474 0.00465844)
(0.000366512 5.00285e-05 0.00438577)
(0.000233163 2.07641e-05 0.00412138)
(0.000101918 9.06464e-05 0.0042418)
(0.000135763 0.000199386 0.0047459)
(0.000326158 0.000173161 0.00472146)
(0.000304066 9.23005e-05 0.00430033)
(0.000158558 0.000145781 0.00425817)
(0.00017377 1.88954e-05 0.00375665)
(0.000177799 8.04775e-05 0.0037016)
(0.000112582 5.82156e-05 0.00350633)
(4.22238e-05 5.60221e-05 0.00353266)
(0.000184255 6.55757e-05 0.00393152)
(0.000196766 0.000107641 0.00377332)
(0.000118269 6.62749e-05 0.00362065)
(4.68605e-05 8.00356e-05 0.00362299)
(0.000164016 0.000102459 0.00392478)
(0.000199098 8.12502e-05 0.00380795)
(0.000134052 5.66049e-05 0.00368359)
(6.60322e-05 8.66825e-05 0.00367756)
(0.000122366 0.00014271 0.00394027)
(0.00017964 0.000121583 0.00388265)
(0.000154347 8.97383e-05 0.00374843)
(8.83393e-05 0.000112033 0.00370259)
(9.71184e-05 1.9377e-05 0.00376443)
(0.000108845 4.33096e-05 0.00370655)
(8.05777e-05 4.22344e-05 0.00360668)
(4.72042e-05 4.36474e-05 0.00359275)
(0.000101928 4.79124e-05 0.00387439)
(0.000114598 6.17965e-05 0.00379656)
(8.52925e-05 5.11556e-05 0.00371218)
(5.14545e-05 5.55348e-05 0.0036882)
(9.72341e-05 7.14993e-05 0.00389157)
(0.000114804 6.64326e-05 0.00382894)
(9.10493e-05 5.58831e-05 0.00376284)
(5.86565e-05 6.24007e-05 0.00374076)
(8.50195e-05 9.44431e-05 0.00388647)
(0.000105945 8.47214e-05 0.00384693)
(9.49338e-05 7.20058e-05 0.0037899)
(6.62637e-05 7.42433e-05 0.00376203)
(5.80149e-05 1.39975e-05 0.00372348)
(6.69493e-05 2.59061e-05 0.00368033)
(5.47215e-05 2.99169e-05 0.00361963)
(3.78391e-05 3.30215e-05 0.00358406)
(6.10041e-05 3.28192e-05 0.00382649)
(6.96211e-05 3.90522e-05 0.00378156)
(5.79776e-05 3.77788e-05 0.00372707)
(4.11928e-05 4.01143e-05 0.00368663)
(6.06596e-05 4.84159e-05 0.00385227)
(6.96467e-05 4.74544e-05 0.00381646)
(6.04867e-05 4.38149e-05 0.00377572)
(4.50372e-05 4.48561e-05 0.00374379)
(5.70377e-05 6.2214e-05 0.00384718)
(6.57125e-05 5.83507e-05 0.00382234)
(6.09072e-05 5.32016e-05 0.00379203)
(4.80581e-05 5.20559e-05 0.00376761)
(3.65938e-05 9.47083e-06 0.00369333)
(4.24822e-05 1.65242e-05 0.00366311)
(3.74551e-05 2.11019e-05 0.00362121)
(2.84662e-05 2.42372e-05 0.00358354)
(3.87895e-05 2.21007e-05 0.00379612)
(4.41342e-05 2.59211e-05 0.00376733)
(3.95218e-05 2.73239e-05 0.00372877)
(3.09181e-05 2.88863e-05 0.00368754)
(3.9547e-05 3.26678e-05 0.00382591)
(4.43865e-05 3.30789e-05 0.00380404)
(4.08359e-05 3.23317e-05 0.00377698)
(3.31781e-05 3.23649e-05 0.00374629)
(3.85373e-05 4.17026e-05 0.00382468)
(4.26486e-05 4.04025e-05 0.00380922)
(4.07003e-05 3.84568e-05 0.00379102)
(3.46175e-05 3.72676e-05 0.00377103)
(2.40701e-05 6.36988e-06 0.003673)
(2.78238e-05 1.09659e-05 0.00365102)
(2.5832e-05 1.48642e-05 0.00361863)
(2.08205e-05 1.76128e-05 0.0035828)
(2.56971e-05 1.49558e-05 0.00377645)
(2.89889e-05 1.76767e-05 0.0037563)
(2.71726e-05 1.95853e-05 0.00372629)
(2.25355e-05 2.08777e-05 0.00368732)
(2.65666e-05 2.2263e-05 0.00380869)
(2.93643e-05 2.30823e-05 0.00379429)
(2.79983e-05 2.34031e-05 0.00377463)
(2.39792e-05 2.34742e-05 0.00374669)
(2.63812e-05 2.84963e-05 0.00381065)
(2.86165e-05 2.82476e-05 0.00380066)
(2.78871e-05 2.76562e-05 0.00378858)
(2.48116e-05 2.69513e-05 0.00377184)
(1.62502e-05 4.32637e-06 0.00365949)
(1.86907e-05 7.46189e-06 0.00364243)
(1.79604e-05 1.04908e-05 0.00361527)
(1.50475e-05 1.27373e-05 0.00358187)
(1.74403e-05 1.02368e-05 0.00376348)
(1.95421e-05 1.22536e-05 0.0037482)
(1.8857e-05 1.40002e-05 0.00372304)
(1.623e-05 1.51021e-05 0.00368658)
(1.81798e-05 1.53557e-05 0.00379727)
(1.99267e-05 1.6208e-05 0.00378709)
(1.94307e-05 1.68403e-05 0.00377165)
(1.71977e-05 1.70426e-05 0.0037462)
(1.82627e-05 1.97633e-05 0.00380138)
(1.96314e-05 1.99182e-05 0.00379462)
(1.94009e-05 1.98785e-05 0.00378597)
(1.7743e-05 1.95463e-05 0.00377153)
(1.11445e-05 2.97441e-06 0.00365034)
(1.27872e-05 5.15977e-06 0.00363623)
(1.25709e-05 7.42179e-06 0.00361216)
(1.08122e-05 9.1809e-06 0.00358083)
(1.20076e-05 7.0861e-06 0.00375468)
(1.341e-05 8.58323e-06 0.00374227)
(1.31836e-05 9.99952e-06 0.00372004)
(1.16261e-05 1.09102e-05 0.00368561)
(1.25867e-05 1.07006e-05 0.00378945)
(1.37473e-05 1.14466e-05 0.0037818)
(1.3597e-05 1.20907e-05 0.00376892)
(1.22913e-05 1.23537e-05 0.00374535)
(1.27464e-05 1.385e-05 0.00379496)
(1.36539e-05 1.41277e-05 0.0037902)
(1.36167e-05 1.42863e-05 0.00378362)
(1.26695e-05 1.41661e-05 0.0037708)
(7.71138e-06 2.06457e-06 0.00364404)
(8.84918e-06 3.60045e-06 0.00363175)
(8.83303e-06 5.25589e-06 0.00360962)
(7.7368e-06 6.59383e-06 0.00357984)
(8.33318e-06 4.946e-06 0.0037486)
(9.30142e-06 6.04583e-06 0.00373796)
(9.2573e-06 7.13397e-06 0.00371758)
(8.29784e-06 7.85835e-06 0.00368466)
(8.77079e-06 7.50807e-06 0.003784)
(9.57362e-06 8.10987e-06 0.00377792)
(9.55728e-06 8.66304e-06 0.00376668)
(8.76024e-06 8.92448e-06 0.00374447)
(8.93631e-06 9.76326e-06 0.00379044)
(9.56501e-06 1.00459e-05 0.00378695)
(9.5964e-06 1.02515e-05 0.00378168)
(9.02778e-06 1.02338e-05 0.00377001)
(5.34914e-06 1.43887e-06 0.00363967)
(6.14985e-06 2.51904e-06 0.00362853)
(6.20404e-06 3.71348e-06 0.00360764)
(5.50337e-06 4.70723e-06 0.00357898)
(5.79393e-06 3.46213e-06 0.00374436)
(6.47466e-06 4.25992e-06 0.00373485)
(6.49915e-06 5.07011e-06 0.00371567)
(5.88996e-06 5.62659e-06 0.00368382)
(6.1177e-06 5.27478e-06 0.00378017)
(6.68372e-06 5.73792e-06 0.0037751)
(6.71606e-06 6.17796e-06 0.00376493)
(6.21262e-06 6.4049e-06 0.00374368)
(6.26348e-06 6.88219e-06 0.00378721)
(6.70688e-06 7.12693e-06 0.00378456)
(6.75787e-06 7.3197e-06 0.00378017)
(6.40308e-06 7.34353e-06 0.00376928)
(3.68828e-06 9.97536e-07 0.00363663)
(4.25161e-06 1.75118e-06 0.00362622)
(4.32235e-06 2.5988e-06 0.00360616)
(3.86831e-06 3.31899e-06 0.00357827)
(4.00277e-06 2.40758e-06 0.00374139)
(4.48138e-06 2.97673e-06 0.00373261)
(4.52671e-06 3.56433e-06 0.00371423)
(4.13332e-06 3.97774e-06 0.00368312)
(4.23759e-06 3.67597e-06 0.00377747)
(4.63645e-06 4.0201e-06 0.00377307)
(4.68191e-06 4.35399e-06 0.00376361)
(4.35764e-06 4.53509e-06 0.00374303)
(4.35558e-06 4.80776e-06 0.00378492)
(4.66809e-06 5.00341e-06 0.00378283)
(4.71916e-06 5.16359e-06 0.00377902)
(4.49284e-06 5.1997e-06 0.00376868)
(2.49038e-06 6.76765e-07 0.00363452)
(2.8784e-06 1.19048e-06 0.0036246)
(2.94319e-06 1.77527e-06 0.00360507)
(2.6503e-06 2.27977e-06 0.00357773)
(2.70718e-06 1.63622e-06 0.00373933)
(3.03671e-06 2.03069e-06 0.00373104)
(3.08228e-06 2.44314e-06 0.00371318)
(2.82886e-06 2.73865e-06 0.00368259)
(2.87242e-06 2.50044e-06 0.00377559)
(3.1477e-06 2.74686e-06 0.00377163)
(3.191e-06 2.98982e-06 0.00376264)
(2.98205e-06 3.12577e-06 0.00374252)
(2.96199e-06 3.27661e-06 0.00378332)
(3.17843e-06 3.42461e-06 0.0037816)
(3.22176e-06 3.54841e-06 0.00377817)
(3.07645e-06 3.5836e-06 0.0037682)
(1.5948e-06 4.34771e-07 0.00363311)
(1.84747e-06 7.66361e-07 0.0036235)
(1.89718e-06 1.14703e-06 0.00360432)
(1.71559e-06 1.47869e-06 0.00357733)
(1.73606e-06 1.05245e-06 0.00373795)
(1.95079e-06 1.31029e-06 0.00372996)
(1.98719e-06 1.58272e-06 0.00371245)
(1.83014e-06 1.78e-06 0.00368219)
(1.84551e-06 1.60885e-06 0.00377433)
(2.02532e-06 1.77413e-06 0.00377065)
(2.0593e-06 1.93932e-06 0.00376197)
(1.92952e-06 2.03319e-06 0.00374215)
(1.90806e-06 2.11042e-06 0.00378223)
(2.05033e-06 2.21445e-06 0.00378075)
(2.08235e-06 2.30235e-06 0.00377758)
(1.99201e-06 2.33084e-06 0.00376785)
(8.93357e-07 2.4456e-07 0.00363225)
(1.03645e-06 4.3145e-07 0.00362282)
(1.06748e-06 6.47317e-07 0.00360385)
(9.67768e-07 8.36171e-07 0.00357707)
(9.73642e-07 5.92764e-07 0.0037371)
(1.09569e-06 7.39525e-07 0.0037293)
(1.11889e-06 8.95727e-07 0.00371199)
(1.03242e-06 1.0092e-06 0.00368194)
(1.03626e-06 9.06487e-07 0.00377355)
(1.13902e-06 1.00213e-06 0.00377005)
(1.16068e-06 1.0984e-06 0.00376154)
(1.08917e-06 1.1533e-06 0.0037419)
(1.07348e-06 1.18951e-06 0.00378157)
(1.15478e-06 1.25143e-06 0.00378023)
(1.17447e-06 1.30398e-06 0.00377721)
(1.12495e-06 1.32227e-06 0.00376763)
(3.59338e-07 9.99412e-08 0.0036318)
(4.18482e-07 1.75232e-07 0.00362246)
(4.30984e-07 2.62601e-07 0.0036036)
(3.90135e-07 3.38197e-07 0.00357693)
(3.93733e-07 2.45927e-07 0.00373667)
(4.45083e-07 3.05011e-07 0.00372896)
(4.55482e-07 3.68729e-07 0.00371175)
(4.20288e-07 4.13921e-07 0.00368179)
(4.1884e-07 3.78365e-07 0.00377315)
(4.62476e-07 4.16589e-07 0.00376973)
(4.72529e-07 4.55494e-07 0.00376132)
(4.43901e-07 4.76279e-07 0.00374177)
(4.33122e-07 4.96915e-07 0.00378122)
(4.67627e-07 5.20914e-07 0.00377996)
(4.77015e-07 5.40555e-07 0.00377701)
(4.57355e-07 5.45069e-07 0.0037675)
(0.00154467 -0.000356067 0.00844777)
(0.000608571 -0.000605335 0.00504224)
(0.000841393 -0.00047582 0.00534739)
(0.00117664 0.000110697 0.00881519)
(0.000328903 -0.00017448 0.00596509)
(0.00063117 -5.36454e-05 0.00497702)
(0.00030648 -4.4315e-05 0.00121001)
(0.000660813 -0.000625703 0.00443944)
(0.000707661 -0.000250469 0.0045617)
(0.00160475 9.14592e-05 0.00632174)
(0.000925872 0.000184374 0.00840085)
(-0.000164487 -0.000374585 0.00568225)
(0.000140178 7.38321e-05 0.0023889)
(0.00146875 -0.00027315 0.00672403)
(0.000962013 -4.39099e-05 0.00745639)
(-0.000187771 0.000475635 0.00721866)
(0.000166703 1.03271e-06 0.00199982)
(-0.000238616 0.00139268 0.0125765)
(-0.000185935 0.000363625 0.00380438)