/*--------------------------------*- C++ -*----------------------------------*\
| =========                 |                                                 |
| \\      /  F ield         | OpenFOAM: The Open Source CFD Toolbox           |
|  \\    /   O peration     | Version:  2506                                  |
|   \\  /    A nd           | Website:  www.openfoam.com                      |
|    \\/     M anipulation  |                                                 |
\*---------------------------------------------------------------------------*/
FoamFile
{
    version     2.0;
    format      ascii;
    arch        "LSB;label=32;scalar=64";
    class       volScalarField;
    location    "0.1";
    object      Ksl;
}
// * * * * * * * * * * * * * * * * * * * * * * * * * * * * * * * * * * * * * //

dimensions      [1 -3 -1 0 0 0 0];

internalField   nonuniform List<scalar> 
1152
(
131927
129764
156440
176731
164016
109586
108562
164149
126312
187380
221055
184365
174064
75628.1
155518
102973
196193
115491
222678
111493
125855
162601
119693
148395
133919
116293
166076
168083
128967
120187
129736
127799
215869
205595
245044
261792
286873
160292
198808
312400
226891
169555
268228
204367
177247
343181
338147
161026
180617
158991
278235
178997
228059
257104
231450
328970
215560
245135
253934
272521
153413
319442
307629
379840
184173
227366
223525
268815
237831
256811
137191
120256
270370
207662
388027
276346
291530
318250
473311
313355
199452
240346
291818
111906
122180
257482
249277
304416
156010
345048
209713
164601
381923
150775
204356
149299
34849.2
49711.6
66618.3
93594.9
115248
50403.1
181590
146251
61753.3
98432.2
173946
252156
61768.5
76575.8
91659.9
106049
0
0
0
0
0
0
119.973
149.461
0
0
268.452
86.7656
0
0
1057.5
600.652
0
0
0
0
0
0
0
0
0
0
0
0
0
0
0
0
0
0
0
0
0
0
0
0
0
0
0
0
0
0
0
0
0
0
0
0
0
0
0
0
0
0
0
0
0
0
0
0
0
0
0
0
0
0
0
0
0
0
0
0
0
0
0
0
0
0
0
0
0
0
0
0
0
0
0
0
0
0
0
0
0
0
0
0
0
0
0
0
0
0
0
0
0
0
0
0
0
0
0
0
0
0
0
0
0
0
0
0
0
0
0
0
0
0
0
0
0
0
0
0
0
0
0
0
0
0
0
0
0
0
0
0
0
0
0
0
0
0
0
0
0
0
0
0
0
0
0
0
0
0
0
0
0
0
0
0
0
0
0
0
0
0
0
0
0
0
0
0
0
0
0
0
0
0
0
0
0
0
0
0
0
0
0
0
0
0
0
0
0
0
0
0
0
0
0
0
0
0
0
0
0
0
0
0
0
0
0
0
0
0
0
0
0
0
0
0
0
0
0
0
0
0
0
0
0
0
0
0
0
0
0
0
0
0
0
0
0
0
0
0
0
0
0
0
0
0
0
0
0
0
0
0
0
0
0
0
215038
115960
105564
141396
138748
227554
171280
223999
180487
159493
100199
196899
117975
179920
219721
131988
116456
182188
133910
93644.1
140414
62606.2
133725
205852
124420
170668
184603
224595
107725
212025
296338
107809
180384
218225
280245
254095
235919
210406
179707
183507
217997
197279
239803
316798
297317
172330
149642
182660
236109
271214
162998
603483
176028
169472
213648
195975
239225
214566
179760
271339
270874
351700
255204
302057
238860
195503
120769
220544
285137
157849
435226
167928
195757
272651
270486
413983
177218
231201
175423
277452
88394.7
249354
319219
115166
249248
215011
305166
295430
252195
218575
149502
219331
202454
192421
259071
207814
116563
82924.6
45536.7
47097.3
153587
138301
117916
111831
140692
110633
112370
129443
69712.9
172563
97813.7
109464
0
0
0
0
1346.09
0
0
0
383.614
0
0
0
0
683.704
6525.47
0
0
0
0
0
0
0
0
0
0
0
0
0
0
0
0
0
0
0
0
0
0
0
0
0
0
0
0
0
0
0
0
0
0
0
0
0
0
0
0
0
0
0
0
0
0
0
0
0
0
0
0
0
0
0
0
0
0
0
0
0
0
0
0
0
0
0
0
0
0
0
0
0
0
0
0
0
0
0
0
0
0
0
0
0
0
0
0
0
0
0
0
0
0
0
0
0
0
0
0
0
0
0
0
0
0
0
0
0
0
0
0
0
0
0
0
0
0
0
0
0
0
0
0
0
0
0
0
0
0
0
0
0
0
0
0
0
0
0
0
0
0
0
0
0
0
0
0
0
0
0
0
0
0
0
0
0
0
0
0
0
0
0
0
0
0
0
0
0
0
0
0
0
0
0
0
0
0
0
0
0
0
0
0
0
0
0
0
0
0
0
0
0
0
0
0
0
0
0
0
0
0
0
0
0
0
0
0
0
0
0
0
0
0
0
0
0
0
0
0
0
0
0
0
0
0
0
0
0
0
0
0
0
0
0
0
0
0
0
0
0
0
0
0
0
0
0
0
0
0
0
0
0
0
0
0
0
133558
141668
216856
195065
217678
132587
184368
100499
163335
236706
164729
229181
177690
181589
113085
311663
116322
174742
106064
80883.7
130130
144857
106197
146611
115496
152161
114077
121278
131123
220889
100288
147998
196666
189258
240233
169965
371218
269237
197011
226274
152698
198377
304702
256876
196210
336898
214856
205597
143668
244229
224182
281297
136135
168140
238930
246360
304689
277426
362021
180244
279794
238786
197369
215480
183336
226041
198505
156311
239697
275740
158983
275828
161681
175458
223960
419304
257361
287858
254059
305763
187869
290115
249806
272144
315638
219270
175218
358514
145635
243979
298426
245144
453881
184114
162316
398268
56861.3
65217.6
82483.8
70251.2
114325
35970.5
48653.6
60648.7
67413
41334.4
76624.5
93048.9
79181.4
88989.9
64415.3
55874.1
0
0
0
0
0
0
0
0
0
0
0
0
0
0
0
0
0
0
0
0
0
0
0
0
0
0
0
0
0
0
0
0
0
0
0
0
0
0
0
0
0
0
0
0
0
0
0
0
0
0
0
0
0
0
0
0
0
0
0
0
0
0
0
0
0
0
0
0
0
0
0
0
0
0
0
0
0
0
0
0
0
0
0
0
0
0
0
0
0
0
0
0
0
0
0
0
0
0
0
0
0
0
0
0
0
0
0
0
0
0
0
0
0
0
0
0
0
0
0
0
0
0
0
0
0
0
0
0
0
0
0
0
0
0
0
0
0
0
0
0
0
0
0
0
0
0
0
0
0
0
0
0
0
0
0
0
0
0
0
0
0
0
0
0
0
0
0
0
0
0
0
0
0
0
0
0
0
0
0
0
0
0
0
0
0
0
0
0
0
0
0
0
0
0
0
0
0
0
0
0
0
0
0
0
0
0
0
0
0
0
0
0
0
0
0
0
0
0
0
0
0
0
0
0
0
0
0
0
0
0
0
0
0
0
0
0
0
0
0
0
0
0
0
0
0
0
0
0
0
0
0
0
0
0
0
0
0
0
0
0
0
0
0
0
0
0
0
0
0
0
0
0
)
;

boundaryField
{
    inlet
    {
        type            zeroGradient;
    }
    outlet
    {
        type            zeroGradient;
    }
    wall
    {
        type            zeroGradient;
    }
    procBoundary0to1
    {
        type            processor;
        value           nonuniform List<scalar> 
192
(
129004
101405
152122
134747
319460
122904
150247
139160
218347
203832
345832
213912
394428
206651
250549
229169
191293
405117
234417
227721
361415
247383
255260
384407
86062.8
153984
145423
373125
0
982.838
123.294
43.0844
0
0
0
0
0
0
0
0
0
0
0
0
0
0
0
0
0
0
0
0
0
0
0
0
0
0
0
0
0
0
0
0
0
0
0
0
0
0
0
0
0
0
0
0
0
0
0
0
0
0
0
0
0
0
0
0
0
0
0
0
0
0
0
0
165415
242486
142884
138124
156916
195949
143782
105660
259568
136890
219717
364504
213169
250872
198462
229000
210323
216779
141821
372267
221233
178928
215638
155902
67318.1
74631.3
66549.9
63317
0
0
0
0
0
0
0
0
0
0
0
0
0
0
0
0
0
0
0
0
0
0
0
0
0
0
0
0
0
0
0
0
0
0
0
0
0
0
0
0
0
0
0
0
0
0
0
0
0
0
0
0
0
0
0
0
0
0
0
0
0
0
0
0
0
0
0
0
)
;
    }
    procBoundary0to2
    {
        type            processor;
        value           nonuniform List<scalar> 
192
(
126516
226439
323210
164535
136678
135856
115596
93401.8
630919
180789
233213
278060
231086
211609
159368
170143
301334
219850
172982
249764
155412
484233
235184
251800
77942.2
72854.3
106516
137403
0
0
0
0
0
0
0
0
0
0
0
0
0
0
0
0
0
0
0
0
0
0
0
0
0
0
0
0
0
0
0
0
0
0
0
0
0
0
0
0
0
0
0
0
0
0
0
0
0
0
0
0
0
0
0
0
0
0
0
0
0
0
0
0
0
0
0
0
156659
109423
135703
196561
240268
117945
75615.5
199403
127835
262157
257690
223584
251587
96274.3
189820
213144
224008
188506
248552
277388
207721
239863
224505
210372
175729
90440.7
88244.6
145078
429.188
0
0
0
0
0
0
0
0
0
0
0
0
0
0
0
0
0
0
0
0
0
0
0
0
0
0
0
0
0
0
0
0
0
0
0
0
0
0
0
0
0
0
0
0
0
0
0
0
0
0
0
0
0
0
0
0
0
0
0
0
0
0
0
0
0
0
0
)
;
    }
}


// ************************************************************************* //
