/*--------------------------------*- C++ -*----------------------------------*\
| =========                 |                                                 |
| \\      /  F ield         | OpenFOAM: The Open Source CFD Toolbox           |
|  \\    /   O peration     | Version:  2506                                  |
|   \\  /    A nd           | Website:  www.openfoam.com                      |
|    \\/     M anipulation  |                                                 |
\*---------------------------------------------------------------------------*/
FoamFile
{
    version     2.0;
    format      ascii;
    arch        "LSB;label=32;scalar=64";
    class       volVectorField;
    location    "0.1";
    object      U;
}
// * * * * * * * * * * * * * * * * * * * * * * * * * * * * * * * * * * * * * //

dimensions      [0 1 -1 0 0 0 0];

internalField   nonuniform List<vector> 
1152
(
(-0.00112596 -0.000417478 0.0189777)
(-0.000423683 0.00286955 0.01859)
(-0.00101749 -0.000502808 0.0152243)
(-0.000163737 0.000787138 0.0130022)
(0.00246379 -7.43549e-05 0.0145355)
(0.000512432 -0.000181931 0.0230486)
(-0.00217175 -0.00168748 0.022688)
(-0.000144474 -0.00081438 0.0142878)
(0.00364358 0.000329695 0.019761)
(-0.00123056 0.00065237 0.0119011)
(-0.00109848 -2.21636e-05 0.0102153)
(0.000862738 0.00117034 0.0130138)
(0.0013974 -0.000352068 0.0134333)
(-0.000244909 -0.00226694 0.0328759)
(-0.000601878 0.000934788 0.0148301)
(-0.000170846 0.00434021 0.0239149)
(-0.00039253 -0.00279253 0.0358077)
(-0.000326635 -0.0021455 0.059636)
(0.000652563 -0.000200319 0.031285)
(-0.00118955 -0.00193871 0.0583735)
(-0.0027085 -0.00215827 0.0536285)
(-0.00188841 -0.000204595 0.0426758)
(-0.000299067 0.000668805 0.0538021)
(-0.00036483 0.000463074 0.0434511)
(-0.000413206 -0.00117449 0.0504219)
(-0.000404794 -0.00291382 0.0555661)
(-0.000172145 -0.000251414 0.0389333)
(-0.000558915 -0.000962865 0.0390217)
(-0.00446352 -9.88499e-05 0.0520862)
(-0.00241788 4.90464e-05 0.0474331)
(0.00323305 0.000993918 0.0443627)
(0.00162807 1.5554e-05 0.0480663)
(0.00292797 0.000368425 0.0434701)
(-0.000885503 -0.000123435 0.0453584)
(1.2838e-05 0.00305883 0.039204)
(0.000556078 0.000614281 0.0380695)
(-0.000155777 -0.000403533 0.0345177)
(-0.000791138 -0.00302163 0.0557692)
(-0.00111952 -0.000120393 0.0476909)
(0.00151794 0.000722358 0.0349076)
(-0.000733166 3.42436e-05 0.0409227)
(0.000537579 -0.00365478 0.0508076)
(0.000810309 -0.00191337 0.0358968)
(0.000142825 -0.000912454 0.0452188)
(-0.0025201 -0.00147568 0.0476007)
(-0.00144388 -0.000132439 0.0287652)
(0.00101298 3.43715e-05 0.0300205)
(0.00250095 -0.00215352 0.0535809)
(-0.00145475 0.0014166 0.0572688)
(0.000722354 -0.00198633 0.0644789)
(0.00128477 0.00245215 0.0411753)
(0.000153069 0.00755979 0.0599249)
(0.000255728 -0.00105762 0.0499445)
(0.00203873 -0.000460678 0.0439984)
(0.0056306 -0.00112104 0.0474117)
(-0.00117575 -0.000522782 0.0369805)
(0.00117358 -0.0010765 0.0520965)
(0.00187136 0.00088378 0.0464674)
(0.00174594 -0.00223623 0.0448209)
(0.00125157 -0.00555984 0.0429221)
(0.00453863 0.00140891 0.0657813)
(0.00178006 0.000687658 0.038672)
(-0.000121451 0.000886971 0.0398638)
(0.00123055 0.00031748 0.0352362)
(-0.00222305 0.00213476 0.0582578)
(0.000596442 -0.000787127 0.0501092)
(0.00224179 -0.00125379 0.0492206)
(0.000532021 0.00150816 0.0422916)
(0.00119669 0.000644756 0.046367)
(-0.000963467 0.000980565 0.0456461)
(0.000315146 0.000561238 0.0694388)
(-0.00251086 -0.00128708 0.0754105)
(0.000621482 -0.00364044 0.0429716)
(0.00038994 0.0023224 0.0537235)
(0.00120796 0.00116741 0.0325339)
(-0.000682157 0.00096384 0.0410533)
(0.00321591 -0.0006809 0.041962)
(0.00386599 -0.00091035 0.0389473)
(0.000803582 -0.000625429 0.0300626)
(-0.00147581 -0.00196241 0.0386387)
(0.00300559 -0.00259729 0.0394705)
(-0.000837436 0.000297821 0.0347089)
(-0.00230469 -0.00364066 0.0313717)
(-0.00286658 -0.0179893 0.0605616)
(0.00571334 -0.00321387 0.055666)
(-0.00265224 -0.00191796 0.0334461)
(-0.00504959 -0.00261149 0.035195)
(0.00129869 -0.00237969 0.0315532)
(0.0024564 0.00469265 0.0473889)
(-0.00143277 -0.000676453 0.0299045)
(-0.00405912 0.00342747 0.0393933)
(-0.00234786 0.00252768 0.047517)
(0.00133668 -0.000400119 0.0288529)
(-0.00469648 0.00248494 0.0482293)
(-0.00330484 -0.000148584 0.039768)
(-0.00714949 0.00148011 0.049611)
(0.000294904 -3.52249e-05 0.0407641)
(0.00086849 -0.0015474 0.0308534)
(0.00140702 0.00208139 0.0328687)
(0.0013773 -0.00012572 0.0331678)
(-0.000210034 -0.000675536 0.027922)
(0.00286521 5.8178e-05 0.0345265)
(0.000679573 0.000163211 0.0268939)
(0.000154706 0.000387784 0.0309945)
(-0.000428672 -0.000982963 0.0361751)
(0.00138334 -0.000212232 0.0289811)
(0.00108619 -0.000996741 0.0265878)
(-0.000254073 -0.000908609 0.0250697)
(-1.424e-05 0.000176836 0.0290931)
(0.00106398 -0.000852295 0.032948)
(1.27011e-05 -0.00175587 0.0330797)
(0.00236006 -0.00248688 0.0343527)
(-0.00318929 -0.00541708 0.0422999)
(-0.00478698 -0.00695151 0.0332968)
(-0.0055416 -0.0120734 0.0219591)
(-0.00506169 -0.0141782 0.0180978)
(-0.00453729 -0.00387997 0.0120941)
(-0.00968428 -0.00557406 0.0246644)
(-0.0103518 -0.0108142 -0.0432194)
(-0.00782647 -0.0133612 -0.0353905)
(-0.00500192 -0.00125288 0.0265491)
(-0.0120978 -0.000593616 0.00995803)
(-0.0132228 0.000392985 -0.0571531)
(-0.00920531 -0.00274811 -0.0750566)
(-0.00325755 0.000395849 0.0266889)
(-0.00822438 0.00227475 0.0264898)
(-0.0116139 0.00699866 -0.0013984)
(-0.013642 0.00838153 -0.028238)
(0.000606749 0.00256368 0.025775)
(0.00269155 0.00322472 0.0256978)
(0.00308037 0.00700811 0.0258169)
(0.00292927 0.00801578 0.0266126)
(0.000533936 0.00217034 0.0229461)
(0.00562902 0.0033113 0.0255009)
(0.00659201 0.00742009 0.0237812)
(0.00540192 0.00854888 0.0255188)
(0.00101036 -3.3543e-05 0.0247173)
(0.00754014 -0.000243741 0.0250415)
(0.0085562 -0.00133217 0.023843)
(0.00558674 0.00126092 0.0256917)
(-0.000767878 -9.92098e-05 0.025044)
(0.00415461 -0.00149186 0.0267122)
(0.00781269 -0.00567754 0.0262382)
(0.0110137 -0.00598716 0.0264905)
(0.000457155 0.00203149 0.0228275)
(0.00153408 0.0023039 0.02199)
(0.00180878 0.00340683 0.0201883)
(0.00150083 0.00372288 0.0191064)
(0.000386221 0.0016929 0.0205362)
(0.00222175 0.00208245 0.0196441)
(0.00255377 0.00292096 0.0153233)
(0.00182874 0.00314818 0.0136619)
(0.000570937 0.000423899 0.020237)
(0.00265262 0.000402452 0.0186073)
(0.00282544 0.000233209 0.0132375)
(0.00178723 0.000662336 0.010996)
(1.46145e-05 1.30123e-05 0.0204189)
(0.00194126 -0.000384734 0.0197804)
(0.00275975 -0.00130588 0.0165061)
(0.00260554 -0.00140804 0.0124271)
(0.000418708 0.00136804 0.0212298)
(0.000918014 0.0014889 0.0208388)
(0.00109108 0.00184305 0.0200595)
(0.000953513 0.00203544 0.0195205)
(0.000422553 0.00113038 0.0201533)
(0.00113505 0.00127621 0.0197559)
(0.00136704 0.00155093 0.0184731)
(0.00114556 0.00167716 0.0178073)
(0.000512417 0.000477932 0.0198384)
(0.00127332 0.000485039 0.0192496)
(0.0014596 0.000451781 0.0178117)
(0.00114053 0.000513665 0.0170475)
(0.000353611 4.15392e-05 0.0198163)
(0.00107424 -9.09301e-05 0.0194595)
(0.00136493 -0.000389212 0.0183354)
(0.00118478 -0.000560383 0.0172765)
(0.000288526 0.000843891 0.0206421)
(0.000525983 0.000910557 0.0204127)
(0.000616543 0.00104052 0.0200348)
(0.000543145 0.00112585 0.0197112)
(0.000318114 0.000699623 0.0201143)
(0.000613212 0.000763047 0.0198743)
(0.000715324 0.000853242 0.019369)
(0.000604691 0.000898959 0.0189776)
(0.000371871 0.000363449 0.0198699)
(0.00066212 0.000368308 0.0195757)
(0.000740998 0.000352903 0.0190209)
(0.000585336 0.000337579 0.0185988)
(0.000326395 5.90202e-05 0.0198102)
(0.000592929 5.28169e-06 0.0195689)
(0.000673583 -0.000109412 0.0190868)
(0.000524113 -0.000220328 0.0186335)
(0.000178088 0.000497889 0.0203701)
(0.000289565 0.000531527 0.0202392)
(0.000331125 0.000579899 0.0200462)
(0.000288983 0.00060858 0.0198657)
(0.000201931 0.000415885 0.0200958)
(0.000324252 0.000443155 0.0199543)
(0.00036237 0.000471002 0.0197205)
(0.000298337 0.00047811 0.0195115)
(0.00022853 0.000239164 0.0199399)
(0.000339968 0.000241399 0.0197796)
(0.000362347 0.000229448 0.0195285)
(0.00027432 0.000205 0.0193111)
(0.000215948 5.68911e-05 0.0198858)
(0.000311298 3.1558e-05 0.0197404)
(0.000322091 -1.95761e-05 0.0195134)
(0.000223873 -8.17465e-05 0.0193044)
(0.000102174 0.000287 0.0202473)
(0.000154846 0.000303391 0.0201746)
(0.000173235 0.000321033 0.0200755)
(0.000149493 0.000327567 0.0199802)
(0.000117344 0.000241306 0.0201004)
(0.000168651 0.000252732 0.0200218)
(0.000181011 0.000259679 0.0199093)
(0.000144014 0.000254908 0.019805)
(0.000129747 0.000147866 0.0200073)
(0.000172522 0.000147498 0.0199215)
(0.000174444 0.000137791 0.019804)
(0.000124148 0.000118082 0.0196997)
(0.000124149 4.38653e-05 0.0199692)
(0.000157807 2.99085e-05 0.0198879)
(0.000150422 3.68728e-06 0.0197799)
(9.16381e-05 -3.11831e-05 0.0196851)
(5.55798e-05 0.000163171 0.020191)
(8.07531e-05 0.000171016 0.0201514)
(8.88269e-05 0.000177044 0.0201003)
(7.57987e-05 0.000176311 0.0200508)
(6.43476e-05 0.000137948 0.0201112)
(8.61337e-05 0.000142447 0.0200687)
(8.91384e-05 0.000142749 0.0200131)
(6.81473e-05 0.000136084 0.0199616)
(6.98047e-05 8.80182e-05 0.0200571)
(8.59849e-05 8.64774e-05 0.0200117)
(8.24239e-05 7.90822e-05 0.0199553)
(5.39215e-05 6.53293e-05 0.0199058)
(6.64139e-05 2.98396e-05 0.0200322)
(7.72509e-05 2.12705e-05 0.0199887)
(6.77745e-05 6.37769e-06 0.019937)
(3.39662e-05 -1.37576e-05 0.0198941)
(2.87879e-05 9.18447e-05 0.0201647)
(4.08696e-05 9.54357e-05 0.0201434)
(4.43668e-05 9.70632e-05 0.020117)
(3.73322e-05 9.4571e-05 0.0200915)
(3.35015e-05 7.7943e-05 0.0201209)
(4.27179e-05 7.94151e-05 0.0200981)
(4.26935e-05 7.79114e-05 0.0200703)
(3.096e-05 7.22821e-05 0.0200449)
(3.56324e-05 5.0981e-05 0.0200898)
(4.14051e-05 4.92082e-05 0.020066)
(3.74197e-05 4.39008e-05 0.0200385)
(2.14138e-05 3.48765e-05 0.0200152)
(3.31878e-05 1.86331e-05 0.0200743)
(3.58546e-05 1.31241e-05 0.0200516)
(2.84139e-05 4.21294e-06 0.0200268)
(9.22325e-06 -7.68364e-06 0.0200076)
(1.4076e-05 5.12977e-05 0.0201523)
(1.98223e-05 5.27817e-05 0.020141)
(2.12928e-05 5.28118e-05 0.0201275)
(1.75005e-05 5.038e-05 0.0201144)
(1.64195e-05 4.35766e-05 0.0201281)
(2.02034e-05 4.37819e-05 0.0201162)
(1.94345e-05 4.20765e-05 0.0201023)
(1.29089e-05 3.79662e-05 0.0200899)
(1.70254e-05 2.88513e-05 0.0201104)
(1.8761e-05 2.72735e-05 0.0200982)
(1.5661e-05 2.36009e-05 0.0200848)
(6.7113e-06 1.77792e-05 0.020074)
(1.51943e-05 1.08205e-05 0.0201011)
(1.51361e-05 7.23202e-06 0.0200896)
(1.00299e-05 1.75905e-06 0.0200779)
(-7.26569e-07 -5.41542e-06 0.0200695)
(6.26531e-06 2.8444e-05 0.0201467)
(8.95667e-06 2.89198e-05 0.0201409)
(9.53757e-06 2.8457e-05 0.020134)
(7.45966e-06 2.65445e-05 0.0201274)
(7.32989e-06 2.41008e-05 0.0201333)
(8.76637e-06 2.38206e-05 0.0201272)
(7.99182e-06 2.23857e-05 0.0201203)
(4.33734e-06 1.95372e-05 0.0201144)
(7.29171e-06 1.59313e-05 0.0201233)
(7.53376e-06 1.46734e-05 0.0201171)
(5.38702e-06 1.21923e-05 0.0201108)
(3.62981e-07 8.44977e-06 0.0201059)
(5.93811e-06 5.80352e-06 0.0201178)
(5.14777e-06 3.46004e-06 0.0201122)
(1.83824e-06 1.69887e-08 0.0201068)
(-4.21074e-06 -4.35842e-06 0.0201035)
(2.27817e-06 1.56159e-05 0.0201442)
(3.5041e-06 1.56668e-05 0.0201414)
(3.67375e-06 1.51277e-05 0.020138)
(2.51068e-06 1.3733e-05 0.0201348)
(2.7022e-06 1.31394e-05 0.0201368)
(3.14652e-06 1.27316e-05 0.0201338)
(2.50079e-06 1.16261e-05 0.0201306)
(4.44617e-07 9.71198e-06 0.0201278)
(2.44995e-06 8.54097e-06 0.0201312)
(2.17523e-06 7.58536e-06 0.0201283)
(7.39924e-07 5.90634e-06 0.0201254)
(-2.07789e-06 3.53641e-06 0.0201234)
(1.46396e-06 2.78652e-06 0.0201281)
(5.84426e-07 1.2407e-06 0.0201256)
(-1.50251e-06 -9.34422e-07 0.0201233)
(-4.90254e-06 -3.63523e-06 0.0201222)
(3.84882e-07 8.45454e-06 0.0201433)
(8.87254e-07 8.35381e-06 0.020142)
(8.6678e-07 7.8778e-06 0.0201404)
(2.09289e-07 6.90851e-06 0.020139)
(4.9938e-07 7.0209e-06 0.0201392)
(5.25434e-07 6.6269e-06 0.0201379)
(2.34901e-08 5.82407e-06 0.0201364)
(-1.13231e-06 4.56484e-06 0.0201353)
(2.03203e-07 4.40274e-06 0.0201361)
(-1.96575e-07 3.69473e-06 0.0201349)
(-1.14308e-06 2.57622e-06 0.0201337)
(-2.71617e-06 1.07813e-06 0.0201331)
(-5.04066e-07 1.09955e-06 0.0201344)
(-1.25909e-06 8.1813e-08 0.0201334)
(-2.56544e-06 -1.29467e-06 0.0201327)
(-4.46557e-06 -2.96826e-06 0.0201326)
(-4.05877e-07 4.48584e-06 0.0201431)
(-2.43982e-07 4.34928e-06 0.0201425)
(-3.3021e-07 3.97857e-06 0.0201419)
(-7.05919e-07 3.32474e-06 0.0201414)
(-4.17288e-07 3.64689e-06 0.0201408)
(-5.46225e-07 3.32209e-06 0.0201403)
(-9.12749e-07 2.76245e-06 0.0201398)
(-1.55919e-06 1.94656e-06 0.0201395)
(-6.81136e-07 2.14796e-06 0.0201391)
(-1.05954e-06 1.64205e-06 0.0201387)
(-1.67503e-06 9.04161e-07 0.0201384)
(-2.54688e-06 -4.14684e-08 0.0201385)
(-1.17571e-06 2.39385e-07 0.0201383)
(-1.7658e-06 -4.2064e-07 0.020138)
(-2.58002e-06 -1.28723e-06 0.020138)
(-3.61629e-06 -2.31404e-06 0.0201384)
(-6.23158e-07 2.28756e-06 0.0201431)
(-6.05546e-07 2.16306e-06 0.020143)
(-6.94092e-07 1.89859e-06 0.0201429)
(-9.15471e-07 1.47686e-06 0.0201428)
(-6.74367e-07 1.79902e-06 0.0201418)
(-8.3049e-07 1.55781e-06 0.0201418)
(-1.07897e-06 1.18454e-06 0.0201417)
(-1.44161e-06 6.70207e-07 0.0201419)
(-8.77267e-07 9.49543e-07 0.0201409)
(-1.17795e-06 6.04773e-07 0.0201409)
(-1.56394e-06 1.32772e-07 0.0201411)
(-2.04083e-06 -4.50725e-07 0.0201414)
(-1.20785e-06 -1.40716e-07 0.0201405)
(-1.63283e-06 -5.56785e-07 0.0201407)
(-2.12501e-06 -1.08836e-06 0.020141)
(-2.6758e-06 -1.70066e-06 0.0201416)
(-5.79988e-07 1.03821e-06 0.0201432)
(-6.15312e-07 9.3835e-07 0.0201433)
(-6.89212e-07 7.63012e-07 0.0201434)
(-8.2454e-07 5.093e-07 0.0201435)
(-6.37447e-07 7.60451e-07 0.0201425)
(-7.71043e-07 5.93727e-07 0.0201426)
(-9.28856e-07 3.58949e-07 0.0201428)
(-1.1313e-06 5.33369e-08 0.0201431)
(-7.78653e-07 2.97141e-07 0.0201419)
(-9.91011e-07 7.73399e-08 0.0201422)
(-1.21911e-06 -2.05496e-07 0.0201425)
(-1.47271e-06 -5.42513e-07 0.020143)
(-9.83694e-07 -2.92215e-07 0.0201418)
(-1.26417e-06 -5.40745e-07 0.0201421)
(-1.54299e-06 -8.46652e-07 0.0201426)
(-1.82607e-06 -1.18976e-06 0.0201432)
(-4.95897e-07 2.85344e-07 0.0201435)
(-5.61869e-07 1.94113e-07 0.0201436)
(-6.37439e-07 7.31228e-08 0.0201438)
(-7.30213e-07 -7.66882e-08 0.020144)
(-5.61496e-07 1.16365e-07 0.0201429)
(-6.73987e-07 -3.11873e-09 0.0201431)
(-7.85031e-07 -1.49829e-07 0.0201434)
(-9.01962e-07 -3.23662e-07 0.0201438)
(-6.6425e-07 -1.29587e-07 0.0201426)
(-8.11656e-07 -2.68701e-07 0.0201429)
(-9.5105e-07 -4.31755e-07 0.0201433)
(-1.08738e-06 -6.15439e-07 0.0201438)
(-7.90244e-07 -4.20284e-07 0.0201425)
(-9.68284e-07 -5.67297e-07 0.0201429)
(-1.12761e-06 -7.36264e-07 0.0201434)
(-1.27373e-06 -9.18261e-07 0.020144)
(0.000317573 6.6129e-05 0.00998366)
(-0.000659793 0.00350194 0.0210991)
(-0.00025104 -0.00089826 0.0236181)
(-0.00111409 -0.00307177 0.0168819)
(0.00259121 -0.000415244 0.0168411)
(-0.000827568 -0.00230335 0.00804306)
(-0.00508491 -0.00348116 0.014)
(0.000265392 -0.00230482 0.0109016)
(-0.000522317 -0.00103491 0.0131435)
(3.64158e-05 -0.00442524 0.0161794)
(-0.00104967 -0.00557569 0.0269004)
(0.000653667 0.0010881 0.0129777)
(-0.00382117 -0.00110266 0.0204916)
(-0.00288871 0.00136984 0.0141663)
(0.00132943 0.00185495 0.0116423)
(0.0038319 0.0012861 0.0191119)
(-0.001096 -0.00166868 0.0544447)
(-0.00250653 -0.00196659 0.0343276)
(0.000508681 -0.000656481 0.0489564)
(0.000232933 -0.000363796 0.0679153)
(0.00140497 -0.00286178 0.0448634)
(-0.000189546 -0.00197384 0.091002)
(0.000777672 -0.00350954 0.0508866)
(-0.000934506 -0.0020939 0.0344932)
(0.000889134 -0.00289478 0.0521404)
(-0.00181356 -0.00234747 0.0389755)
(-0.00122336 -0.00129232 0.0375993)
(0.000590395 -0.00223112 0.0309139)
(0.00420189 0.00394317 0.0554985)
(0.00353216 0.000207216 0.0309063)
(-0.000407198 0.00149742 0.0219319)
(-0.0041681 0.0010305 0.0605357)
(0.00272794 -0.000813242 0.0469779)
(0.00304014 -0.003347 0.0432107)
(-0.000754316 -0.00121313 0.0364764)
(0.00139691 0.000724792 0.037952)
(-0.00119997 -0.00146492 0.0381477)
(0.00098428 0.000457254 0.0430145)
(0.0056054 0.00304629 0.0477685)
(-0.000904049 0.00333769 0.0484039)
(0.00322307 -0.000481614 0.0395719)
(0.0036168 0.00416427 0.0437509)
(0.00146596 0.00112277 0.0372485)
(8.10179e-05 -0.000619194 0.0299733)
(0.00525854 0.00435796 0.0294461)
(0.00627566 0.00348881 0.0458277)
(-0.00127394 -0.00548886 0.0521057)
(-0.000634557 -0.000110131 0.0455556)
(0.00389715 0.000372865 0.0457071)
(0.0034085 5.54814e-05 0.0413716)
(0.00273658 -0.00214587 0.0599495)
(0.000382692 0.000521486 0.0242874)
(0.00166726 -0.00102551 0.0530284)
(0.00233045 -0.00257822 0.0583665)
(0.00333252 -0.00243191 0.0481555)
(0.00436666 -0.00190808 0.0520868)
(-0.00193247 0.00376981 0.0402606)
(0.00166758 -0.000840839 0.0465823)
(0.00216636 -0.000308611 0.0557987)
(0.00174705 -0.000951237 0.0413252)
(-0.00104949 -0.00109059 0.0358488)
(0.000299304 -0.000378026 0.0309976)
(0.00142797 -0.000406164 0.0408003)
(0.00203338 5.54664e-05 0.0375776)
(-0.00157751 -0.00464706 0.0423617)
(-0.0021259 -0.00380987 0.0507714)
(0.00689658 -0.00183349 0.08309)
(0.00280326 0.000574381 0.0493547)
(0.00240362 -0.00268412 0.0324024)
(0.00508768 -0.00231377 0.0580713)
(0.00275836 0.000752941 0.0293082)
(0.00825778 -0.000807467 0.0614794)
(0.000926363 0.0020989 0.0466302)
(0.00307112 0.000943211 0.0376937)
(0.00309236 0.00121053 0.0395232)
(0.00176073 0.000280389 0.0308489)
(0.000492223 -0.00157499 0.0516557)
(0.000915683 -0.00239998 0.0437353)
(0.00318061 -0.0020031 0.058614)
(0.000829877 -0.00119785 0.0417087)
(0.0105451 -0.00380743 0.066595)
(0.00766785 -0.00108783 0.0309282)
(0.00398306 0.000306266 0.0286685)
(0.00860535 -0.00478452 0.0586162)
(0.00160375 -0.00224805 0.0301221)
(0.00504289 -0.00147809 0.0350588)
(0.00404002 -0.00179311 0.0295301)
(0.00138875 -0.0008657 0.0312077)
(0.00266879 0.000959132 0.0267513)
(0.00328375 -0.000248574 0.0357811)
(0.00476425 -0.00147481 0.0494658)
(0.00351517 -5.17357e-05 0.0370858)
(-4.83216e-05 -0.00172604 0.0321177)
(0.00284474 -0.000189744 0.0402527)
(0.00342486 0.00148315 0.0343058)
(0.00596469 -4.5159e-05 0.0394953)
(0.00223318 -0.00685681 0.0208012)
(0.00196306 -0.00353463 0.0355551)
(-0.00190921 -0.00154693 0.0417515)
(0.000326661 0.000170236 0.039714)
(-0.00145435 0.00165043 0.0206385)
(-0.000409331 0.000312456 0.0265245)
(-0.000194268 -0.000976392 0.0277102)
(-0.000400764 0.000361739 0.0284458)
(-0.000422461 0.00218213 0.0225249)
(0.000718024 -0.00103228 0.0302468)
(0.000916309 -0.000731232 0.0302873)
(-0.000467332 0.000221391 0.0274407)
(0.00230441 -0.00030906 0.0339277)
(0.000200283 -0.00119029 0.0238406)
(-0.00147348 -0.000770447 0.0334774)
(-0.000301557 -0.0001266 0.0293436)
(0.00124874 -0.00413631 0.0371438)
(-0.000491117 -0.0050735 0.032382)
(-0.0012991 -0.00499997 0.0410102)
(-0.0016743 -0.00479226 0.0392719)
(7.70586e-05 -0.00167684 -0.00861142)
(0.000851635 -0.00414259 0.00245231)
(-1.49435e-05 -0.00429173 0.00474203)
(-0.00145201 -0.00396519 0.00818552)
(0.000153857 -0.00189048 -0.0074758)
(0.000521296 -0.0058412 0.00769535)
(9.9917e-05 -0.00355026 0.00940382)
(-0.00134617 -0.0021644 0.00231974)
(-0.00339569 -0.00263656 0.0350198)
(-0.0012329 -0.000940184 -0.0317267)
(-0.000156819 -0.000497341 0.00723151)
(-0.000318931 -0.000479544 0.00262007)
(-0.0027291 0.00351065 0.0233574)
(-0.00240455 0.00309017 0.0239181)
(-0.00176875 0.00289402 0.0249567)
(-0.00123063 0.00280928 0.0250612)
(-0.0025924 0.00238886 0.0176588)
(-0.00342836 0.00211991 0.0195318)
(-0.0028404 0.00221493 0.0204531)
(-0.0020032 0.00248013 0.021608)
(7.96652e-05 -0.000807811 0.0199034)
(-0.00114884 0.00174488 0.0208387)
(-0.00115766 0.000799225 0.0210022)
(-0.00109093 0.000964207 0.0211704)
(0.00228256 0.00229891 0.0257734)
(-0.000130335 0.000334024 0.0216714)
(-0.00358378 -0.000514615 0.0215865)
(-0.00223471 0.000393717 0.0208824)
(-0.00161235 0.00224053 0.0235498)
(-0.00130353 0.0022133 0.0235829)
(-0.000867276 0.00216629 0.0234396)
(-0.0005118 0.00212324 0.0229961)
(-0.00137131 0.00176254 0.0180086)
(-0.00169095 0.00171861 0.019129)
(-0.00136762 0.00174588 0.0198776)
(-0.000834771 0.00180193 0.0203046)
(-9.41581e-05 -0.000139997 0.0189104)
(-0.000537037 0.000714978 0.0189927)
(-0.000491643 0.000661891 0.0194007)
(-0.000377032 0.000787033 0.0194991)
(0.000636256 0.000597539 0.0198393)
(4.79867e-05 5.05164e-05 0.0169895)
(-0.000837118 -0.000179096 0.01858)
(-0.000657612 0.000165815 0.0189404)
(-0.000839719 0.00123458 0.021855)
(-0.000615344 0.00130811 0.0217889)
(-0.000331806 0.00133604 0.0216164)
(-9.23339e-05 0.00134129 0.0213414)
(-0.000705601 0.00111676 0.0193628)
(-0.000747956 0.00112385 0.0197302)
(-0.000528893 0.00113796 0.0200027)
(-0.000193988 0.00113985 0.0201119)
(-0.00010974 0.000208077 0.0194307)
(-0.000223395 0.000465135 0.0195058)
(-0.000143475 0.000518885 0.0196543)
(2.887e-05 0.000571897 0.0196727)
(0.000140305 0.000168849 0.0197892)
(1.91792e-05 4.40973e-05 0.0190743)
(-0.000130708 2.57752e-07 0.019384)
(-1.57224e-05 9.17292e-05 0.0194356)
(-0.000417367 0.000651183 0.0210863)
(-0.000273281 0.000728233 0.021031)
(-0.000109059 0.000772338 0.0209152)
(2.78035e-05 0.000794582 0.020747)
(-0.000356056 0.000647449 0.0199897)
(-0.000320927 0.000668369 0.0201054)
(-0.000177365 0.000682589 0.0201799)
(1.09537e-05 0.000681813 0.0201686)
(-7.69218e-05 0.000236056 0.0198477)
(-8.37338e-05 0.000323253 0.0198847)
(-8.69962e-06 0.000358727 0.0199287)
(0.000123134 0.0003752 0.0199041)
(2.905e-05 8.29176e-05 0.0199058)
(1.66884e-05 5.95282e-05 0.0197516)
(2.59175e-05 5.62023e-05 0.0198047)
(0.000126615 7.66919e-05 0.0197822)
(-0.000212762 0.00034583 0.0206519)
(-0.000126812 0.000400157 0.0206137)
(-3.35828e-05 0.000436312 0.0205414)
(4.44356e-05 0.000457686 0.0204423)
(-0.000181108 0.000363987 0.0201513)
(-0.000139189 0.000384216 0.0201842)
(-5.30593e-05 0.000398542 0.0201925)
(4.89414e-05 0.000400955 0.0201557)
(-4.91772e-05 0.000179937 0.0200179)
(-3.04617e-05 0.0002144 0.0200296)
(2.48618e-05 0.000233974 0.0200346)
(0.000105007 0.000239068 0.0200021)
(4.29577e-06 6.01691e-05 0.0199919)
(1.68879e-05 5.91292e-05 0.0199569)
(4.88699e-05 6.18659e-05 0.019962)
(0.000114179 6.57375e-05 0.0199333)
(-0.00011126 0.000185727 0.0204137)
(-6.19338e-05 0.00021993 0.0203908)
(-9.831e-06 0.000244465 0.0203491)
(3.35619e-05 0.000260052 0.0202926)
(-9.34161e-05 0.000202421 0.020178)
(-6.22305e-05 0.000217739 0.020185)
(-1.27835e-05 0.000228845 0.0201764)
(4.11807e-05 0.000232123 0.0201448)
(-2.99233e-05 0.000120463 0.0200855)
(-1.13717e-05 0.000135826 0.0200878)
(2.42339e-05 0.000145926 0.0200812)
(6.91831e-05 0.00014737 0.0200545)
(-6.7019e-07 4.54415e-05 0.0200501)
(1.26191e-05 4.79105e-05 0.020041)
(3.82612e-05 5.02606e-05 0.0200351)
(7.57291e-05 4.98453e-05 0.020012)
(-5.96109e-05 0.000100962 0.0202862)
(-3.20006e-05 0.000121358 0.0202731)
(-3.31123e-06 0.000136606 0.0202496)
(2.03217e-05 0.000146615 0.0202178)
(-4.91227e-05 0.000112301 0.0201721)
(-2.92677e-05 0.000122646 0.0201716)
(-1.77733e-06 0.000130196 0.0201617)
(2.62461e-05 0.000132883 0.0201397)
(-1.76634e-05 7.54062e-05 0.0201143)
(-4.62735e-06 8.30543e-05 0.0201134)
(1.63625e-05 8.81473e-05 0.0201059)
(4.03281e-05 8.8302e-05 0.0200871)
(-1.10902e-06 3.23379e-05 0.0200863)
(8.10963e-06 3.44686e-05 0.0200831)
(2.40074e-05 3.56658e-05 0.0200765)
(4.39878e-05 3.42293e-05 0.0200604)
(-3.26441e-05 5.54799e-05 0.0202181)
(-1.75009e-05 6.72249e-05 0.0202108)
(-1.93869e-06 7.62105e-05 0.0201977)
(1.0699e-05 8.21723e-05 0.0201799)
(-2.64216e-05 6.24171e-05 0.0201613)
(-1.47849e-05 6.88901e-05 0.0201593)
(9.71417e-08 7.36196e-05 0.0201518)
(1.43929e-05 7.53884e-05 0.0201379)
(-1.03539e-05 4.54366e-05 0.0201269)
(-2.41216e-06 4.94814e-05 0.0201253)
(9.2185e-06 5.20428e-05 0.0201195)
(2.14506e-05 5.17251e-05 0.0201075)
(-9.06157e-07 2.15632e-05 0.0201079)
(4.53138e-06 2.28475e-05 0.0201061)
(1.32471e-05 2.32671e-05 0.0201013)
(2.31913e-05 2.18099e-05 0.020091)
(-1.82485e-05 3.07966e-05 0.0201818)
(-1.01077e-05 3.73823e-05 0.0201778)
(-1.79975e-06 4.24771e-05 0.0201706)
(4.84665e-06 4.58434e-05 0.0201608)
(-1.45476e-05 3.48301e-05 0.0201527)
(-8.11544e-06 3.86558e-05 0.0201509)
(-2.59377e-07 4.14416e-05 0.0201461)
(6.86798e-06 4.24476e-05 0.0201378)
(-6.11284e-06 2.67605e-05 0.0201327)
(-1.72476e-06 2.8927e-05 0.0201314)
(4.39813e-06 3.01828e-05 0.0201275)
(1.0351e-05 2.97165e-05 0.0201203)
(-7.26185e-07 1.35974e-05 0.0201207)
(2.08516e-06 1.42754e-05 0.0201195)
(6.44418e-06 1.42962e-05 0.0201164)
(1.10223e-05 1.3073e-05 0.0201103)
(-1.04053e-05 1.72665e-05 0.0201627)
(-6.12095e-06 2.0874e-05 0.0201605)
(-1.75336e-06 2.3671e-05 0.0201566)
(1.65158e-06 2.54687e-05 0.0201513)
(-8.18655e-06 1.95208e-05 0.0201473)
(-4.81781e-06 2.16792e-05 0.0201462)
(-7.83318e-07 2.32283e-05 0.0201433)
(2.6365e-06 2.37092e-05 0.0201386)
(-3.64983e-06 1.55116e-05 0.0201358)
(-1.45378e-06 1.66522e-05 0.020135)
(1.59981e-06 1.72188e-05 0.0201327)
(4.30252e-06 1.67318e-05 0.0201286)
(-5.91769e-07 8.16138e-06 0.0201285)
(6.21994e-07 8.48855e-06 0.0201278)
(2.56798e-06 8.34236e-06 0.020126)
(4.43245e-06 7.37793e-06 0.0201226)
(-6.03972e-06 9.77552e-06 0.0201528)
(-3.84338e-06 1.17044e-05 0.0201516)
(-1.59422e-06 1.3189e-05 0.0201495)
(6.59424e-08 1.40707e-05 0.0201467)
(-4.68865e-06 1.09771e-05 0.0201445)
(-3.02913e-06 1.21511e-05 0.0201438)
(-1.05607e-06 1.29515e-05 0.0201422)
(4.538e-07 1.30894e-05 0.0201396)
(-2.18869e-06 8.86961e-06 0.0201379)
(-1.23315e-06 9.44466e-06 0.0201374)
(1.37815e-07 9.6388e-06 0.0201361)
(1.20652e-06 9.19018e-06 0.0201339)
(-4.75968e-07 4.66769e-06 0.0201335)
(-1.32241e-07 4.79654e-06 0.0201332)
(5.49856e-07 4.598e-06 0.0201322)
(1.10712e-06 3.87691e-06 0.0201305)
(-3.54919e-06 5.5721e-06 0.0201477)
(-2.46854e-06 6.57856e-06 0.0201471)
(-1.37388e-06 7.3191e-06 0.0201461)
(-6.31838e-07 7.69773e-06 0.0201445)
(-2.71026e-06 6.17492e-06 0.0201431)
(-1.96921e-06 6.78162e-06 0.0201428)
(-1.0941e-06 7.14721e-06 0.0201419)
(-5.32277e-07 7.11892e-06 0.0201406)
(-1.31637e-06 4.9969e-06 0.0201393)
(-1.00586e-06 5.2591e-06 0.0201391)
(-5.05738e-07 5.27259e-06 0.0201385)
(-2.25229e-07 4.90131e-06 0.0201374)
(-3.70197e-07 2.52594e-06 0.0201368)
(-4.44422e-07 2.55498e-06 0.0201367)
(-3.64709e-07 2.36054e-06 0.0201362)
(-3.89215e-07 1.84263e-06 0.0201354)
(-2.09199e-06 3.17686e-06 0.0201452)
(-1.59572e-06 3.6832e-06 0.0201449)
(-1.10725e-06 4.02082e-06 0.0201444)
(-8.26226e-07 4.14585e-06 0.0201436)
(-1.56963e-06 3.45179e-06 0.0201426)
(-1.29449e-06 3.74123e-06 0.0201424)
(-9.69203e-07 3.87686e-06 0.020142)
(-8.4339e-07 3.7856e-06 0.0201414)
(-7.89196e-07 2.75767e-06 0.0201404)
(-7.8131e-07 2.85835e-06 0.0201403)
(-6.88287e-07 2.80057e-06 0.0201401)
(-7.43844e-07 2.51451e-06 0.0201396)
(-2.75968e-07 1.2733e-06 0.020139)
(-5.07155e-07 1.26166e-06 0.0201389)
(-6.69358e-07 1.09971e-06 0.0201388)
(-9.05602e-07 7.39293e-07 0.0201386)
(-1.2182e-06 1.77945e-06 0.020144)
(-1.01736e-06 2.01723e-06 0.0201439)
(-8.26073e-07 2.15109e-06 0.0201437)
(-7.58124e-07 2.16086e-06 0.0201433)
(-8.96763e-07 1.88295e-06 0.0201424)
(-8.38814e-07 2.00456e-06 0.0201424)
(-7.62484e-07 2.03113e-06 0.0201423)
(-8.10929e-07 1.92849e-06 0.020142)
(-4.64574e-07 1.46434e-06 0.0201412)
(-5.71536e-07 1.48817e-06 0.0201412)
(-6.39317e-07 1.41279e-06 0.0201411)
(-8.01262e-07 1.20354e-06 0.020141)
(-1.95726e-07 5.73168e-07 0.0201404)
(-4.47644e-07 5.49003e-07 0.0201404)
(-6.6853e-07 4.26402e-07 0.0201404)
(-9.33979e-07 1.8499e-07 0.0201404)
(-6.75041e-07 9.34964e-07 0.0201435)
(-6.20075e-07 1.02474e-06 0.0201435)
(-5.70266e-07 1.05596e-06 0.0201434)
(-5.87749e-07 1.01828e-06 0.0201432)
(-4.8693e-07 9.5164e-07 0.0201425)
(-5.20448e-07 9.81877e-07 0.0201425)
(-5.46292e-07 9.57733e-07 0.0201425)
(-6.41558e-07 8.64415e-07 0.0201424)
(-2.6048e-07 6.98547e-07 0.0201417)
(-3.9284e-07 6.8361e-07 0.0201417)
(-5.04907e-07 6.09981e-07 0.0201418)
(-6.67728e-07 4.63181e-07 0.0201418)
(-1.32338e-07 1.81981e-07 0.0201412)
(-3.49619e-07 1.53323e-07 0.0201413)
(-5.49469e-07 6.48482e-08 0.0201414)
(-7.66798e-07 -9.00757e-08 0.0201415)
(-3.4599e-07 4.17235e-07 0.0201435)
(-3.75276e-07 4.15501e-07 0.0201435)
(-4.01658e-07 3.87827e-07 0.0201435)
(-4.46465e-07 3.2951e-07 0.0201434)
(-2.45052e-07 3.88275e-07 0.0201427)
(-3.27934e-07 3.57895e-07 0.0201427)
(-4.01179e-07 3.00485e-07 0.0201428)
(-4.95855e-07 2.1115e-07 0.0201428)
(-1.38736e-07 2.21053e-07 0.0201422)
(-2.80903e-07 1.76847e-07 0.0201422)
(-4.06619e-07 1.01254e-07 0.0201423)
(-5.45937e-07 -9.70669e-09 0.0201424)
(-9.3241e-08 -7.64505e-08 0.0201419)
(-2.8349e-07 -1.14473e-07 0.020142)
(-4.5755e-07 -1.86786e-07 0.0201421)
(-6.27873e-07 -2.91769e-07 0.0201423)
(-0.00206052 -0.000970647 0.0180405)
(-0.000277704 0.000624163 0.0181963)
(0.00142719 -0.000280471 0.00968524)
(-0.00227219 -0.00127155 0.00999662)
(-0.00112576 -0.000605661 0.00994897)
(-0.000138516 -0.00161518 0.0196679)
(0.000828491 -0.000541582 0.012088)
(-0.00543744 -0.00600382 0.0243483)
(-0.00342173 -0.000397202 0.0145659)
(-0.000206839 -0.001116 0.00973235)
(0.000798851 -0.000748288 0.0138092)
(-0.000835507 -0.00207022 0.00928731)
(-0.00186605 -6.14968e-05 0.013589)
(0.000929427 0.00154606 0.0132491)
(-0.00134203 -0.00233995 0.0214719)
(-1.35935e-05 -0.000171523 0.0065603)
(-0.00213027 0.00110069 0.0615925)
(-0.000102873 -0.000100313 0.038393)
(0.000825426 -0.000719583 0.0571299)
(-0.000741069 -0.00296235 0.0701018)
(-0.0026289 -0.000295383 0.0560831)
(-0.00189462 0.00108171 0.0481499)
(-0.00116278 -0.0014987 0.0578241)
(0.00343723 -0.000143849 0.0426345)
(-0.000510588 -0.00294253 0.0588359)
(-0.00197094 -0.00116535 0.0447361)
(-0.00155463 -0.00278778 0.0530898)
(0.000374455 0.00241972 0.0546747)
(-0.000670492 -0.0032792 0.0504181)
(-0.00152593 -0.00184046 0.0318677)
(0.000297164 -0.00142199 0.064197)
(-0.000580081 -0.00020922 0.0467406)
(0.00123821 -0.0019193 0.0457129)
(-0.00156744 0.000224606 0.043797)
(-0.00382105 0.00108005 0.0376458)
(0.00415628 0.00248078 0.0516004)
(-0.000128467 -0.00150498 0.0285461)
(-0.00363972 0.000943716 0.0352861)
(-0.00350498 0.000224463 0.0450821)
(0.00344366 0.0033335 0.0386685)
(-0.000639478 -0.00248006 0.0562664)