/*--------------------------------*- C++ -*----------------------------------*\
| =========                 |                                                 |
| \\      /  F ield         | OpenFOAM: The Open Source CFD Toolbox           |
|  \\    /   O peration     | Version:  2506                                  |
|   \\  /    A nd           | Website:  www.openfoam.com                      |
|    \\/     M anipulation  |                                                 |
\*---------------------------------------------------------------------------*/
FoamFile
{
    version     2.0;
    format      ascii;
    arch        "LSB;label=32;scalar=64";
    class       volVectorField;
    location    "0.1";
    object      Us;
}
// * * * * * * * * * * * * * * * * * * * * * * * * * * * * * * * * * * * * * //

dimensions      [0 1 -1 0 0 0 0];

internalField   nonuniform List<vector> 
1152
(
(2.21538e-05 -5.03419e-05 -1.68925e-05)
(0.000430271 0.000593885 -0.00040697)
(0.000172052 0.000288677 -0.000190159)
(-5.68857e-05 -0.00014755 -8.89058e-05)
(1.75658e-05 -6.39833e-06 -7.3769e-07)
(5.56429e-05 0.000174397 -6.59495e-06)
(-7.60242e-05 0.000106232 -8.23131e-05)
(-6.20088e-05 4.22873e-05 7.18419e-06)
(2.8103e-05 3.64035e-05 0.000100953)
(0.000142019 0.000143909 -3.62894e-05)
(7.68562e-05 7.65378e-05 -4.19595e-05)
(0.000108478 8.21917e-05 4.31966e-05)
(-3.8504e-06 0.000135457 3.31495e-05)
(-3.12913e-05 5.57137e-05 6.28604e-06)
(2.9865e-05 8.03439e-05 1.39617e-05)
(4.57771e-05 6.44694e-05 -4.08586e-05)
(2.11498e-07 -0.00211077 0.0120379)
(0.000645045 -0.001639 0.0153391)
(0.000801775 0.000190523 0.0110802)
(-0.000780218 -7.20826e-07 0.01259)
(-0.000582226 -0.00157832 0.0143636)
(-0.000918093 -7.03437e-05 0.0140484)
(0.000377596 0.000411279 0.0133451)
(-5.64153e-05 0.000704422 0.0120855)
(-0.000365768 -0.000987415 0.0145895)
(-0.000365175 -0.000979352 0.0142197)
(9.5638e-05 -0.000284563 0.0114239)
(5.68393e-05 -0.000795994 0.0118599)
(-0.00230528 0.000345215 0.0142918)
(-0.00128175 -0.000283895 0.0104505)
(0.00241913 0.000565795 0.00980832)
(0.00174716 8.32416e-05 0.0123209)
(0.000969221 0.00103445 0.0168888)
(0.000239679 0.000813645 0.0177325)
(0.000775707 0.00245993 0.0170987)
(0.000718898 0.0015357 0.0166678)
(0.000758388 0.000934604 0.0165121)
(-0.000527797 -0.00064362 0.019318)
(5.14268e-05 0.00115394 0.0170324)
(0.00171263 0.000995912 0.0175393)
(0.000982412 3.92553e-05 0.0167558)
(0.000944265 -9.11381e-05 0.0175518)
(0.000628764 -0.000389036 0.0174141)
(0.000611509 -0.00012239 0.0180472)
(-0.000149235 -0.000383467 0.016551)
(-0.000275065 -0.000218561 0.0154952)
(0.00057552 -5.58727e-05 0.0167096)
(0.00101614 -0.000114624 0.0192381)
(0.000467919 0.00198343 0.0169799)
(0.000780459 0.00132259 0.0172533)
(0.00076098 0.00123707 0.0175303)
(0.000847319 0.00153013 0.0174827)
(0.00115345 0.0013705 0.0182721)
(0.000636841 0.00124601 0.0179465)
(0.000715875 0.000679879 0.0178127)
(0.000408768 0.000541189 0.0181748)
(0.0015931 0.00142614 0.0189663)
(0.00138921 0.00103199 0.0182556)
(0.000992547 0.00045399 0.0181594)
(0.00054344 -3.2708e-05 0.0184467)
(0.00176378 0.000641321 0.0179743)
(0.00126118 0.000497763 0.0182423)
(0.00111293 0.000627463 0.0185477)
(0.000854788 0.000368754 0.0192019)
(0.000571909 0.000330554 0.0169002)
(0.000877024 0.000660573 0.017711)
(0.000231733 -5.93361e-05 0.018303)
(0.00046116 0.000415921 0.0180871)
(0.000493421 0.000314536 0.0179004)
(0.000630831 0.000535373 0.0181771)
(0.000262345 0.000124551 0.0185697)
(0.000407362 -0.000217116 0.0187885)
(0.00078732 0.000153068 0.0182154)
(0.000830161 0.000247353 0.0185132)
(0.000754493 0.000451369 0.0187077)
(0.000670477 -0.00028205 0.0192435)
(0.000963486 -9.33956e-05 0.0184268)
(0.00102325 9.43927e-05 0.0189051)
(0.000889061 0.00038404 0.018932)
(0.000557932 0.000153803 0.0190287)
(0.00075471 -0.000281074 0.0180738)
(-0.00010159 0.000427366 0.0175863)
(0.000147013 0.000177525 0.0182457)
(0.000356408 -0.000205416 0.0182986)
(0.0004407 -8.65733e-07 0.0177275)
(0.000118058 -0.000198701 0.0178979)
(0.000215915 0.000177822 0.0184765)
(0.000450574 -0.000709974 0.0186256)
(0.000272993 -3.11614e-05 0.0181653)
(9.23932e-05 -5.69189e-05 0.0186403)
(0.000190076 -3.46031e-05 0.018867)
(-3.08235e-05 -0.000274605 0.0188783)
(0.000599165 -0.000328942 0.0187724)
(0.000498614 -0.000148509 0.019206)
(0.000357012 -0.000225257 0.0193992)
(0.000252302 -0.000121388 0.0194143)
(-0.000102358 -0.000262353 0.0166329)
(4.18024e-05 -0.000256896 0.017197)
(0.00109017 -0.0003481 0.0183594)
(0.00140343 -0.00157108 0.0185868)
(0.000247537 -0.000917426 0.0179228)
(-0.000131905 -0.000687256 0.017945)
(-5.29336e-06 -0.000426995 0.018151)
(0.000526324 -0.00105665 0.0184439)
(9.8037e-05 -0.000629497 0.0179524)
(-2.76935e-05 -0.000640813 0.0184062)
(-4.54257e-05 -0.00060328 0.0186506)
(-1.72361e-05 -0.000597436 0.0188037)
(0.000216503 -0.000140493 0.0189627)
(0.000128301 -0.000522062 0.0191006)
(-0.00017336 -0.000653546 0.0192058)
(-0.000260844 -0.000648481 0.0191102)
(0 0 0)
(0 0 0)
(0 0 0)
(0 0 0)
(0 0 0)
(0 0 0)
(0.000118176 -0.001871 0.0178156)
(0.000118176 -0.001871 0.0178156)
(0 0 0)
(0 0 0)
(0.000118176 -0.001871 0.0178156)
(0.000118176 -0.001871 0.0178156)
(0 0 0)
(0 0 0)
(-0.00101385 -0.000566505 0.0188283)
(-0.00101385 -0.000566505 0.0188283)
(0 0 0)
(0 0 0)
(0 0 0)
(0 0 0)
(0 0 0)
(0 0 0)
(0 0 0)
(0 0 0)
(0 0 0)
(0 0 0)
(0 0 0)
(0 0 0)
(0 0 0)
(0 0 0)
(0 0 0)
(0 0 0)
(0 0 0)
(0 0 0)
(0 0 0)
(0 0 0)
(0 0 0)
(0 0 0)
(0 0 0)
(0 0 0)
(0 0 0)
(0 0 0)
(0 0 0)
(0 0 0)
(0 0 0)
(0 0 0)
(0 0 0)
(0 0 0)
(0 0 0)
(0 0 0)
(0 0 0)
(0 0 0)
(0 0 0)
(0 0 0)
(0 0 0)
(0 0 0)
(0 0 0)
(0 0 0)
(0 0 0)
(0 0 0)
(0 0 0)
(0 0 0)
(0 0 0)
(0 0 0)
(0 0 0)
(0 0 0)
(0 0 0)
(0 0 0)
(0 0 0)
(0 0 0)
(0 0 0)
(0 0 0)
(0 0 0)
(0 0 0)
(0 0 0)
(0 0 0)
(0 0 0)
(0 0 0)
(0 0 0)
(0 0 0)
(0 0 0)
(0 0 0)
(0 0 0)
(0 0 0)
(0 0 0)
(0 0 0)
(0 0 0)
(0 0 0)
(0 0 0)
(0 0 0)
(0 0 0)
(0 0 0)
(0 0 0)
(0 0 0)
(0 0 0)
(0 0 0)
(0 0 0)
(0 0 0)
(0 0 0)
(0 0 0)
(0 0 0)
(0 0 0)
(0 0 0)
(0 0 0)
(0 0 0)
(0 0 0)
(0 0 0)
(0 0 0)
(0 0 0)
(0 0 0)
(0 0 0)
(0 0 0)
(0 0 0)
(0 0 0)
(0 0 0)
(0 0 0)
(0 0 0)
(0 0 0)
(0 0 0)
(0 0 0)
(0 0 0)
(0 0 0)
(0 0 0)
(0 0 0)
(0 0 0)
(0 0 0)
(0 0 0)
(0 0 0)
(0 0 0)
(0 0 0)
(0 0 0)
(0 0 0)
(0 0 0)
(0 0 0)
(0 0 0)
(0 0 0)
(0 0 0)
(0 0 0)
(0 0 0)
(0 0 0)
(0 0 0)
(0 0 0)
(0 0 0)
(0 0 0)
(0 0 0)
(0 0 0)
(0 0 0)
(0 0 0)
(0 0 0)
(0 0 0)
(0 0 0)
(0 0 0)
(0 0 0)
(0 0 0)
(0 0 0)
(0 0 0)
(0 0 0)
(0 0 0)
(0 0 0)
(0 0 0)
(0 0 0)
(0 0 0)
(0 0 0)
(0 0 0)
(0 0 0)
(0 0 0)
(0 0 0)
(0 0 0)
(0 0 0)
(0 0 0)
(0 0 0)
(0 0 0)
(0 0 0)
(0 0 0)
(0 0 0)
(0 0 0)
(0 0 0)
(0 0 0)
(0 0 0)
(0 0 0)
(0 0 0)
(0 0 0)
(0 0 0)
(0 0 0)
(0 0 0)
(0 0 0)
(0 0 0)
(0 0 0)
(0 0 0)
(0 0 0)
(0 0 0)
(0 0 0)
(0 0 0)
(0 0 0)
(0 0 0)
(0 0 0)
(0 0 0)
(0 0 0)
(0 0 0)
(0 0 0)
(0 0 0)
(0 0 0)
(0 0 0)
(0 0 0)
(0 0 0)
(0 0 0)
(0 0 0)
(0 0 0)
(0 0 0)
(0 0 0)
(0 0 0)
(0 0 0)
(0 0 0)
(0 0 0)
(0 0 0)
(0 0 0)
(0 0 0)
(0 0 0)
(0 0 0)
(0 0 0)
(0 0 0)
(0 0 0)
(0 0 0)
(0 0 0)
(0 0 0)
(0 0 0)
(0 0 0)
(0 0 0)
(0 0 0)
(0 0 0)
(0 0 0)
(0 0 0)
(0 0 0)
(0 0 0)
(0 0 0)
(0 0 0)
(0 0 0)
(0 0 0)
(0 0 0)
(0 0 0)
(0 0 0)
(0 0 0)
(0 0 0)
(0 0 0)
(0 0 0)
(0 0 0)
(0 0 0)
(0 0 0)
(0 0 0)
(0 0 0)
(0 0 0)
(0 0 0)
(0 0 0)
(0 0 0)
(0 0 0)
(0 0 0)
(0 0 0)
(0 0 0)
(0 0 0)
(0 0 0)
(0 0 0)
(0 0 0)
(0 0 0)
(0 0 0)
(0 0 0)
(0 0 0)
(0 0 0)
(0 0 0)
(0 0 0)
(0 0 0)
(0 0 0)
(0 0 0)
(0.00012816 -0.000158706 -0.000136604)
(0.000216384 0.000370122 3.38433e-05)
(0.000216832 3.82321e-06 0.000105213)
(0.000124064 -0.000100483 7.66384e-05)
(0.000101949 -0.000178417 1.35467e-05)
(-7.11574e-05 -0.000810005 -0.000194409)
(0.000115802 2.92303e-05 5.57345e-05)
(7.22555e-05 -9.89137e-05 0.000104199)
(-1.35928e-05 -3.49827e-05 3.98714e-05)
(-4.98757e-05 -3.44532e-05 0.000131331)
(-1.36712e-05 1.21939e-05 -4.15674e-05)
(3.39505e-05 0.000122892 0.000381562)
(-3.76641e-05 0.000366137 1.08161e-05)
(6.84909e-05 0.000325329 1.87857e-05)
(0.000119595 9.34129e-06 -9.77907e-05)
(-0.00011534 0.000398081 -0.000152192)
(-0.00020219 -0.000343374 0.0114527)
(-0.00140565 -0.00137501 0.0094342)
(0.000996753 -0.000605654 0.0128589)
(0.00102289 -0.00129365 0.0140351)
(0.000632999 -0.00242594 0.0110942)
(-0.00112414 -0.00182124 0.0142928)
(0.000793263 -0.00186704 0.0140352)
(-0.000102202 -0.00162158 0.01176)
(0.000526106 -0.00109018 0.0122526)
(-0.000601976 -0.0014106 0.0104011)
(-0.000759705 -0.00124929 0.0116742)
(-8.49306e-05 -0.00169249 0.0110376)
(0.00189633 0.0026084 0.0114414)
(0.00197803 0.000316368 0.00987531)
(-0.000219281 0.00114279 0.00818796)
(-0.00189197 0.000689577 0.0136386)
(0.00129065 -0.000123245 0.0146787)
(0.00154144 -0.00139021 0.0178731)
(0.000989302 -0.000403191 0.0166571)
(0.00153798 0.000453131 0.0167356)
(0.000288065 -0.000133678 0.0162934)
(0.000862346 0.00059856 0.0172378)
(0.00213609 0.00118915 0.0167097)
(0.000685516 0.00171427 0.0171202)
(0.0017099 0.000839746 0.0148912)
(0.00187335 0.0023271 0.0163573)
(0.00178914 0.000849151 0.0154199)
(0.00115126 0.000537706 0.0153363)
(0.00364633 0.0033122 0.0123815)
(0.00235955 0.00171024 0.0140574)
(0.000583945 -0.000401682 0.0149122)
(0.000620012 0.000544969 0.0162367)
(0.00221235 0.000586087 0.0154844)
(0.000652339 -0.000130261 0.0161168)
(0.000735525 0.000458242 0.0158375)
(0.000795034 0.000906276 0.0159263)
(0.000706341 -0.000693708 0.01388)
(0.00139353 8.1307e-05 0.015547)
(0.00140015 0.000470545 0.0165823)
(0.00124792 0.000925732 0.0174937)
(-0.000955188 0.00320308 0.0134514)
(0.00219755 0.000758712 0.0163723)
(0.00171513 0.00124547 0.0167227)
(0.00150529 0.00108397 0.0177126)
(0.00102429 0.000780164 0.012304)
(0.00185999 0.000184097 0.0150918)
(0.00186856 0.000464132 0.016614)
(0.00179922 0.000421508 0.017287)
(0.00109353 -0.000496346 0.0146923)
(0.00222677 0.00100933 0.0165504)
(0.00249051 0.00301619 0.0169708)
(0.00175574 0.0014024 0.0179442)
(0.000524876 -0.00031402 0.0117224)
(0.000986252 8.54285e-05 0.0135121)
(0.00130204 0.00096596 0.0168368)
(0.000997058 -0.000107763 0.018414)
(0.000545936 0.000780486 0.0129633)
(0.00186 0.000146992 0.0145404)
(0.000983826 0.00109758 0.0164881)
(0.000710569 0.000616763 0.017378)
(0.000578321 0.000331937 0.0124681)
(0.00136761 0.00102708 0.0150154)
(0.00239113 0.0013777 0.0175567)
(0.00121097 0.000411029 0.0177595)
(0.00202631 -0.0002861 0.0118586)
(0.00228359 -0.000904103 0.0151479)
(0.00135947 -6.22758e-05 0.0173654)
(0.00190731 -1.90637e-05 0.0187948)
(0.00145424 -0.00123101 0.0113296)
(0.00141195 -0.00184758 0.0137047)
(0.000810553 -0.00103747 0.0164259)
(0.000322271 0.000173541 0.0175376)
(0.00138595 0.000140298 0.00857959)
(0.00114399 -0.000944271 0.0140707)
(0.000758592 -0.000167474 0.0162925)
(0.000368938 -5.41498e-05 0.0174157)
(0.000997224 -0.00128724 0.00867895)
(0.00207992 -1.39812e-05 0.0149634)
(0.00106719 0.000499402 0.0171446)
(0.000788338 8.79744e-05 0.0180564)
(0.0021165 -0.00739567 0.00501429)
(0.00212659 -0.00353496 0.0167686)
(-0.000356964 -0.001979 0.016797)
(0.0005465 -0.000761216 0.0164777)
(-0.00112887 0.00130453 0.00943381)
(-0.000252843 0.000365957 0.0130447)
(-3.50115e-05 -0.0013534 0.0166666)
(-1.64721e-05 -0.000254044 0.0169305)
(0.000169175 0.00277753 0.00879792)
(0.00163709 -0.00144908 0.0145746)
(0.000603924 -0.000910441 0.0164897)
(-0.000289093 0.000206867 0.0176311)
(-0.000151339 -0.000440445 0.00645437)
(-0.000235268 -0.0011891 0.0140416)
(-0.000646921 -0.000682769 0.0171652)
(6.25175e-05 -0.000128756 0.0178741)
(0 0 0)
(0 0 0)
(0 0 0)
(0 0 0)
(-0.0049918 0.00148439 0.00497932)
(0 0 0)
(0 0 0)
(0 0 0)
(0.00158455 0.000919143 0.0130055)
(0 0 0)
(0 0 0)
(0 0 0)
(0 0 0)
(-0.00249735 -0.000918155 0.015803)
(-0.00249735 -0.000918155 0.015803)
(0 0 0)
(0 0 0)
(0 0 0)
(0 0 0)
(0 0 0)
(0 0 0)
(0 0 0)
(0 0 0)
(0 0 0)
(0 0 0)
(0 0 0)
(0 0 0)
(0 0 0)
(0 0 0)
(0 0 0)
(0 0 0)
(0 0 0)
(0 0 0)
(0 0 0)
(0 0 0)
(0 0 0)
(0 0 0)
(0 0 0)
(0 0 0)
(0 0 0)
(0 0 0)
(0 0 0)
(0 0 0)
(0 0 0)
(0 0 0)
(0 0 0)
(0 0 0)
(0 0 0)
(0 0 0)
(0 0 0)
(0 0 0)
(0 0 0)
(0 0 0)
(0 0 0)
(0 0 0)
(0 0 0)
(0 0 0)
(0 0 0)
(0 0 0)
(0 0 0)
(0 0 0)
(0 0 0)
(0 0 0)
(0 0 0)
(0 0 0)
(0 0 0)
(0 0 0)
(0 0 0)
(0 0 0)
(0 0 0)
(0 0 0)
(0 0 0)
(0 0 0)
(0 0 0)
(0 0 0)
(0 0 0)
(0 0 0)
(0 0 0)
(0 0 0)
(0 0 0)
(0 0 0)
(0 0 0)
(0 0 0)
(0 0 0)
(0 0 0)
(0 0 0)
(0 0 0)
(0 0 0)
(0 0 0)
(0 0 0)
(0 0 0)
(0 0 0)
(0 0 0)
(0 0 0)
(0 0 0)
(0 0 0)
(0 0 0)
(0 0 0)
(0 0 0)
(0 0 0)
(0 0 0)
(0 0 0)
(0 0 0)
(0 0 0)
(0 0 0)
(0 0 0)
(0 0 0)
(0 0 0)
(0 0 0)
(0 0 0)
(0 0 0)
(0 0 0)
(0 0 0)
(0 0 0)
(0 0 0)
(0 0 0)
(0 0 0)
(0 0 0)
(0 0 0)
(0 0 0)
(0 0 0)
(0 0 0)
(0 0 0)
(0 0 0)
(0 0 0)
(0 0 0)
(0 0 0)
(0 0 0)
(0 0 0)
(0 0 0)
(0 0 0)
(0 0 0)
(0 0 0)
(0 0 0)
(0 0 0)
(0 0 0)
(0 0 0)
(0 0 0)
(0 0 0)
(0 0 0)
(0 0 0)
(0 0 0)
(0 0 0)
(0 0 0)
(0 0 0)
(0 0 0)
(0 0 0)
(0 0 0)
(0 0 0)
(0 0 0)
(0 0 0)
(0 0 0)
(0 0 0)
(0 0 0)
(0 0 0)
(0 0 0)
(0 0 0)
(0 0 0)
(0 0 0)
(0 0 0)
(0 0 0)
(0 0 0)
(0 0 0)
(0 0 0)
(0 0 0)
(0 0 0)
(0 0 0)
(0 0 0)
(0 0 0)
(0 0 0)
(0 0 0)
(0 0 0)
(0 0 0)
(0 0 0)
(0 0 0)
(0 0 0)
(0 0 0)
(0 0 0)
(0 0 0)
(0 0 0)
(0 0 0)
(0 0 0)
(0 0 0)
(0 0 0)
(0 0 0)
(0 0 0)
(0 0 0)
(0 0 0)
(0 0 0)
(0 0 0)
(0 0 0)
(0 0 0)
(0 0 0)
(0 0 0)
(0 0 0)
(0 0 0)
(0 0 0)
(0 0 0)
(0 0 0)
(0 0 0)
(0 0 0)
(0 0 0)
(0 0 0)
(0 0 0)
(0 0 0)
(0 0 0)
(0 0 0)
(0 0 0)
(0 0 0)
(0 0 0)
(0 0 0)
(0 0 0)
(0 0 0)
(0 0 0)
(0 0 0)
(0 0 0)
(0 0 0)
(0 0 0)
(0 0 0)
(0 0 0)
(0 0 0)
(0 0 0)
(0 0 0)
(0 0 0)
(0 0 0)
(0 0 0)
(0 0 0)
(0 0 0)
(0 0 0)
(0 0 0)
(0 0 0)
(0 0 0)
(0 0 0)
(0 0 0)
(0 0 0)
(0 0 0)
(0 0 0)
(0 0 0)
(0 0 0)
(0 0 0)
(0 0 0)
(0 0 0)
(0 0 0)
(0 0 0)
(0 0 0)
(0 0 0)
(0 0 0)
(0 0 0)
(0 0 0)
(0 0 0)
(0 0 0)
(0 0 0)
(0 0 0)
(0 0 0)
(0 0 0)
(0 0 0)
(0 0 0)
(0 0 0)
(0 0 0)
(0 0 0)
(0 0 0)
(0 0 0)
(0 0 0)
(0 0 0)
(0 0 0)
(0 0 0)
(0 0 0)
(0 0 0)
(0 0 0)
(0 0 0)
(0 0 0)
(0 0 0)
(3.60116e-05 -7.6163e-05 -0.000136677)
(-4.71748e-05 2.94868e-05 -2.71116e-05)
(3.0442e-05 1.02992e-05 -3.52708e-05)
(-0.000575239 6.5909e-05 -1.4312e-05)
(4.14882e-05 -1.13814e-05 -0.000246306)
(-3.7792e-05 -0.000154251 0.000239348)
(5.3425e-05 9.43829e-05 -2.52334e-05)
(0.000124491 3.04409e-05 -0.000129648)
(-0.00108057 -0.000429496 5.18704e-05)
(-5.23805e-05 -0.000457513 7.32566e-05)
(0.000208559 -3.29019e-05 -5.26656e-06)
(6.5576e-05 -3.58585e-05 -7.60495e-05)
(2.9035e-05 -2.7182e-05 0.00015658)
(0.000162661 0.000114333 0.000233638)
(0.000118314 -3.09113e-05 -2.43499e-05)
(0.000347327 -6.29225e-05 -2.004e-05)
(-0.0015018 0.00110452 0.0161522)
(0.000308572 0.000163732 0.0107173)
(0.00108235 -0.000283407 0.0125596)
(0.000559089 -0.000911217 0.0133987)
(-0.00198351 0.000107705 0.016452)
(-0.00136097 0.00099627 0.012797)
(-6.56771e-05 -2.75786e-05 0.0128939)
(0.00266881 0.000215956 0.0120451)
(-0.000306772 -0.00111295 0.0149125)
(-0.000971625 -0.000897261 0.0126445)
(-0.000927129 -0.00112911 0.012951)
(0.000562327 0.00177159 0.0144888)
(0.000277841 -0.0014405 0.0126096)
(-0.000732346 -0.00140601 0.0111219)
(-0.000387697 -7.22931e-05 0.0151184)
(-0.000316317 0.000666566 0.014054)
(0.0010609 -0.00111475 0.0170984)
(0.00119707 -0.000597984 0.013657)
(-0.00152935 0.000201985 0.0150026)
(0.00254864 -1.71023e-05 0.0172435)
(0.000165089 -0.000537918 0.0163573)
(-0.00170041 0.00118557 0.0149888)
(-0.00147575 0.000617988 0.0153587)
(0.00203051 0.0012225 0.0151671)
(0.000731237 0.000805139 0.0158068)
(0.000228329 0.00140171 0.015054)
(0.000230212 0.00155936 0.0157402)
(0.00177279 0.0012043 0.0153773)
(0.000673975 0.00110787 0.0164133)
(-0.00055398 0.0024068 0.0158461)
(-0.000254826 0.0033627 0.0155576)
(6.57583e-05 0.00221037 0.0166135)
(0.000556747 -0.000374969 0.0148317)
(0.00171997 0.00102371 0.0146645)
(0.000386373 0.000207551 0.0159993)
(-0.00210793 0.000816879 0.013627)
(-7.20388e-05 -0.000555072 0.0146431)
(0.000332221 0.000874462 0.0150239)
(0.000633724 0.00149866 0.0137834)
(-0.0017149 0.0019176 0.0135469)
(0.000824653 0.00141089 0.0158553)
(0.00145563 0.00191603 0.0151348)
(0.000907211 0.00192677 0.0146559)
(0.000848755 0.0013264 0.015514)
(0.000506832 0.00194665 0.0164329)
(0.00119743 0.0015544 0.0158168)
(0.000599131 0.00137992 0.0166855)
(0.000853259 0.00160714 0.0169891)
(-0.00019684 0.000671734 0.0142925)
(-0.000658505 0.00101832 0.0131307)
(0.000484379 0.000658923 0.0157037)
(-0.00065394 0.00146973 0.0135436)
(0.00104957 0.00125803 0.0149509)
(0.00191975 0.000626709 0.0140244)
(0.000960138 0.00113193 0.0143297)
(0.000138778 0.00111687 0.0142437)
(0.00168423 0.00149485 0.0152595)
(0.000813319 0.00151917 0.0154416)
(0.00134827 0.000989629 0.0155466)
(0.000807129 0.00106801 0.0155867)
(0.00117051 0.00150619 0.0155367)
(0.00129469 0.000769676 0.0169346)
(0.00111413 0.000693966 0.0174656)
(0.000530718 0.00102248 0.0171825)
(0.000901885 -0.000574335 0.0135126)
(-0.000531791 -0.000264738 0.0109378)
(-0.000967373 0.00165487 0.0135152)
(-0.00116521 -0.000262615 0.0120209)
(0.00359047 0.000382426 0.0149866)
(0.00152642 -9.62363e-06 0.0129213)
(0.000350778 0.00220735 0.0150595)
(0.000335219 0.000555077 0.0140949)
(0.00285188 -0.00085782 0.0154705)
(0.00107937 0.00142363 0.01596)
(0.00125844 0.00134065 0.0155699)
(0.00150838 0.000335727 0.0165879)
(0.000446336 -0.00104816 0.0169911)
(0.000751221 0.00103289 0.0173829)
(0.00112874 0.000519459 0.0175542)
(0.00117936 0.000134912 0.0185561)
(0.00168103 -0.000261303 0.0116377)
(-0.000810861 4.36818e-05 0.0118769)
(-0.00101081 0.000569314 0.0123748)
(0.000607988 -0.00133193 0.0111645)
(0.00328819 -0.00108925 0.0147877)
(-0.000591477 0.000110989 0.0136617)
(0.000218027 0.00175413 0.0139012)
(0.000521749 -0.00160977 0.012985)
(0.00221331 -0.00187554 0.0171565)
(-2.92241e-05 0.00063125 0.0151154)
(0.000522615 0.00137975 0.0164481)
(0.00104442 -0.000278911 0.0164349)
(-1.54081e-05 -0.000751515 0.017001)
(-1.43418e-05 0.00118217 0.017237)
(0.000291798 -0.000183499 0.0178661)
(0.000332837 -0.000700905 0.0182886)
(0 0 0)
(0 0 0)
(0 0 0)
(0 0 0)
(0 0 0)
(0 0 0)
(0 0 0)
(0 0 0)
(0 0 0)
(0 0 0)
(0 0 0)
(0 0 0)
(0 0 0)
(0 0 0)
(0 0 0)
(0 0 0)
(0 0 0)
(0 0 0)
(0 0 0)
(0 0 0)
(0 0 0)
(0 0 0)
(0 0 0)
(0 0 0)
(0 0 0)
(0 0 0)
(0 0 0)
(0 0 0)
(0 0 0)
(0 0 0)
(0 0 0)
(0 0 0)
(0 0 0)
(0 0 0)
(0 0 0)
(0 0 0)
(0 0 0)
(0 0 0)
(0 0 0)
(0 0 0)
(0 0 0)
(0 0 0)
(0 0 0)
(0 0 0)
(0 0 0)
(0 0 0)
(0 0 0)
(0 0 0)
(0 0 0)
(0 0 0)
(0 0 0)
(0 0 0)
(0 0 0)
(0 0 0)
(0 0 0)
(0 0 0)
(0 0 0)
(0 0 0)
(0 0 0)
(0 0 0)
(0 0 0)
(0 0 0)
(0 0 0)
(0 0 0)
(0 0 0)
(0 0 0)
(0 0 0)
(0 0 0)
(0 0 0)
(0 0 0)
(0 0 0)
(0 0 0)
(0 0 0)
(0 0 0)
(0 0 0)
(0 0 0)
(0 0 0)
(0 0 0)
(0 0 0)
(0 0 0)
(0 0 0)
(0 0 0)
(0 0 0)
(0 0 0)
(0 0 0)
(0 0 0)
(0 0 0)
(0 0 0)
(0 0 0)
(0 0 0)
(0 0 0)
(0 0 0)
(0 0 0)
(0 0 0)
(0 0 0)
(0 0 0)
(0 0 0)
(0 0 0)
(0 0 0)
(0 0 0)
(0 0 0)
(0 0 0)
(0 0 0)
(0 0 0)
(0 0 0)
(0 0 0)
(0 0 0)
(0 0 0)
(0 0 0)
(0 0 0)
(0 0 0)
(0 0 0)
(0 0 0)
(0 0 0)
(0 0 0)
(0 0 0)
(0 0 0)
(0 0 0)
(0 0 0)
(0 0 0)
(0 0 0)
(0 0 0)
(0 0 0)
(0 0 0)
(0 0 0)
(0 0 0)
(0 0 0)
(0 0 0)
(0 0 0)
(0 0 0)
(0 0 0)
(0 0 0)
(0 0 0)
(0 0 0)
(0 0 0)
(0 0 0)
(0 0 0)
(0 0 0)
(0 0 0)
(0 0 0)
(0 0 0)
(0 0 0)
(0 0 0)
(0 0 0)
(0 0 0)
(0 0 0)
(0 0 0)
(0 0 0)
(0 0 0)
(0 0 0)
(0 0 0)
(0 0 0)
(0 0 0)
(0 0 0)
(0 0 0)
(0 0 0)
(0 0 0)
(0 0 0)
(0 0 0)
(0 0 0)
(0 0 0)
(0 0 0)
(0 0 0)
(0 0 0)
(0 0 0)
(0 0 0)
(0 0 0)
(0 0 0)
(0 0 0)
(0 0 0)
(0 0 0)
(0 0 0)
(0 0 0)
(0 0 0)
(0 0 0)
(0 0 0)
(0 0 0)
(0 0 0)
(0 0 0)
(0 0 0)
(0 0 0)
(0 0 0)
(0 0 0)
(0 0 0)
(0 0 0)
(0 0 0)
(0 0 0)
(0 0 0)
(0 0 0)
(0 0 0)
(0 0 0)
(0 0 0)
(0 0 0)
(0 0 0)
(0 0 0)
(0 0 0)
(0 0 0)
(0 0 0)
(0 0 0)
(0 0 0)
(0 0 0)
(0 0 0)
(0 0 0)
(0 0 0)
(0 0 0)
(0 0 0)
(0 0 0)
(0 0 0)
(0 0 0)
(0 0 0)
(0 0 0)
(0 0 0)
(0 0 0)
(0 0 0)
(0 0 0)
(0 0 0)
(0 0 0)
(0 0 0)
(0 0 0)
(0 0 0)
(0 0 0)
(0 0 0)
(0 0 0)
(0 0 0)
(0 0 0)
(0 0 0)
(0 0 0)
(0 0 0)
(0 0 0)
(0 0 0)
(0 0 0)
(0 0 0)
(0 0 0)
(0 0 0)
(0 0 0)
(0 0 0)
(0 0 0)
(0 0 0)
(0 0 0)
(0 0 0)
(0 0 0)
(0 0 0)
(0 0 0)
(0 0 0)
(0 0 0)
(0 0 0)
(0 0 0)
(0 0 0)
(0 0 0)
(0 0 0)
(0 0 0)
(0 0 0)
(0 0 0)
(0 0 0)
(0 0 0)
(0 0 0)
(0 0 0)
(0 0 0)
(0 0 0)
(0 0 0)
(0 0 0)
(0 0 0)
(0 0 0)
(0 0 0)
(0 0 0)
(0 0 0)
(0 0 0)
(0 0 0)
(0 0 0)
(0 0 0)
(0 0 0)
(0 0 0)
)
;

boundaryField
{
    inlet
    {
        type            zeroGradient;
    }
    outlet
    {
        type            zeroGradient;
    }
    wall
    {
        type            zeroGradient;
    }
    procBoundary0to1
    {
        type            processor;
        value           nonuniform List<vector> 
192
(
(-0.000136927 -0.000193714 -7.80997e-05)
(-0.000145951 -0.000599168 -0.000338165)
(2.2763e-05 0.000104012 -6.65051e-05)
(-2.61655e-05 3.86532e-05 3.20254e-05)
(-0.000704263 -0.00102576 0.0055127)
(0.0016664 0.000264923 0.0121068)
(0.000732562 0.000792069 0.0134651)
(0.00224973 0.000756567 0.0127364)
(0.000842893 0.00120161 0.0165355)
(0.00119219 0.00120103 0.0177295)
(0.000989696 0.000616095 0.017693)
(0.00102413 -0.00011249 0.0180934)
(0.000414159 0.00125663 0.0171826)
(0.00016591 0.000864563 0.0181839)
(0.000948085 0.000264754 0.0189573)
(0.000919828 0.000231634 0.0196814)
(-1.96988e-05 0.000416566 0.0189217)
(0.000484717 -0.000248698 0.0187072)
(0.000597926 -0.000247479 0.0192287)
(-0.000763476 0.000433444 0.0199469)
(0.000596309 -0.00118475 0.0186569)
(0.000401224 -0.000766288 0.018781)
(-0.000236591 -0.000680679 0.018791)
(-0.000290298 -0.000451793 0.0195945)
(0.000962443 -0.000865984 0.017977)
(-0.000239084 -0.000567414 0.0189209)
(-0.000301715 -0.000489983 0.0185128)
(-0.000165015 -0.000340129 0.0194358)
(0 0 0)
(-2.97612e-05 -0.000916394 0.0190557)
(0.000414263 -0.000336733 0.018172)
(-3.24651e-05 -0.00067647 0.0192067)
(0 0 0)
(0 0 0)
(0 0 0)
(0 0 0)
(0 0 0)
(0 0 0)
(0 0 0)
(0 0 0)
(0 0 0)
(0 0 0)
(0 0 0)
(0 0 0)
(0 0 0)
(0 0 0)
(0 0 0)
(0 0 0)
(0 0 0)
(0 0 0)
(0 0 0)
(0 0 0)
(0 0 0)
(0 0 0)
(0 0 0)
(0 0 0)
(0 0 0)
(0 0 0)
(0 0 0)
(0 0 0)
(0 0 0)
(0 0 0)
(0 0 0)
(0 0 0)
(0 0 0)
(0 0 0)
(0 0 0)
(0 0 0)
(0 0 0)
(0 0 0)
(0 0 0)
(0 0 0)
(0 0 0)
(0 0 0)
(0 0 0)
(0 0 0)
(0 0 0)
(0 0 0)
(0 0 0)
(0 0 0)
(0 0 0)
(0 0 0)
(0 0 0)
(0 0 0)
(0 0 0)
(0 0 0)
(0 0 0)
(0 0 0)
(0 0 0)
(0 0 0)
(0 0 0)
(0 0 0)
(0 0 0)
(0 0 0)
(0 0 0)
(0 0 0)
(-5.37994e-05 0.000447851 -7.2406e-05)
(-0.000354743 0.000265966 6.56898e-06)
(-0.000471929 0.000800072 -7.60977e-05)
(-0.000372041 7.5222e-05 -0.000245374)
(-0.000336078 0.000572667 0.0120957)
(-0.000869371 1.89396e-05 0.0120488)
(-8.62367e-05 -0.000918321 0.013529)
(-0.000655281 -0.0027841 0.0131178)
(0.00163763 0.000721849 0.0146414)
(0.000552377 0.000145845 0.0178572)
(0.000984896 -0.000115322 0.016477)
(0.000201592 0.000654471 0.0154766)
(-0.00104055 -0.000270486 0.0143086)
(-0.000828571 0.000979048 0.016839)
(0.000433159 0.00138332 0.016316)
(0.000568149 0.00150669 0.0163222)
(-0.000672097 8.9025e-05 0.0114217)
(-0.000144115 0.000621986 0.0156287)
(0.000558127 0.000955181 0.0175687)
(0.000286128 0.00119961 0.0173459)
(0.000693271 0.000751229 0.0120642)
(-3.30253e-05 -0.00106352 0.0160286)
(0.000873639 -0.000261717 0.0172082)
(0.000177494 -0.00130273 0.0186149)
(-0.00121385 0.000240772 0.0129502)
(0.000672657 0.00157608 0.0159193)
(0.00111892 -4.13448e-05 0.0173311)
(0.000606827 -0.00162392 0.0185795)
(0 0 0)
(0 0 0)
(0 0 0)
(0 0 0)
(0 0 0)
(0 0 0)
(0 0 0)
(0 0 0)
(0 0 0)
(0 0 0)
(0 0 0)
(0 0 0)
(0 0 0)
(0 0 0)
(0 0 0)
(0 0 0)
(0 0 0)
(0 0 0)
(0 0 0)
(0 0 0)
(0 0 0)
(0 0 0)
(0 0 0)
(0 0 0)
(0 0 0)
(0 0 0)
(0 0 0)
(0 0 0)
(0 0 0)
(0 0 0)
(0 0 0)
(0 0 0)
(0 0 0)
(0 0 0)
(0 0 0)
(0 0 0)
(0 0 0)
(0 0 0)
(0 0 0)
(0 0 0)
(0 0 0)
(0 0 0)
(0 0 0)
(0 0 0)
(0 0 0)
(0 0 0)
(0 0 0)
(0 0 0)
(0 0 0)
(0 0 0)
(0 0 0)
(0 0 0)
(0 0 0)
(0 0 0)
(0 0 0)
(0 0 0)
(0 0 0)
(0 0 0)
(0 0 0)
(0 0 0)
(0 0 0)
(0 0 0)
(0 0 0)
(0 0 0)
(0 0 0)
(0 0 0)
(0 0 0)
(0 0 0)
)
;
    }
    procBoundary0to2
    {
        type            processor;
        value           nonuniform List<vector> 
192
(
(0.000171653 0.0002228 -3.36377e-05)
(-2.3658e-05 6.1946e-06 0.00016721)
(0.00020378 -6.89095e-05 0.000121052)
(3.84778e-05 3.14841e-05 -0.000110017)
(0.00061895 0.00119672 0.0122869)
(0.00137957 0.00261812 0.013713)
(0.0011779 0.00123253 0.0157861)
(0.000515197 0.00082322 0.0144741)
(0.000174305 0.000408928 0.0146973)
(0.000584316 -0.000658673 0.0184772)
(0.00144098 -0.000224041 0.0185275)
(-0.00103966 0.000560741 0.0174772)
(0.00143163 0.00114788 0.0180781)
(0.000656088 0.000737032 0.0194838)
(0.000718564 0.000284237 0.0186456)
(0.000408404 0.000440821 0.0189298)
(0.00126307 -0.000103533 0.018841)
(0.000920457 -5.78165e-05 0.0194109)
(0.000307093 -2.23329e-05 0.0190308)
(2.71543e-06 -9.82538e-05 0.0192863)
(0.00113812 -0.000194658 0.0188775)
(0.000260608 -0.000394764 0.0193622)
(0.000173588 -4.42258e-05 0.0194305)
(-0.000265322 -0.000209171 0.0194006)
(-8.18498e-06 -0.000172562 0.018987)
(-0.00053939 -0.000266818 0.0191402)
(-0.000386994 5.14685e-05 0.0192302)
(-0.000349798 -0.000157854 0.0193791)
(0 0 0)
(0 0 0)
(0 0 0)
(0 0 0)
(0 0 0)
(0 0 0)
(0 0 0)
(0 0 0)
(0 0 0)
(0 0 0)
(0 0 0)
(0 0 0)
(0 0 0)
(0 0 0)
(0 0 0)
(0 0 0)
(0 0 0)
(0 0 0)
(0 0 0)
(0 0 0)
(0 0 0)
(0 0 0)
(0 0 0)
(0 0 0)
(0 0 0)
(0 0 0)
(0 0 0)
(0 0 0)
(0 0 0)
(0 0 0)
(0 0 0)
(0 0 0)
(0 0 0)
(0 0 0)
(0 0 0)
(0 0 0)
(0 0 0)
(0 0 0)
(0 0 0)
(0 0 0)
(0 0 0)
(0 0 0)
(0 0 0)
(0 0 0)
(0 0 0)
(0 0 0)
(0 0 0)
(0 0 0)
(0 0 0)
(0 0 0)
(0 0 0)
(0 0 0)
(0 0 0)
(0 0 0)
(0 0 0)
(0 0 0)
(0 0 0)
(0 0 0)
(0 0 0)
(0 0 0)
(0 0 0)
(0 0 0)
(0 0 0)
(0 0 0)
(0 0 0)
(0 0 0)
(0 0 0)
(0 0 0)
(3.14647e-05 -4.84181e-05 0.000125758)
(0.000975541 8.5367e-05 -0.000141976)
(0.000251564 0.000132244 8.00756e-05)
(0.000243598 0.000163626 1.08153e-05)
(-0.000582705 0.000225543 0.0110049)
(-0.000689924 0.000209985 0.0134247)
(-0.000564052 0.000378148 0.0148294)
(-0.00103603 -3.28233e-05 0.00899826)
(-0.000413342 0.0016114 0.0135833)
(-0.00151875 0.000314172 0.0148269)
(-0.000769872 -0.00114319 0.0163471)
(0.000958513 -0.000167999 0.0158326)
(0.000753826 -0.00132562 0.0155782)
(0.00195527 0.000483569 0.0167033)
(0.00280886 -0.000994772 0.0166965)
(0.00244926 0.000231215 0.0176201)
(0.000405644 -0.00101452 0.0135655)
(0.000929586 0.00115307 0.0172152)
(0.0025963 0.000770703 0.0171544)
(0.00203256 -0.000138987 0.0182731)
(0.000389613 -0.00174403 0.0123986)
(0.000488443 0.000327371 0.0162094)
(0.000767902 6.75365e-06 0.0178437)
(0.00107032 0.000296933 0.018018)
(1.88066e-05 0.000673955 0.0115914)
(0.000691322 -0.000292565 0.0163747)
(0.000738644 -0.000967027 0.017459)
(-0.000459758 0.000262115 0.01738)
(-0.000781317 0.00114508 0.0121831)
(0 0 0)
(0 0 0)
(0 0 0)
(0 0 0)
(0 0 0)
(0 0 0)
(0 0 0)
(0 0 0)
(0 0 0)
(0 0 0)
(0 0 0)
(0 0 0)
(0 0 0)
(0 0 0)
(0 0 0)
(0 0 0)
(0 0 0)
(0 0 0)
(0 0 0)
(0 0 0)
(0 0 0)
(0 0 0)
(0 0 0)
(0 0 0)
(0 0 0)
(0 0 0)
(0 0 0)
(0 0 0)
(0 0 0)
(0 0 0)
(0 0 0)
(0 0 0)
(0 0 0)
(0 0 0)
(0 0 0)
(0 0 0)
(0 0 0)
(0 0 0)
(0 0 0)
(0 0 0)
(0 0 0)
(0 0 0)
(0 0 0)
(0 0 0)
(0 0 0)
(0 0 0)
(0 0 0)
(0 0 0)
(0 0 0)
(0 0 0)
(0 0 0)
(0 0 0)
(0 0 0)
(0 0 0)
(0 0 0)
(0 0 0)
(0 0 0)
(0 0 0)
(0 0 0)
(0 0 0)
(0 0 0)
(0 0 0)
(0 0 0)
(0 0 0)
(0 0 0)
(0 0 0)
(0 0 0)
)
;
    }
}


// ************************************************************************* //
