/*--------------------------------*- C++ -*----------------------------------*\
| =========                 |                                                 |
| \\      /  F ield         | OpenFOAM: The Open Source CFD Toolbox           |
|  \\    /   O peration     | Version:  2506                                  |
|   \\  /    A nd           | Website:  www.openfoam.com                      |
|    \\/     M anipulation  |                                                 |
\*---------------------------------------------------------------------------*/
FoamFile
{
    version     2.0;
    format      ascii;
    arch        "LSB;label=32;scalar=64";
    class       surfaceScalarField;
    location    "0.004";
    object      phi;
}
// * * * * * * * * * * * * * * * * * * * * * * * * * * * * * * * * * * * * * //

dimensions      [0 3 -1 0 0 0 0];

oriented        oriented;

internalField   nonuniform List<scalar> 
1200
(
0.00172655
6.44955e-06
1.23554e-05
0.00174028
-1.05396e-05
-3.1881e-06
0.00179713
-2.38365e-05
-3.30174e-05
0.00176517
1.79272e-05
1.40345e-05
0.00168355
3.81383e-05
4.34877e-05
0.00169561
-1.07278e-05
-1.33354e-06
0.0017611
-4.32866e-05
-2.22104e-05
0.00174419
-2.42149e-06
1.93409e-05
0.00171343
3.84908e-06
2.69026e-05
0.00174194
-1.07466e-05
-1.77549e-05
0.00178924
-1.26025e-05
-3.47019e-05
0.00180056
-6.74627e-06
-4.57606e-06
0.00178613
3.03329e-06
1.13966e-05
0.00179319
8.64578e-06
-1.57038e-05
0.00180544
8.0237e-06
-2.02749e-05
0.00179518
7.09699e-06
3.1653e-06
0.0017893
8.59873e-06
-2.721e-06
0.00177847
1.02301e-05
6.04783e-07
0.00178666
2.543e-06
-1.0738e-05
0.0018124
-1.82194e-06
-2.39155e-05
0.00183781
8.19246e-07
-2.62338e-05
0.00183388
-3.60015e-06
7.53618e-06
0.00183069
-1.96285e-05
2.28154e-05
0.00187341
-1.58986e-05
-2.68209e-05
0.00191403
9.52493e-07
-4.15677e-05
0.00189089
1.37558e-05
9.37998e-06
0.00186326
7.63769e-06
1.999e-05
0.00185101
-1.37295e-06
1.36258e-05
0.00183436
1.79261e-06
1.48551e-05
0.00181082
5.09642e-06
1.84407e-05
0.00177116
1.14555e-05
2.82057e-05
1.13864e-05
1.98931e-05
0.00171276
1.24524e-05
1.52748e-05
0.00173326
-1.63391e-05
-1.47027e-05
0.0017412
-1.22858e-05
-1.94877e-05
0.00176218
-1.63977e-06
-1.42159e-06
0.00177971
1.10086e-05
9.60689e-06
0.00176739
-2.84013e-06
4.42547e-06
0.00174256
-2.35437e-05
5.08834e-06
0.00173488
-1.49005e-05
2.01664e-05
0.00172433
-6.79909e-06
2.11888e-05
0.00175634
-2.49395e-05
-1.78115e-05
0.00180106
-2.50998e-05
-3.22189e-05
0.00180718
-9.07451e-06
-3.79402e-06
0.00179373
1.0914e-05
5.56886e-06
0.00180972
1.45228e-05
-2.18704e-05
0.00182765
8.92451e-06
-1.8826e-05
0.00183955
-1.1091e-05
6.28754e-06
0.00187152
-1.46303e-05
-8.74769e-06
0.00187104
1.84917e-05
-7.77957e-06
0.00185852
1.82167e-05
-3.1527e-06
0.00185672
2.20387e-05
-2.20622e-05
0.00187629
1.2153e-05
-3.08986e-05
0.0018964
-1.94416e-05
-4.26884e-06
0.0018905
-3.66932e-05
2.29577e-05
0.0019095
-1.89703e-05
-1.59217e-05
0.0019522
-4.85751e-06
-3.68872e-05
0.00196071
-2.88305e-06
8.12624e-06
0.0019427
4.33625e-06
2.13119e-05
0.00189991
2.17677e-05
1.96487e-05
0.00186245
2.25313e-05
1.67246e-05
0.00183325
1.74531e-05
1.68351e-05
0.00178829
2.88339e-05
2.75855e-05
3.63072e-05
2.93341e-05
0.00176149
2.91863e-05
1.22342e-05
0.00172197
1.70856e-05
6.09395e-06
0.00173968
-1.44005e-05
-1.55975e-05
0.00176555
-1.93472e-05
-8.15613e-06
0.00177003
-2.245e-06
8.76723e-06
0.00177457
-1.52642e-05
7.88496e-06
0.00177378
-2.95706e-05
6.8204e-06
0.00177476
-3.23415e-05
1.64622e-05
0.00175526
-7.06354e-06
1.97609e-05
0.00175082
-1.07883e-05
-9.7093e-06
0.00176967
-2.2773e-05
-2.11737e-05
0.00178419
-2.08989e-05
-2.69718e-06
0.00177411
2.01881e-05
8.01244e-07
0.00179917
2.17846e-05
-3.23188e-05
0.00182985
-3.06721e-06
-1.86929e-05
0.00184258
-3.25307e-05
8.71445e-06
0.00185977
-2.73274e-05
-4.49276e-06
0.00184891
3.16369e-05
-2.28368e-06
0.00183418
4.27124e-05
-9.76949e-06
0.0018825
3.57265e-06
-2.98506e-05
0.00193145
-8.38131e-06
-2.84181e-05
0.00193335
-1.58995e-05
-5.44483e-06
0.0019086
-2.81221e-05
1.61851e-05
0.00192187
-2.85876e-05
-3.65605e-06
0.00195933
-2.65395e-05
-1.5775e-05
0.0019761
-2.25405e-05
2.88968e-06
0.00195369
1.3436e-05
1.33021e-05
0.00190853
4.7419e-05
1.95125e-05
0.00186723
4.82927e-05
1.55383e-05
0.00183495
3.46069e-05
1.51234e-05
0.00180202
3.939e-05
2.23794e-05
3.06406e-05
1.72258e-05
0.00178725
3.3727e-05
3.90838e-06
0.00179239
2.92375e-05
-1.72885e-05
0.0017633
2.46313e-05
-9.94162e-06
0.00171947
1.09245e-05
1.35594e-05
0.00173213
-2.54516e-05
1.05446e-05
0.00178378
-7.12382e-05
4.32566e-06
0.00180288
-5.63957e-05
7.71809e-06
0.00178517
-3.33196e-05
1.86964e-05
0.00174934
2.02578e-05
8.50858e-06
0.00173987
9.87061e-06
-1.11924e-05
0.00175461
-2.71659e-05
-1.03514e-05
0.00173319
-1.69261e-05
1.74522e-05
0.00176001
2.28443e-06
-8.91635e-06
0.00182964
2.40489e-07
-4.80907e-05
0.00184684
-8.33678e-06
-1.19302e-05
0.00180227
-8.411e-06
2.0449e-05
0.00176674
-3.48872e-06
1.16982e-05
0.0017988
1.15224e-05
-1.19475e-05
0.00185257
1.47713e-05
-2.58286e-05
0.00187264
-8.27651e-06
-8.2217e-06
0.00190055
-1.79358e-05
-1.83557e-05
0.0019227
-2.62803e-05
-1.17664e-05
0.00191413
-2.61584e-05
6.60878e-06
0.00190979
-2.47127e-05
4.64469e-07
0.00190127
-1.04528e-05
-7.57324e-06
0.0018896
-9.87676e-06
-9.92603e-07
0.00189813
-3.73352e-06
8.64029e-06
0.00189799
2.80675e-05
1.94904e-05
0.00186837
5.9491e-05
1.84271e-05
0.00183991
5.07541e-05
1.23097e-05
0.00181736
4.60404e-05
1.59004e-05
3.89443e-05
1.33541e-05
0.00173784
6.89139e-05
6.20068e-07
0.00175437
2.46229e-05
-1.19153e-05
0.00178538
-7.57532e-07
-5.62231e-06
0.00180807
-1.17628e-05
-7.75334e-09
0.00183345
-5.29513e-05
2.11848e-06
0.00181596
-5.55058e-05
1.75774e-06
0.00177544
-3.22164e-05
1.63427e-05
0.00174937
-2.43667e-05
1.71225e-05
0.00177726
-1.80003e-06
-5.83278e-06
0.00180624
5.40745e-06
-2.45194e-05
0.00178698
-7.41664e-06
-4.86776e-07
0.00175074
-5.12334e-06
2.44298e-05
0.00176819
-1.71253e-06
-1.34531e-05
0.00181937
-8.31688e-06
-4.26233e-05
0.00182109
-1.13871e-05
1.33166e-06
0.00179319
2.88897e-06
1.66014e-05
0.00177289
1.00122e-05
6.80464e-06
0.00179452
7.24403e-06
-1.73566e-05
0.00183514
2.96558e-07
-2.61432e-05
0.00186008
-2.47963e-05
-8.42171e-06
0.00189409
-2.62983e-05
-2.56448e-05
0.00191444
-3.56307e-05
-1.10059e-05
0.00189306
-1.81366e-05
1.33649e-05
0.00187741
-1.28224e-05
3.75727e-06
0.00186368
-1.81666e-06
5.09671e-06
0.0018546
-1.0984e-05
1.01836e-05
0.00186432
-2.14924e-05
8.03572e-06
0.00188184
2.90799e-06
7.64461e-06
0.00186976
5.87461e-05
1.28211e-05
0.00184881
6.04761e-05
1.12268e-05
0.00183374
4.45332e-05
1.65768e-05
7.83307e-05
2.07153e-05
0.00182919
4.3211e-05
-2.71386e-05
0.00187112
1.57513e-05
-3.30655e-05
0.00186088
1.02712e-05
-7.87593e-07
0.00186455
-2.19402e-05
6.50767e-06
0.0018518
-4.30693e-05
2.87158e-06
0.00182192
-3.51836e-05
9.55988e-06
0.00179254
-2.5071e-05
2.22304e-05
0.00176788
-1.33637e-05
1.36573e-05
0.00178114
-4.37004e-06
-1.06892e-05
0.00180727
2.12295e-06
-2.28499e-05
0.00179333
1.81678e-06
4.71354e-06
0.0017618
8.48107e-07
2.55581e-05
0.00177382
1.45738e-07
-1.38821e-05
0.00180532
-8.22933e-06
-3.15865e-05
0.00180624
-2.27904e-05
1.0486e-05
0.00181904
-1.49875e-05
5.07104e-06
0.00180727
2.90228e-05
-7.24207e-06
0.00179875
2.28908e-05
-7.12622e-06
0.00181906
-7.16235e-06
-1.28428e-05
0.0018498
-3.83202e-05
-1.72162e-05
0.00189258
-3.80612e-05
-3.10221e-05
0.00191917
-4.29058e-05
-1.93111e-05
0.00187815
5.14742e-07
2.23625e-05
0.00184235
-1.99161e-07
2.31835e-05
0.0018431
-1.08597e-05
8.28562e-06
0.0018402
-1.04909e-05
2.40655e-06
0.00182947
-2.13803e-05
1.06199e-05
0.00182146
5.55744e-06
5.36233e-06
0.00181366
6.58032e-05
7.45538e-07
0.00177779
8.62149e-05
1.01246e-05
0.00175167
4.13231e-05
2.93378e-05
3.84006e-05
1.52521e-05
0.00190086
4.19078e-05
-1.44976e-05
0.00189806
1.86773e-05
-1.1858e-07
0.00190216
-1.2411e-05
1.85769e-05
0.00190065
-2.38102e-05
3.37935e-06
0.00187147
-1.09647e-05
-2.9187e-06
0.00183779
-1.0431e-05
8.92455e-06
0.00180901
-1.59157e-05
1.9626e-05
0.00178798
-6.30315e-06
1.39643e-05
0.00178822
2.57622e-06
-7.18259e-06
0.00180635
6.70703e-06
-2.27116e-05
0.00180118
2.80625e-06
4.17705e-06
0.0017774
8.24276e-07
2.38036e-05
0.00178892
3.2605e-07
-1.1704e-05
0.00180852
-2.29921e-06
-2.553e-05
0.00179567
-1.10154e-05
1.08014e-06
0.00177007
-8.02857e-06
1.86367e-05
0.00178159
1.76443e-05
-1.36285e-07
0.00181452
1.26239e-05
-2.26667e-05
0.00182571
-8.5643e-06
-9.78775e-06
0.00180515
-1.88702e-05
1.11457e-06
0.00181135
-2.34043e-05
-2.08588e-05
0.00180735
-3.01583e-05
-8.75268e-06
0.00179017
-3.35911e-07
1.80318e-05
0.00177663
5.08152e-06
8.26255e-06
0.00177526
-2.07427e-06
-7.41504e-06
0.00176852
-3.87791e-06
1.27827e-07
0.00175248
-1.20247e-05
6.68335e-06
0.0017721
-1.72887e-05
3.22853e-06
0.00183321
3.01339e-06
1.68139e-06
0.00187984
3.59083e-05
3.67121e-06
0.00187816
3.84017e-05
4.60451e-06
3.24591e-05
-9.63278e-07
0.00190329
-2.88049e-05
0.00191268
9.28643e-06
0.00186416
3.61052e-05
0.00183224
8.11293e-06
0.00183356
-1.22878e-05
0.00182413
-9.95807e-07
0.00178629
2.19219e-05
0.00176229
1.76924e-05
0.00176723
-2.35532e-06
0.00178994
-1.60121e-05
0.00179101
1.73833e-06
0.00177169
2.01506e-05
0.00177837
-6.35532e-06
0.00179418
-1.81113e-05
0.00177579
7.37608e-06
0.00174648
2.12834e-05
0.00177547
-1.13497e-05
0.00182249
-3.43993e-05
0.00181938
-5.4548e-06
0.00178797
1.25436e-05
0.00177826
-1.36966e-05
0.00174865
-5.45468e-07
0.00173446
1.38525e-05
0.00174197
-2.43045e-06
0.00175344
-1.35385e-05
0.00175064
-1.08203e-06
0.00173369
4.92299e-06
0.00171378
2.62414e-06
0.00171133
5.46879e-06
0.00173625
1.09843e-05
0.00178341
-8.75596e-06
-1.67076e-05
0.00171835
3.58498e-06
0.0017525
-2.39329e-05
0.0017546
-1.07109e-05
0.0017695
4.66553e-06
0.00178676
6.6374e-06
0.00177909
-5.00648e-06
0.00177285
-1.48866e-05
0.00178028
-5.08375e-06
0.00179583
-5.50113e-06
0.00180899
-8.60194e-06
0.00182276
-7.32956e-06
0.00184413
-5.1496e-06
0.00184226
-1.56205e-06
0.00182949
2.78986e-07
0.00182872
7.51792e-06
0.00184293
1.3245e-05
0.00184453
8.84698e-06
0.00185666
-4.28932e-07
0.00185227
-3.22948e-06
0.00181435
5.37344e-06
0.00177973
7.78959e-06
0.00181046
-7.7775e-06
0.0018609
-1.58423e-05
0.00186052
-1.47952e-05
0.00182486
6.58458e-06
0.00182453
1.3057e-05
0.00183456
5.75076e-06
0.00184661
-1.35237e-07
0.0018434
3.24205e-06
0.00181846
2.88155e-06
0.0017795
1.13272e-05
2.06058e-05
0.00175662
1.87882e-05
0.00172659
-2.7125e-06
0.00175568
-2.48221e-05
0.00178621
-1.10938e-05
0.00178832
5.1667e-06
0.00178911
-7.0898e-06
0.00180278
-2.37522e-05
0.0018136
-1.62004e-05
0.00182214
-1.13217e-05
0.0018313
-1.50553e-05
0.00184721
-1.80246e-05
0.00186152
-8.5395e-06
0.00185239
6.56964e-06
0.00184076
3.92388e-06
0.00184987
2.12342e-06
0.00189816
-4.38572e-06
0.00191019
3.53656e-06
0.00188396
2.23177e-05
0.00186512
1.72792e-05
0.00183039
1.49525e-05
0.0017816
2.66604e-05
0.00181714
-2.72437e-05
0.00189024
-5.48209e-05
0.00188502
-1.75359e-05
0.00185099
1.66693e-05
0.00188578
-7.81239e-06
0.00190787
-3.80418e-06
0.0018983
1.92896e-05
0.00187963
2.13388e-05
0.00184572
1.33073e-05
0.00181626
2.06102e-05
2.76215e-05
0.00179949
1.72868e-05
0.00179047
8.35868e-06
0.00177046
2.05977e-06
0.00174754
5.53044e-06
0.00176116
-4.20484e-06
0.0017995
-3.99536e-05
0.00181297
-3.29322e-05
0.00181623
-2.15202e-05
0.00182877
-2.21743e-05
0.00183416
-2.18591e-05
0.00182232
-4.15063e-06
0.00181944
3.26124e-06
0.00183051
4.56495e-06
0.00182254
1.17232e-06
0.00182898
-2.36177e-06
0.0018587
-7.48391e-06
0.00187588
-5.88805e-06
0.00190976
2.3347e-06
0.00191438
2.21585e-05
0.00188283
2.71695e-05
0.00189545
1.02034e-05
0.00190572
-2.60085e-05
0.00190611
-4.94762e-05
0.00193793
-3.69755e-05
0.00198479
-1.89549e-05
0.00199026
-1.8187e-05
0.00196548
1.57436e-05
0.00192733
4.72016e-05
0.00188637
4.76648e-05
0.00185504
3.04539e-05
0.00182685
3.54128e-05
2.64026e-05
0.00176518
3.3291e-05
0.00175166
1.63313e-05
0.00174729
1.09573e-05
0.0017846
-8.96551e-06
0.00181382
-2.42303e-05
0.00182364
-4.83525e-05
0.00181951
-3.67625e-05
0.00182701
-2.4505e-05
0.00181147
-9.05278e-06
0.00178835
-5.66602e-06
0.00179721
-8.836e-06
0.00183326
-6.05284e-06
0.00184553
-2.7616e-06
0.00182609
-5.3092e-07
0.00183828
-3.18938e-06
0.00187021
-5.10735e-06
0.00187094
-9.69131e-07
0.00185214
2.19279e-06
0.00185218
6.56433e-06
0.00190351
-9.54165e-07
0.0019518
-2.40924e-05
0.00194726
-2.96489e-05
0.00192224
-2.98285e-05
0.00192028
-2.60962e-05
0.00190398
-2.76608e-06
0.00186123
1.95506e-06
0.0018723
-6.70958e-07
0.00189722
2.25673e-05
0.00188408
5.43393e-05
0.00186341
4.44458e-05
0.00184375
4.59581e-05
4.87705e-05
0.00178552
5.47464e-05
0.00178327
2.45426e-05
0.00175934
2.26748e-05
0.00175384
-8.11785e-06
0.00181651
-6.68107e-05
0.00186341
-7.97512e-05
0.00184936
-3.04784e-05
0.00184663
-2.05934e-05
0.00184718
-1.15841e-05
0.00183438
-5.50815e-07
0.00184207
-5.09218e-06
0.00186064
-3.80116e-06
0.00185566
-8.51235e-07
0.00184014
-1.00995e-06
0.00186309
-9.04556e-07
0.00188725
-2.58471e-06
0.00187861
2.82808e-06
0.00185718
1.50542e-05
0.00186077
3.85051e-06
0.00189773
-3.206e-05
0.001902
-4.66251e-05
0.00189481
-3.30431e-05
0.00188648
-1.23788e-05
0.00185436
-9.46547e-07
0.00185265
-2.85758e-06
0.00186329
-1.2011e-05
0.0018735
-1.48758e-05
0.0018949
-2.83215e-06
0.00188766
5.34906e-05
0.00186402
6.02779e-05
0.00183591
5.38254e-05
7.64266e-05
0.00191904
4.50305e-05
0.00189527
3.0435e-05
0.00188425
2.5613e-05
0.00191665
-2.24765e-05
0.00191177
-4.56692e-05
0.00187494
-4.24512e-05
0.00187865
-3.46463e-05
0.00186776
-1.58453e-05
0.00184762
-6.28123e-06
0.00183811
1.99675e-06
0.00185191
2.27783e-07
0.00186695
8.80114e-07
0.00185627
7.12273e-07
0.00185159
-4.60344e-06
0.00189848
-9.87958e-06
0.00190625
-1.15209e-06
0.00187895
1.96154e-05
0.00189419
5.94787e-06
0.00191033
-1.06534e-05
0.00186839
-1.30598e-05
0.0018069
-2.24376e-05
0.0017666
-2.05427e-05
0.00178789
-1.01018e-05
0.00182971
-1.90658e-05
0.00186195
-2.52545e-05
0.00185616
-1.25113e-05
0.00186931
-2.67145e-05
0.00186277
3.48633e-06
0.00184801
6.38331e-05
0.00183382
7.86631e-05
0.00187425
2.57989e-05
3.80115e-05
0.00197199
2.50173e-05
0.00196426
2.75735e-05
0.00198484
6.87993e-06
0.00198172
-1.50739e-05
0.00194245
-1.59629e-05
0.0019097
-2.01904e-05
0.0018897
-1.89832e-05
0.00187531
-6.30634e-06
0.00185091
4.07021e-06
0.00182836
1.33475e-05
0.00184234
-4.97199e-07
0.00186225
4.81435e-07
0.00185254
2.61558e-06
0.00184196
-6.13932e-07
0.0018537
-1.46806e-06
0.00186849
2.70874e-07
0.00188705
4.29773e-06
0.00188559
2.01946e-07
0.00188302
-7.03981e-06
0.00187235
-6.69878e-06
0.00182191
-6.79133e-06
0.0017842
-5.73754e-06
0.00179465
-5.56738e-06
0.0018021
-1.21463e-05
0.00179226
-1.3365e-05
0.00178101
-6.13292e-06
0.00176869
-1.82583e-05
0.00179246
-2.11493e-05
0.00185842
2.92077e-06
0.00189945
4.16681e-05
0.00190304
3.21916e-05
1.39659e-05
0.00185864
0.00189719
0.00194373
0.00193991
0.0018826
0.0018223
0.00179133
0.00178765
0.00179192
0.00181128
0.00181808
0.00183406
0.00183397
0.0018245
0.00184179
0.0018625
0.00186442
0.00185228
0.00185854
0.00186171
0.00181766
0.00178145
0.00178423
0.00178611
0.00177743
0.00176487
0.00173279
0.00171083
0.00172447
0.00177908
0.00181805
)
;

boundaryField
{
    wall
    {
        type            calculated;
        value           uniform 0;
    }
    outlet
    {
        type            cyclic;
        value           nonuniform List<scalar> 
16
(
0.00173988
0.00173403
0.00179046
0.0017957
0.00177364
0.00177634
0.00188506
0.00183257
0.00172724
0.00179249
0.00181233
0.0017982
0.00180004
0.00191395
0.00194877
0.00184232
)
;
    }
    inlet
    {
        type            cyclic;
        value           nonuniform List<scalar> 
16
(
-0.00173988
-0.00173403
-0.00179046
-0.0017957
-0.00177364
-0.00177634
-0.00188506
-0.00183257
-0.00172724
-0.00179249
-0.00181233
-0.0017982
-0.00180004
-0.00191395
-0.00194877
-0.00184232
)
;
    }
    procBoundary0to1
    {
        type            processor;
        value           nonuniform List<scalar> 
256
(
1.76609e-05
-1.34092e-05
-2.43984e-05
-5.53466e-06
1.95859e-05
1.13462e-05
-1.08495e-06
1.69929e-05
1.68541e-05
-2.2309e-05
-4.11424e-05
-2.07939e-05
1.48234e-05
-3.21419e-06
-2.70183e-05
-2.42885e-05
-1.3173e-05
-1.10976e-05
-3.11571e-06
8.62723e-06
5.98824e-07
-1.54134e-05
-1.17825e-05
-1.16412e-05
-1.24934e-05
-3.34908e-06
4.20574e-06
1.71047e-06
1.48289e-05
4.04994e-05
5.58309e-05
5.15505e-05
3.59422e-05
-5.89208e-06
-3.44712e-05
-1.61949e-05
8.96713e-06
5.71903e-06
2.87565e-07
2.04643e-05
1.84659e-05
-2.05147e-05
-3.74326e-05
-1.47135e-05
6.56931e-06
-1.38931e-05
-2.2542e-05
-2.4371e-05
-1.54616e-05
-4.2992e-06
-4.8248e-06
3.091e-06
-9.78154e-07
-2.0342e-05
-1.11647e-05
-7.96363e-06
-1.29377e-05
-5.79915e-06
8.78666e-06
9.78859e-06
1.72998e-05
4.03155e-05
4.77612e-05
4.60926e-05
2.65756e-05
4.03556e-06
-2.24625e-05
-1.8636e-06
4.51918e-06
2.4123e-06
2.52395e-06
1.85231e-05
1.80734e-05
-8.29284e-06
-2.32119e-05
-1.16107e-05
-8.27328e-06
-2.15946e-05
-2.06484e-05
-1.7906e-05
-1.22463e-05
-1.61786e-05
-1.92717e-05
-1.05188e-05
-2.45787e-05
-1.695e-05
1.04538e-05
-1.60441e-05
-2.7005e-05
7.79057e-06
1.85371e-05
2.97516e-05
3.01664e-05
2.93105e-05
3.57648e-05
3.29705e-05
2.09262e-05
-1.17333e-05
-1.44697e-05
-9.25697e-06
1.34977e-06
2.90623e-06
1.56738e-05
1.41866e-05
1.09264e-05
-4.27304e-06
-1.45216e-05
-9.28328e-06
-1.38646e-05
-2.69437e-05
-2.32959e-05
-1.3851e-05
6.04364e-06
6.9994e-06
-1.02724e-05
-3.14318e-05
-3.2347e-05
-3.58762e-06
1.19821e-05
-8.4581e-06
-7.4586e-06
2.1617e-05
1.3985e-05
1.92009e-05
2.48956e-05
1.89846e-05
2.50131e-05
3.65326e-05
-6.31649e-06
-1.78772e-05
6.58604e-06
4.64366e-06
-1.79734e-05
-1.37369e-05
2.41073e-05
1.59439e-05
-3.85621e-06
-1.68303e-05
-1.19201e-05
3.60765e-06
-1.03888e-05
-2.66206e-05
-2.39002e-05
-1.00893e-05
1.16479e-05
-8.78379e-06
-2.702e-05
-1.42784e-05
-7.37623e-06
-4.25978e-07
4.24969e-06
1.07268e-05
6.89504e-06
1.35128e-05
1.20283e-05
1.16481e-05
2.09068e-05
1.90314e-05
3.68175e-05
2.8937e-05
-2.25146e-05
-1.51894e-05
7.2938e-06
-1.15357e-05
-1.33893e-05
9.09383e-06
2.26835e-05
1.98075e-05
4.14669e-06
-1.58904e-05
-1.44057e-05
5.83269e-06
-4.76229e-06
-2.33119e-05
-2.74272e-05
-4.12978e-06
3.26112e-06
-1.32554e-05
-1.44821e-05
5.72922e-06
6.27456e-06
8.49366e-06
-1.20294e-06
-5.18666e-07
-1.56369e-06
8.69959e-06
9.30678e-06
5.5851e-06
5.16554e-06
5.93423e-06
1.69318e-05
1.39679e-05
-1.77045e-05
1.04789e-05
1.67268e-05
-9.01724e-07
6.64334e-06
1.94153e-05
2.39576e-05
1.88142e-05
6.86842e-06
-1.15135e-05
-9.07572e-06
4.29364e-06
-3.89811e-06
-1.89404e-05
-1.90652e-05
2.41535e-06
-3.37671e-06
-1.54625e-05
-1.08249e-05
5.41604e-06
1.39442e-05
1.41482e-05
3.05142e-06
-6.11572e-06
-9.45558e-06
4.9946e-06
1.05432e-05
4.09728e-06
-3.36982e-06
-3.58583e-07
-5.37504e-06
-2.26534e-05
-2.01079e-05
-1.69134e-06
-3.54699e-06
-3.14286e-06
2.90557e-05
3.91189e-05
3.39102e-05
1.50599e-05
-2.55658e-06
-2.2018e-05
-5.56475e-06
4.65327e-06
-3.64462e-06
-9.25378e-06
-1.13837e-05
8.39716e-07
-8.97104e-06
-2.20591e-05
-1.87562e-05
2.67742e-06
2.35597e-05
2.99338e-05
5.50299e-06
-1.64555e-05
-1.8229e-05
5.34546e-06
1.87487e-05
3.42948e-06
-5.24781e-06
-1.96041e-06
-1.55306e-05
-2.70141e-05
)
;
    }
}


// ************************************************************************* //
