/*--------------------------------*- C++ -*----------------------------------*\
| =========                 |                                                 |
| \\      /  F ield         | OpenFOAM: The Open Source CFD Toolbox           |
|  \\    /   O peration     | Version:  2506                                  |
|   \\  /    A nd           | Website:  www.openfoam.com                      |
|    \\/     M anipulation  |                                                 |
\*---------------------------------------------------------------------------*/
FoamFile
{
    version     2.0;
    format      ascii;
    arch        "LSB;label=32;scalar=64";
    class       volVectorField;
    location    "0.004";
    object      U;
}
// * * * * * * * * * * * * * * * * * * * * * * * * * * * * * * * * * * * * * //

dimensions      [0 1 -1 0 0 0 0];

internalField   nonuniform List<vector> 
512
(
(10.5611 -0.00555764 0.0358887)
(10.2284 -0.0686164 -0.0488936)
(10.0064 -0.0602097 -0.063679)
(9.62546 0.0247535 -0.0068438)
(9.80923 0.145972 0.152578)
(9.88221 0.0529433 0.090042)
(9.41093 -0.10124 -0.0762741)
(9.15099 -0.0281125 0.0969515)
(9.70705 -0.00151887 0.123337)
(9.95827 -0.0293227 -0.0526483)
(9.67289 -0.0364002 -0.160334)
(9.48321 -0.0223511 0.00135191)
(9.7915 0.011869 0.0639903)
(9.96616 0.0256033 -0.0427073)
(9.76527 0.0126759 -0.0942781)
(9.59932 0.0302147 -0.0352959)
(9.623 0.0495344 0.00164954)
(9.68902 0.0608785 0.0376426)
(9.88351 0.0131596 0.00166269)
(9.96335 -0.0150065 -0.0433648)
(9.94802 -0.0120604 -0.193515)
(10.0259 -0.0161153 -0.0896083)
(10.022 -0.0535286 0.0961486)
(9.88659 -0.0455058 0.0174704)
(9.5207 -0.0111778 -0.080338)
(9.31705 0.032133 0.0424058)
(9.5319 0.026214 0.0502305)
(9.58303 0.00821636 0.0370409)
(9.42245 0.0111003 0.0510891)
(9.50738 0.0100842 0.0718425)
(10.1497 0.0375864 0.104622)
(10.7006 0.0272297 0.0643923)
(10.5413 0.0299492 0.0350692)
(10.3191 -0.105488 -0.0740636)
(9.85554 -0.164735 -0.100474)
(9.88883 0.0341022 -0.00924437)
(10.0989 0.214265 0.0627403)
(9.76474 0.0239361 0.0420085)
(9.31321 -0.205717 0.0173219)
(9.40283 -0.0821024 0.10052)
(9.72869 -0.0381537 0.128653)
(9.91133 -0.117438 -0.0536158)
(9.68057 -0.132896 -0.159005)
(9.63468 -0.0650585 0.0147288)
(9.90571 0.0380503 0.0551116)
(10.051 0.087074 -0.0655143)
(9.85034 0.0494 -0.0992934)
(9.70402 -0.0101605 -0.0270437)
(9.75332 0.00267779 -0.0102224)
(9.6993 0.151955 0.00540481)
(9.79508 0.105524 -0.0105993)
(10.0405 0.0460678 -0.0456823)
(10.0847 0.0205661 -0.165354)
(10.0908 -0.0412913 -0.101824)
(10.071 -0.160211 0.0838264)
(9.97397 -0.119544 0.0293111)
(9.69266 -0.0491613 -0.05412)
(9.54916 0.0161294 0.0486909)
(9.63686 0.0486133 0.0502169)
(9.49436 0.0859476 0.0481916)
(9.43273 0.0877935 0.0616446)
(9.6283 0.0572192 0.0599538)
(10.2928 0.117844 0.0921854)
(10.7391 0.15589 0.108617)
(10.5242 0.143582 0.0494187)
(10.2079 -0.00319996 0.0119175)
(9.92303 -0.0915578 -0.0538936)
(10.0036 -0.0773779 -0.0458283)
(10.1051 -0.0436248 0.0268968)
(9.62281 -0.124466 0.0384045)
(9.33082 -0.186524 0.0256468)
(9.47614 -0.0965647 0.0756715)
(9.66943 -0.0245727 0.117446)
(9.87113 -0.136885 -0.0296153)
(9.72601 -0.178452 -0.0877685)
(9.79319 -0.156054 0.00581738)
(9.98231 0.0727728 0.019586)
(9.98424 0.119757 -0.0991174)
(9.7833 0.0753309 -0.131258)
(9.68259 -0.115163 0.0048814)
(9.82293 -0.160175 -0.000304196)
(9.79034 0.11242 0.0173499)
(9.89443 0.192836 -0.0173127)
(10.0318 0.118613 -0.0878689)
(10.0375 0.0601061 -0.128415)
(9.77961 -0.0623814 -0.0644599)
(9.97386 -0.194591 0.0359879)
(10.0898 -0.168065 0.000730367)
(9.82942 -0.123624 -0.0182397)
(9.59322 -0.069891 0.021215)
(9.67033 0.0613726 0.0291602)
(9.55158 0.238884 0.0510577)
(9.4699 0.217426 0.0511841)
(9.6391 0.158432 0.0507465)
(10.3051 0.216157 0.0791358)
(10.653 0.237488 0.0652627)
(10.4234 0.164089 0.010405)
(10.1917 0.171808 -0.0616275)
(9.8364 0.0212314 -0.0949851)
(10.0083 -0.0101233 0.0622814)
(10.0638 -0.0989162 0.0970018)
(9.60052 -0.216836 0.0713906)
(9.37198 -0.261915 0.0356243)
(9.50977 -0.276622 0.0725021)
(9.73483 0.0341483 0.0518946)
(9.84186 0.0151239 -0.0319759)
(9.66305 -0.136138 -0.0107285)
(9.90543 -0.109941 0.0926463)
(10.1323 0.0644373 -0.0272525)
(10.0491 0.064573 -0.136351)
(9.44382 -0.0233687 -0.177579)
(9.49645 -0.135054 0.081811)
(9.95677 -0.132701 0.0930346)
(10.1411 0.0857402 -0.020024)
(9.95505 0.18197 -0.0970499)
(9.83522 0.00690705 -0.0662714)
(9.87111 -0.0695106 -0.0599574)
(9.71511 -0.131659 -0.0520277)
(9.98031 -0.165781 -0.00252242)
(10.1344 -0.167008 -0.0107452)
(9.71351 -0.116306 0.00749991)
(9.66637 -0.0968324 0.0112351)
(9.88796 0.0187109 0.00937263)
(9.86601 0.290239 0.0429704)
(9.50851 0.356117 0.0525042)
(9.61421 0.251031 0.0423443)
(10.1363 0.297008 0.0684867)
(10.5582 0.247728 0.0563148)
(10.3376 0.341603 0.014621)
(9.95961 0.237216 -0.028595)
(9.99769 0.128071 -0.0525684)
(10.179 0.0868265 -0.0713935)
(9.90378 -0.136755 -0.0101235)
(9.27272 -0.429941 0.0406486)
(9.34382 -0.334954 0.111374)
(9.76117 -0.196877 0.123403)
(9.97502 0.0282369 -0.00949435)
(9.85299 0.0728234 -0.12565)
(9.51953 -0.0884496 0.0324307)
(9.97307 -0.0584624 0.117115)
(10.2281 0.0032792 -0.0384555)
(10.0159 -0.0309084 -0.143215)
(9.47353 -0.11693 -0.115553)
(9.5473 0.009513 0.0837375)
(9.99453 0.0620817 0.0926299)
(10.1746 0.0508758 -0.0485401)
(9.90121 0.0269557 -0.1149)
(9.72978 -0.131195 -0.0649097)
(9.82106 -0.168062 -0.0885288)
(9.66815 -0.197067 -0.0652881)
(9.97438 -0.140393 -0.0205483)
(10.114 -0.123001 -0.0203714)
(9.75518 -0.0602358 0.0402479)
(9.79861 -0.0155814 0.0611449)
(10.0466 -0.0668552 0.0371135)
(10.0965 0.048464 0.0284874)
(9.59724 0.476162 0.0437311)
(9.6074 0.399299 0.0399776)
(9.91255 0.252114 0.0493347)
(10.4331 0.334114 0.0678274)
(10.4283 0.308241 -0.0561083)
(9.87714 0.0313052 -0.110904)
(9.68909 0.0682051 -0.0184738)
(9.78677 -0.0700607 -0.0098386)
(9.60044 -0.392048 0.0238532)
(9.26364 -0.384183 0.0246438)
(9.48205 -0.214448 0.103667)
(9.93599 -0.114691 0.0940458)
(10.0935 -0.0321719 -0.0333297)
(9.85706 -0.00648574 -0.136305)
(9.51146 -0.0233256 0.0428279)
(9.98192 -0.00856596 0.116921)
(10.213 0.00204771 -0.0298784)
(9.94406 -0.0519537 -0.124157)
(9.62333 -0.105246 -0.0313624)
(9.67436 -0.0540491 0.0349598)
(9.92162 0.12862 0.0316405)
(10.0013 0.0976577 -0.0251227)
(9.7891 0.00183287 -0.0580468)
(9.70757 -0.210632 -0.0740202)
(9.80138 -0.19915 -0.101126)
(9.76358 -0.307862 -0.177011)
(9.99746 -0.0824879 -0.00723217)
(10.0961 -0.0228272 0.0855585)
(9.85209 0.00142856 0.0929153)
(9.65806 -0.0686751 0.0588039)
(10.1256 -0.141641 0.0700207)
(10.2692 -0.0174378 0.0310948)
(10.001 0.291778 -0.00512004)
(9.47677 0.529 0.0241468)
(9.93637 0.368425 0.102857)
(10.4913 0.430322 0.0411048)
(10.2331 0.272536 -0.0335957)
(9.70903 0.121176 -0.00192613)
(9.58325 -0.0558527 0.0460556)
(9.72988 -0.215964 0.00901587)
(9.62601 -0.200343 0.0129554)
(9.35923 -0.132288 0.00607248)
(9.55576 -0.111483 0.07678)
(10.0131 -0.0608336 0.0774286)
(10.1626 -0.000955576 -0.0239994)
(9.85913 0.0278419 -0.124593)
(9.52689 0.0237326 0.0358111)
(9.96321 0.0186927 0.103727)
(10.1778 0.00271141 -0.0208152)
(9.92634 -0.0220517 -0.111776)
(9.52719 -0.121081 0.00638278)
(9.80443 -0.0941719 0.0820899)
(10.1016 0.132953 0.00937357)
(10.0022 0.132105 -0.0665177)
(9.51947 -0.0157391 -0.091462)
(9.58352 -0.162716 -0.0248005)
(9.67832 -0.198059 -0.0796013)
(9.99851 -0.265075 -0.100151)
(10.1988 -0.029953 0.0172976)
(10.1538 0.0194301 0.0342839)
(9.62973 -0.0163747 0.0187048)
(9.67374 -0.074189 0.0294905)
(10.2225 -0.101809 0.0389296)
(10.4594 -0.0406666 0.0127845)
(10.376 0.14273 -0.00143864)
(9.62244 0.367417 0.00383583)
(9.69628 0.275335 0.0272222)
(10.0693 0.275962 0.00691296)
(10.1234 0.125935 -0.118772)
(9.5971 0.0829855 -0.0181701)
(9.29383 0.00578852 0.0961628)
(9.56471 -0.0663875 0.0419199)
(9.65884 -0.0341384 0.00464705)
(9.32195 -0.0159417 0.000651753)
(9.4121 -0.0393046 0.0693788)
(9.97147 -0.0241278 0.061276)
(10.1838 0.0103598 -0.0136174)
(9.78177 0.0280562 -0.0926188)
(9.43095 0.0220739 0.0366993)
(9.85486 0.0140657 0.101361)
(10.0567 0.000916438 -0.00904351)
(9.82502 -0.00855807 -0.102483)
(9.43314 -0.0422603 0.047029)
(9.83077 -0.0227404 0.103439)
(10.1108 0.0571906 -0.0263894)
(9.93393 0.0532086 -0.117309)
(9.19909 -0.0281049 -0.105595)
(9.42428 -0.0590303 0.0123734)
(9.56988 -0.0815174 -0.0312659)
(10.0922 -0.101953 -0.0139136)
(10.2135 -0.00862274 0.0161581)
(10.1017 0.0126365 -0.0149873)
(9.28992 -0.0268325 -0.0260532)
(9.7273 -0.0349102 0.011504)
(10.2362 0.0179272 0.0116884)
(10.2431 -0.0693562 -0.00608343)
(10.1069 -0.0594723 0.00199671)
(9.8335 0.0350917 0.0647543)
(9.81101 0.113535 0.0117057)
(10.1351 0.108 -0.0479285)
(10.499 -0.00791033 0.0841225)
(10.3078 -0.100542 -0.030368)
(9.76396 -0.0829858 -0.22128)
(9.87261 0.0201373 -0.015666)
(10.1645 0.0592418 0.239836)
(9.83277 0.0175922 0.0909943)
(9.34007 -0.033925 -0.0596372)
(9.43837 -0.0153819 0.0702409)
(9.62959 -0.0178619 0.198455)
(9.70597 -0.0269232 -0.0170794)
(9.70346 -0.0277584 -0.267633)
(9.71019 -0.0168008 -0.146672)
(9.8641 -0.00118075 0.0869116)
(9.89927 -0.00235942 -0.030241)
(9.81464 0.0209456 -0.169481)
(9.72895 0.0373618 -0.0998375)
(9.72326 0.0327466 -0.0646538)
(9.79497 0.0151185 -0.0400144)
(9.86237 0.0166814 -0.0542245)
(9.71205 -0.000629451 -0.0985975)
(10.1599 -0.0123803 -0.0993785)
(10.4409 -0.0370787 0.00678313)
(10.2843 -0.053367 0.082688)
(9.52177 -0.0293861 -0.0288047)
(9.48595 0.0272851 -0.133572)
(9.67654 0.0431661 -0.0174111)
(9.69342 0.0229159 0.0622156)
(9.58907 0.0112294 0.0574776)
(9.49805 0.0201937 0.0973023)
(9.56751 -0.00132834 0.18925)
(10.2498 0.0260799 0.273541)
(10.7282 0.067884 0.237813)
(10.5797 0.0608261 0.183188)
(10.2928 -0.113915 -0.0678587)
(9.99002 -0.133803 -0.202461)
(10.0913 -0.0233491 -0.0911944)
(10.2411 0.0419982 0.0683058)
(9.80797 -0.0234665 0.0573482)
(9.4002 -0.110407 0.0426842)
(9.51645 -0.0680439 0.117192)
(9.68686 -0.0538717 0.199534)
(9.76818 -0.068802 -0.0130378)
(9.82554 -0.0800909 -0.242448)
(9.83908 -0.0623408 -0.112445)
(9.95708 0.00750029 0.0468124)
(9.98715 0.0104826 -0.0925039)
(9.93276 0.0351099 -0.162901)
(9.87348 0.0366736 -0.0896604)
(9.68574 0.0383012 -0.0899292)
(9.76417 0.0850126 -0.0375551)
(9.91672 0.0483119 -0.0155023)
(9.83312 0.0646013 -0.112874)
(10.2279 0.100655 -0.161512)
(10.4544 -0.110984 -0.0450813)
(10.3482 -0.222904 0.0741685)
(9.69189 -0.120995 0.0176687)
(9.61714 0.055502 -0.111875)
(9.81183 0.025499 -0.0237428)
(9.786 0.0200495 0.0771804)
(9.57517 0.0754551 0.106353)
(9.53826 0.0905929 0.111459)
(9.68836 0.0373449 0.181034)
(10.3813 0.0825296 0.237254)
(10.7357 0.164296 0.270089)
(10.4988 0.104702 0.141467)
(10.1868 0.0315228 0.0511475)
(9.9638 -0.0750428 -0.140877)
(10.1752 -0.00523066 -0.0831836)
(10.2526 -0.00442208 0.015966)
(9.79483 -0.115625 0.0400773)
(9.43146 -0.190198 0.0557172)
(9.54527 -0.126749 0.113666)
(9.69286 -0.0960874 0.185755)
(9.74564 -0.126321 0.0283078)
(9.8383 -0.0787684 -0.161235)
(9.94253 -0.021811 -0.0574131)
(10.0151 0.0304526 -0.0120321)
(9.94358 0.022377 -0.193219)
(9.85567 0.0054827 -0.170129)
(9.77355 -0.0325626 -0.0474427)
(9.85572 -0.0198546 -0.0571245)
(9.92867 0.0533616 -0.0712977)
(9.78809 0.122114 -0.100466)
(9.88948 0.122325 -0.133142)
(10.0849 0.155236 -0.204635)
(10.2148 -0.0872676 -0.0934945)
(10.1515 -0.300092 0.0968968)
(10.0621 -0.210432 -0.0065632)
(9.83699 -0.0519732 -0.0895182)
(9.72434 -0.0868509 0.0747384)
(9.77155 0.0299829 0.0939158)
(9.66084 0.235182 0.14298)
(9.57428 0.207742 0.135175)
(9.73662 0.135988 0.135635)
(10.3484 0.192523 0.197933)
(10.6964 0.183963 0.185801)
(10.4106 0.157011 0.0938033)
(10.0052 0.0769051 -0.0702822)
(10.1348 0.0143384 -0.100705)
(10.3562 -0.0200582 -0.0185621)
(10.2535 -0.102196 0.0133464)
(9.45032 -0.258419 0.0539799)
(9.40483 -0.203204 0.100359)
(9.5962 -0.152768 0.126637)
(9.70679 -0.0883984 0.119882)
(9.80978 -0.082543 -0.0109428)
(9.91953 -0.0492342 -0.0668901)
(9.95774 -0.0175729 0.0445881)
(9.95283 0.00857125 -0.00689959)
(9.88164 0.00441691 -0.27275)
(9.83127 -0.0152767 -0.186906)
(9.7323 -0.0364825 -0.0321697)
(9.90941 -0.0377306 0.0686876)
(9.97163 -0.006043 0.0124584)
(9.96112 0.0758756 -0.159722)
(9.97315 0.0717993 -0.158556)
(9.98404 -0.0396272 -0.171398)
(9.80347 -0.139856 -0.0591148)
(10.0813 -0.224494 0.0288427)
(10.2261 -0.200191 -0.0492797)
(9.7516 -0.0494585 -0.0304884)
(9.82327 -0.0427251 0.0973809)
(10.0064 0.0379388 0.0668088)
(9.9948 0.245382 0.109964)
(9.58185 0.343115 0.138968)
(9.70513 0.223937 0.10297)
(10.1472 0.272826 0.13479)
(10.5531 0.249695 0.169606)
(10.3758 0.282625 0.0172692)
(9.90851 0.198298 -0.0630231)
(10.0623 0.202736 0.0298573)
(10.2685 -0.0446902 0.00640902)
(10.1021 -0.233851 -0.0132812)
(9.43824 -0.474798 0.00863344)
(9.34677 -0.252485 0.098983)
(9.70224 -0.14368 0.150268)
(9.86382 -0.071733 0.0355268)
(9.84265 -0.0213341 -0.131808)
(9.88696 -0.0332135 -0.0792575)
(10.0095 -0.0244762 0.116668)
(10.0321 -0.0163297 0.000211295)
(9.92998 -0.0107685 -0.254564)
(9.85457 -0.0224175 -0.165529)
(9.70836 -0.0104723 -0.0310143)
(9.93153 0.0141541 0.111698)
(10.0359 0.0528746 -0.00578795)
(9.93758 0.023314 -0.196751)
(9.8999 -0.0905891 -0.119795)
(9.71959 -0.197339 -0.122456)
(9.84308 -0.27332 -0.0804217)
(10.1953 -0.160378 0.00801184)
(10.2345 -0.0393725 0.0178532)
(9.84035 0.048837 0.0365859)
(9.87798 0.0391857 0.100169)
(10.1025 -0.0293741 0.074703)
(10.1153 0.0533675 0.0578413)
(9.69165 0.431426 0.102283)
(9.68423 0.372355 0.09501)
(10.0654 0.292454 0.177303)
(10.4456 0.331986 0.16095)
(10.4183 0.283098 -0.145956)
(9.81526 0.0721216 -0.189083)
(9.81953 0.135393 -0.00537206)
(9.95508 0.00773222 -0.0288993)
(9.7989 -0.384431 -0.0511575)
(9.44562 -0.418148 0.073752)
(9.41951 -0.274655 0.144734)
(9.87665 -0.136959 0.166153)
(10.0037 -0.056576 0.0212233)
(9.88429 -0.00164362 -0.143624)
(9.87661 -0.0273672 -0.0852074)
(10.0187 -0.00918671 0.120593)
(10.0511 -0.00140303 0.00315594)
(9.92704 -0.0181714 -0.196872)
(9.87936 -0.0343631 -0.109927)
(9.70509 -0.0274763 -0.0223252)
(9.95378 0.0737749 0.0225821)
(10.0815 0.0852336 -0.0411267)
(9.86501 -0.0125636 -0.141449)
(9.56185 -0.110911 -0.0601903)
(9.62773 -0.250297 -0.115055)
(10.1387 -0.22307 -0.0900253)
(10.4567 -0.0507723 0.0350243)
(10.3361 -0.0186033 0.0532334)
(9.75133 -0.0542374 0.0370888)
(9.65218 -0.0679744 0.0455083)
(10.099 -0.138221 0.0767408)
(10.2867 -0.0613911 0.0522948)
(10.0144 0.293691 0.0111459)
(9.71167 0.48792 0.0275403)
(10.0042 0.338308 0.159347)
(10.5532 0.498886 0.16832)
(10.2704 0.210371 -0.09495)
(9.83906 0.215971 0.00352606)
(9.72914 0.0923707 0.0796245)
(9.76092 -0.183846 -0.00210356)
(9.6884 -0.237094 0.0130358)
(9.5281 -0.196379 0.119629)
(9.57959 -0.143 0.150749)
(9.97439 -0.0824655 0.15521)
(10.1109 -0.000540734 0.022888)
(9.87475 0.0638447 -0.136552)
(9.85227 0.0220948 -0.0667541)
(10.0186 0.0170388 0.105616)
(10.0501 0.0134166 -0.00151972)
(9.87537 -0.0140379 -0.167806)
(9.79941 -0.0373785 -0.0878552)
(9.93196 -0.00189719 0.0813049)
(10.0165 0.0647523 0.0359304)
(9.93794 0.0307954 -0.135571)
(9.72743 -0.0384536 -0.130854)
(9.49574 -0.0834222 -0.00758539)
(9.62572 -0.113883 -0.0661789)
(10.233 -0.0720645 -0.0249953)
(10.4836 -0.0336307 0.0608584)
(10.2779 -0.0983172 0.0194393)
(9.64983 -0.11515 -0.036157)
(9.67724 -0.13053 0.0153965)
(10.2228 -0.154208 0.045947)
(10.5377 -0.0724047 0.0234177)
(10.4419 0.113916 -0.00342087)
(9.76104 0.378734 0.0116461)
(9.77044 0.201374 0.0170985)
(10.0594 0.188054 -0.0267633)
(10.0366 0.0783716 -0.143843)
(9.85276 0.103461 -0.0361276)
(9.68042 0.0424601 0.0533861)
(9.58342 -0.040534 0.000629698)
(9.51768 -0.0504917 0.058436)
(9.40909 -0.0174643 0.114282)
(9.64022 -0.0384793 0.180162)
(9.98439 -0.033972 0.147149)
(10.072 0.00474165 0.00480632)
(9.75891 0.0513791 -0.132833)
(9.71852 0.0230189 -0.0340164)
(9.92293 0.0123331 0.0881841)
(9.97809 0.00948145 0.00468284)
(9.76737 0.000668497 -0.112739)
(9.7087 -0.0010934 -0.0588864)
(9.88308 0.0027991 0.0990957)
(9.95185 0.0190408 -0.00450206)
(9.80735 0.00237221 -0.205782)
(9.62793 -0.0270179 -0.147203)
(9.42243 -0.0319868 0.0123586)
(9.55147 -0.025735 0.0159943)
(10.1914 -0.0123225 0.0848487)
(10.3984 -0.013571 0.0769166)
(10.2236 -0.0294915 -0.0167801)
(9.37576 -0.070057 -0.105395)
(9.83497 -0.0473508 -0.0184242)
(10.3109 -0.0129725 0.0297618)
(10.3083 -0.0815612 0.0229062)
(10.2069 -0.0378365 0.0177447)
(9.93169 0.0776017 0.0842776)
(9.78233 0.071699 -0.0367594)
(9.97275 0.0367357 -0.0981972)
)
;

boundaryField
{
    wall
    {
        type            fixedValue;
        value           uniform (0 0 0);
    }
    outlet
    {
        type            cyclic;
    }
    inlet
    {
        type            cyclic;
    }
    procBoundary0to1
    {
        type            processor;
        value           nonuniform List<vector> 
256
(
(9.3218 0.0477156 0.207455)
(8.60418 -0.00661576 -0.0428244)
(8.80404 -0.0524836 -0.184444)
(9.02993 -0.0439579 -0.0828007)
(9.2022 0.0123575 0.0216487)
(8.72106 0.0220334 -0.0191975)
(8.3905 -0.0254351 -0.0517783)
(8.5927 -0.0276572 0.0270336)
(8.02085 -0.0118319 0.0402461)
(7.78043 -0.0109997 -0.117687)
(8.78322 -0.00665055 -0.159741)
(9.25051 -0.00712072 -0.0530299)
(9.05929 -0.0236958 0.0213225)
(8.49106 -0.0416362 -0.0576018)
(8.7144 0.0277895 -0.154338)
(8.76454 0.0408087 -0.133302)
(8.74443 0.0284525 -0.0362107)
(9.00874 0.0510417 -0.0639552)
(9.07986 0.0352075 -0.0706797)
(8.90027 -0.0119704 0.0262043)
(8.97841 -0.054327 0.0456762)
(9.31673 -0.0685674 -0.131819)
(9.1783 -0.0630461 -0.157029)
(7.97491 -0.0165501 -0.135145)
(8.52324 0.0227611 -0.0314834)
(8.73682 0.0320286 0.0396227)
(8.53828 0.0321521 0.05171)
(8.40179 0.0279194 -0.0100015)
(8.67741 0.0110553 0.120862)
(8.89747 0.00469125 0.253859)
(9.1739 0.0187957 0.346704)
(9.4864 0.0574415 0.366502)
(9.41789 0.086816 0.230245)
(8.54235 0.00735524 0.13689)
(8.85509 -0.0929184 -0.0724635)
(9.44213 -0.0606437 -0.0889017)
(9.55733 -0.0119091 -0.0489816)
(8.8376 -0.0338955 -0.0768096)
(8.45101 -0.091518 -0.0784189)
(8.62657 -0.0716574 0.00647365)
(8.03703 -0.0482063 0.0428869)
(7.83756 -0.0350254 -0.0955777)
(8.85333 0.0101983 -0.108789)
(9.30915 -0.0252675 -0.0433669)
(8.97564 -0.0695655 0.0106692)
(8.84302 -0.0417845 -0.0946425)
(9.10605 0.0322567 -0.143561)
(8.81343 0.0500855 -0.143396)
(8.78107 0.0454985 -0.0815663)
(8.76655 0.091971 -0.0789919)
(8.9115 0.0704459 -0.0491303)
(9.08484 -0.0110711 0.0463486)
(9.1649 -0.0450557 0.0347036)
(9.40823 -0.12371 -0.169867)
(9.28794 -0.163409 -0.170858)
(8.11786 -0.0885132 -0.0870816)
(8.63255 0.0294685 -0.0132083)
(8.85569 0.0370193 0.0254113)
(8.49532 0.0840934 0.0828119)
(8.26326 0.143681 0.0359887)
(8.73816 0.0689725 0.118758)
(8.99996 0.0187435 0.239593)
(9.28865 0.0885114 0.303079)
(9.58684 0.114394 0.281304)
(9.49728 0.0456011 0.174818)
(8.54729 0.0334846 0.104912)
(8.93184 -0.00612778 0.0357486)
(9.52313 -0.0123495 0.0132313)
(9.53313 -0.0705781 -0.0197532)
(8.69916 -0.136325 -0.0527628)
(8.42009 -0.138225 -0.0463592)
(8.60411 -0.131366 -0.0301637)
(8.16617 -0.0774869 0.0256172)
(8.06253 -0.0683099 -0.0791738)
(8.11532 0.00704145 -0.0768914)
(8.94623 -0.0257547 -0.00978844)
(9.04175 -0.0456145 -0.0289485)
(9.00673 -0.0141627 -0.131386)
(9.11812 0.0138841 -0.145346)
(8.63072 0.0176443 -0.0652601)
(8.81505 0.0308381 -0.0682683)
(8.85321 0.0846935 -0.145856)
(8.74818 0.0738479 -0.0878291)
(9.00364 0.0494599 -0.0196299)
(9.08877 0.0969188 -0.106657)
(9.28864 -0.110628 -0.12905)
(9.27638 -0.252447 -0.0575461)
(8.35786 -0.22836 -0.0478166)
(8.71864 0.00265239 -0.0755474)
(8.88569 -0.00740531 0.0366949)
(8.72948 0.0849256 0.139309)
(8.6554 0.201354 0.130682)
(8.16022 0.22507 0.164406)
(8.63876 0.0636884 0.234737)
(9.19478 0.125392 0.218493)
(9.60083 0.133841 0.237724)
(9.46977 0.0747085 0.174171)
(8.91735 0.00616476 0.0363361)
(9.01401 0.16986 0.0902031)
(9.35651 0.0921052 -0.0192598)
(9.29957 -0.0967178 -0.0743988)
(8.33797 -0.299297 -0.0800604)
(8.23927 -0.225501 -0.0109923)
(8.42861 -0.196222 -0.0153705)
(8.1048 -0.144214 -0.0117248)
(8.49112 -0.0736247 -0.0448966)
(8.63294 -0.0308189 -0.00714785)
(8.77907 0.00464418 -0.0372511)
(8.78393 0.00492112 -0.12558)
(9.03355 0.0138639 -0.156786)
(9.17265 -0.00326883 -0.135402)
(8.66443 -0.0252753 -0.0707163)
(8.86094 0.0393343 -0.0211447)
(8.93892 0.0352276 -0.0594523)
(8.36554 0.0740777 -0.100827)
(8.58328 0.0622815 -0.148949)
(8.89193 0.0453688 -0.163645)
(8.85701 -0.065597 -0.00413573)
(9.11111 -0.282817 0.11688)
(9.01428 -0.193595 -0.00269498)
(8.89288 0.0369018 -0.0695838)
(8.96601 -0.0467453 0.103368)
(8.91741 0.0366218 0.152386)
(8.87595 0.188815 0.0900611)
(8.1622 0.283526 0.129533)
(8.68527 0.194763 0.175946)
(9.17657 0.284821 0.163809)
(9.46563 0.23333 0.229606)
(8.88468 0.145024 -0.00123804)
(9.01482 0.0601241 -0.0748892)
(9.29375 0.162996 0.0588345)
(9.28393 0.113542 0.0485257)
(8.82245 -0.201397 -0.113544)
(8.17498 -0.461318 -0.141781)
(7.99507 -0.289862 0.0556682)
(8.19506 -0.167032 0.0451531)
(8.20791 -0.0972468 -0.0108495)
(8.89043 -0.0482212 -0.0591876)
(9.17567 -0.0401737 -0.0563818)
(8.8443 -0.000706163 -0.0344593)
(8.4033 0.0184238 -0.100742)
(8.94228 0.0306984 -0.157353)
(9.03533 0.0109233 -0.132388)
(8.9206 -0.0114532 -0.0676322)
(8.90953 0.00672087 -0.0980689)
(8.30955 0.0100779 -0.15281)
(8.88175 0.050173 -0.107181)
(9.0685 -0.00892473 -0.0752444)
(8.55539 -0.092297 -0.0326041)
(8.78906 -0.192255 0.128999)
(9.13916 -0.152129 0.130514)
(9.2312 -0.0361944 0.0506768)
(8.82363 0.0353199 0.00889379)
(8.86658 -0.0576273 0.114845)
(9.29559 -0.0777086 0.0792015)
(9.0891 0.00518386 0.0435478)
(8.2323 0.384834 0.127352)
(8.78196 0.308795 0.106758)
(9.11528 0.288061 0.172319)
(8.97009 0.374208 0.224038)
(9.09275 0.278009 -0.0572783)
(8.84799 0.2957 -0.0206058)
(8.85009 0.105559 0.0275617)
(8.89186 -0.109401 -0.0931199)
(8.4657 -0.310901 -0.14424)
(8.312 -0.312259 -0.0297511)
(8.04197 -0.205837 0.168848)
(8.50986 -0.0862228 0.147035)
(8.58738 -0.0182202 0.0630614)
(8.88613 0.00726345 -0.0471597)
(9.04272 -0.02658 -0.0639928)
(9.05213 -0.0137901 -0.0411848)
(8.93503 0.0220432 -0.0832986)
(8.93271 0.0229364 -0.175293)
(8.91459 0.0110128 -0.142242)
(8.87683 0.0046098 -0.0166352)
(8.96703 -0.00716558 -0.0369999)
(9.02061 0.050271 -0.0671385)
(8.88986 0.0785858 -0.0179051)
(8.3608 -0.0930564 0.0292185)
(8.60979 -0.17624 0.0382661)
(8.86166 -0.190007 0.193529)
(9.32086 -0.0279323 0.0774805)
(9.39003 -0.03946 -0.0468413)
(8.68801 -0.114826 -0.122967)
(8.71723 -0.124581 0.0101937)
(9.10802 -0.172891 -0.0126842)
(9.0958 -0.0749086 0.00417656)
(8.72771 0.341707 0.0521908)
(8.83643 0.422144 0.0456628)
(9.14071 0.199682 0.0821236)
(9.03866 0.259157 0.108825)
(9.17659 0.184308 -0.065165)
(9.02437 0.20613 0.00583226)
(8.38766 0.0873535 0.0180046)
(8.21213 -0.142398 -0.0576232)
(8.22598 -0.144917 -0.0398941)
(8.22584 -0.110428 0.0757215)
(8.06823 -0.110253 0.259724)
(8.71838 -0.0473383 0.191842)
(8.83209 0.00676445 0.0760024)
(8.88787 0.0300076 -0.0609619)
(8.90189 0.0136209 -0.0608855)
(8.95591 0.0110683 -0.0248914)
(8.95492 0.0179595 -0.0587118)
(8.9358 0.0282345 -0.14386)
(8.91019 0.0111046 -0.10561)
(8.90136 -0.0142767 -0.0132122)
(8.91033 0.00569273 -0.0491676)
(8.91309 0.000361278 -0.0529739)
(8.83445 -0.0440625 -0.00900767)
(8.26256 -0.0648373 0.0267128)
(8.70765 -0.0759849 0.0917696)
(9.09713 -0.0541014 0.134176)
(9.33644 0.0152164 0.0569653)
(9.13922 -0.0598944 -0.0406702)
(8.67367 -0.14244 -0.0664533)
(8.92065 -0.155292 0.00747979)
(9.1718 -0.16884 0.0473987)
(9.48095 -0.0618244 0.00113266)
(9.38688 0.109566 -0.0357611)
(8.3534 0.374703 -0.00364556)
(8.69438 0.124436 -0.0210277)
(8.9276 0.0790879 -0.100661)
(9.2324 0.07613 -0.0990432)
(8.92495 0.0894768 -0.0666915)
(8.02973 0.00716805 -0.0219757)
(8.59588 -0.0504169 0.0449158)
(8.76701 -0.00778724 0.0526076)
(8.37013 0.00542083 0.11019)
(7.91719 -0.0267213 0.284894)
(8.71064 -0.015696 0.209635)
(8.89013 0.0100332 0.0540681)
(8.81125 0.0184258 -0.130159)
(8.78317 0.0107361 -0.0840212)
(8.88759 0.0105037 -0.0057852)
(8.91616 0.0109568 -0.0355018)
(8.84405 0.0298894 -0.0380228)
(8.78263 0.0138319 -0.0376827)
(8.82166 -0.0203999 -0.0646957)
(8.84678 -0.00991957 -0.08117)
(8.80725 -0.0186336 -0.11666)
(8.71296 -0.0381517 -0.0892272)
(8.46066 -0.0237847 0.00968663)
(8.75669 -0.00171538 0.102653)
(8.92631 0.00700486 0.189903)
(9.19915 0.0119933 0.082856)
(9.04487 -0.0058013 -0.0504769)
(8.4208 -0.0963005 -0.0651559)
(8.88855 -0.0747438 0.0399008)
(8.87798 -0.0141968 0.106122)
(9.24918 -0.0657765 -0.0166457)
(9.13234 -0.0190395 -0.0907766)
(8.484 0.0820741 -0.0708516)
(8.62011 0.0435695 -0.00587792)
(9.0304 0.0191192 -0.108915)
)
;
    }
}


// ************************************************************************* //
