/*--------------------------------*- C++ -*----------------------------------*\
| =========                 |                                                 |
| \\      /  F ield         | OpenFOAM: The Open Source CFD Toolbox           |
|  \\    /   O peration     | Version:  2506                                  |
|   \\  /    A nd           | Website:  www.openfoam.com                      |
|    \\/     M anipulation  |                                                 |
\*---------------------------------------------------------------------------*/
FoamFile
{
    version     2.0;
    format      ascii;
    arch        "LSB;label=32;scalar=64";
    class       volVectorField;
    location    "0.004";
    object      U_0;
}
// * * * * * * * * * * * * * * * * * * * * * * * * * * * * * * * * * * * * * //

dimensions      [0 1 -1 0 0 0 0];

internalField   nonuniform List<vector> 
512
(
(11.4694 0.00131988 0.0390498)
(11.052 -0.00337882 0.0337084)
(10.7468 -0.110051 -0.0979619)
(10.0125 -0.10702 -0.152135)
(10.1518 0.218655 0.221538)
(10.0315 0.0990639 0.131479)
(9.06075 -0.121451 -0.0755581)
(8.72247 -0.0684919 0.130369)
(9.81226 -0.0141014 0.14828)
(10.069 -0.0481546 -0.0576349)
(9.45009 -0.0926646 -0.214378)
(9.15758 -0.0711268 -0.0147411)
(9.78406 0.024665 0.0584394)
(9.99292 0.0431812 -0.0804779)
(9.59296 0.0123629 -0.160981)
(9.31735 -0.000503213 -0.0789405)
(9.42068 0.0457436 0.0510193)
(9.89212 0.0855905 0.0253773)
(10.074 0.045691 -0.11596)
(9.9165 -0.00800699 -0.199775)
(10.0647 0.0228726 -0.290297)
(10.5904 0.0124831 0.0606705)
(10.5769 -0.0628258 0.213743)
(10.019 -0.0975796 0.131115)
(9.63036 -0.0561746 0.029742)
(9.60253 -0.0109822 0.0198708)
(9.57739 0.01627 0.0368563)
(9.46057 0.0358249 0.0457863)
(9.44491 0.0510028 0.0461133)
(9.40889 0.0770077 0.0571989)
(10.8389 0.112099 0.107496)
(11.5321 0.0720565 0.0848993)
(11.4697 0.0517368 0.0317454)
(11.0812 -0.0746904 -0.0692527)
(10.5434 -0.332698 -0.127219)
(10.4783 -0.0681044 -0.0328984)
(10.4994 0.225243 0.0270087)
(9.65778 -0.0338618 0.0170717)
(8.92752 -0.269529 -0.0120375)
(8.92203 -0.110244 0.157481)
(9.83047 -0.0249181 0.146148)
(10.0378 -0.125983 -0.048326)
(9.48256 -0.254133 -0.167485)
(9.37181 -0.210507 0.0307201)
(9.91956 0.0744532 0.0405471)
(10.0471 0.132283 -0.111485)
(9.61824 0.0308377 -0.168854)
(9.40066 -0.0395402 -0.073219)
(9.57177 0.0492221 0.0265656)
(9.91458 0.237204 0.00815883)
(10.0431 0.166524 -0.100886)
(9.97558 0.0198658 -0.17455)
(10.1557 0.0469555 -0.280815)
(10.5287 0.00162442 -0.0192041)
(10.5016 -0.178099 0.191654)
(10.0913 -0.23637 0.162298)
(9.78606 -0.129396 0.0592512)
(9.73169 -0.025987 0.030922)
(9.67975 0.039878 0.0418403)
(9.56323 0.108932 0.0501747)
(9.53842 0.167546 0.0502784)
(9.49797 0.239429 0.0543456)
(10.8506 0.343028 0.128181)
(11.4869 0.277685 0.137143)
(11.2164 0.203247 0.0783511)
(10.8759 -0.0955323 -0.0170724)
(10.6366 -0.281525 -0.105893)
(10.6033 -0.212644 -0.0727213)
(10.525 -0.168857 -0.0359717)
(9.55675 -0.275232 -0.0138625)
(8.94201 -0.298794 0.00373892)
(9.07916 -0.0965169 0.133522)
(9.73866 0.0229025 0.131372)
(9.88074 -0.126154 -0.033782)
(9.37881 -0.355157 -0.0696027)
(9.68828 -0.240699 0.108386)
(10.0972 0.0880051 0.00221643)
(10.021 0.153973 -0.178053)
(9.49881 0.0132019 -0.187083)
(9.382 -0.118517 -0.0350482)
(9.77358 -0.0856519 0.0337227)
(10.004 0.243099 -0.0412179)
(9.93242 0.290946 -0.126766)
(9.90153 0.109261 -0.142405)
(10.1152 0.0391624 -0.141308)
(10.3657 -0.0749621 -0.0384858)
(10.3739 -0.238947 0.0950158)
(10.1395 -0.247714 0.10842)
(9.91294 -0.127303 0.055146)
(9.82679 -0.033901 0.0370895)
(9.76753 0.0404444 0.0459624)
(9.68194 0.170482 0.0525796)
(9.63421 0.28766 0.0486252)
(9.57314 0.438204 0.0679716)
(10.8331 0.529273 0.112171)
(11.3368 0.438833 0.107188)
(11.1328 0.351504 0.0583082)
(10.6629 0.0941849 -0.0674883)
(10.3478 -0.226736 -0.211101)
(10.5964 -0.177054 0.0178297)
(10.4948 -0.319269 0.0420612)
(9.52661 -0.495116 0.00802753)
(9.08095 -0.469521 0.0251534)
(9.34134 -0.29302 0.104036)
(9.69593 0.135488 0.0837405)
(9.68592 0.0528709 -0.0402067)
(9.25039 -0.26642 0.0502937)
(9.99286 -0.130916 0.156392)
(10.2918 0.0593131 -0.0313749)
(9.95182 0.0669788 -0.228658)
(9.33523 -0.0420266 -0.196673)
(9.22893 -0.156744 0.0530343)
(10.0483 -0.0539457 0.0881362)
(10.2841 0.141045 -0.0754864)
(9.87928 0.202097 -0.194504)
(9.7157 0.0539049 -0.126629)
(9.97237 -0.0639058 -0.0692049)
(10.2323 -0.190951 -0.0273132)
(10.3259 -0.258388 0.0266287)
(10.2078 -0.179836 0.0631465)
(10.0038 -0.0919145 0.0543153)
(9.89832 -0.0944308 0.0398257)
(9.88424 -0.0153731 0.0456949)
(9.86783 0.239743 0.053062)
(9.81631 0.426032 0.0424379)
(9.71199 0.601 0.0631177)
(10.6333 0.644186 0.103866)
(11.2097 0.468428 0.0894617)
(11.0106 0.558163 0.0580003)
(10.3086 0.295496 -0.0292005)
(10.4279 -0.0455445 -0.141652)
(10.6181 -0.115714 -0.159994)
(10.0086 -0.514519 -0.0498538)
(9.37487 -0.662734 0.0417059)
(9.19968 -0.605424 0.168216)
(9.81183 -0.245165 0.159198)
(9.97607 0.0624049 0.00622684)
(9.54428 0.10426 -0.13623)
(9.11551 -0.0812783 0.0809892)
(10.0736 -0.0107106 0.164768)
(10.3561 0.040353 -0.0463969)
(9.87841 -0.031287 -0.235383)
(9.28142 -0.121639 -0.17178)
(9.25582 -0.049468 0.0847695)
(10.1293 0.0805093 0.0951417)
(10.3482 0.0714223 -0.090179)
(9.81567 -0.0237366 -0.203693)
(9.5919 -0.124321 -0.112486)
(9.85827 -0.225902 -0.0528499)
(10.1718 -0.334316 -0.058175)
(10.3857 -0.284192 -0.0605932)
(10.3063 -0.0950666 0.0719084)
(9.99787 -0.0680301 0.122218)
(9.90312 -0.219649 0.0761871)
(10.1024 -0.264133 0.0497923)
(10.1721 0.231783 0.0383931)
(10.0243 0.687456 0.0443562)
(9.85132 0.768026 0.0574805)
(10.3431 0.648366 0.0824994)
(11.0866 0.618809 0.1118)
(10.8829 0.406725 -0.0737667)
(10.0596 0.0597492 -0.115403)
(9.90721 0.0766681 -0.0825724)
(10.0141 -0.253932 -0.0622936)
(9.84354 -0.58937 -0.0150191)
(9.56758 -0.539849 0.0176283)
(9.4426 -0.395333 0.177337)
(10.0529 -0.16058 0.163925)
(10.1578 -0.0276247 -0.0217214)
(9.51567 0.0476235 -0.160778)
(9.09773 0.0270044 0.0876)
(10.0751 0.0556707 0.152354)
(10.3382 0.0301003 -0.0546578)
(9.78157 -0.0897786 -0.220871)
(9.29902 -0.201155 -0.122543)
(9.45369 -0.120411 0.0785365)
(10.0866 0.213028 0.0651572)
(10.201 0.140607 -0.0940805)
(9.72029 -0.109368 -0.17213)
(9.51709 -0.218339 -0.079081)
(9.73991 -0.312998 -0.0504974)
(10.1932 -0.475931 -0.17049)
(10.5791 -0.22131 -0.0108974)
(10.4289 -0.00108312 0.150243)
(9.82003 -0.0821975 0.143177)
(9.6377 -0.442311 0.0814198)
(10.5802 -0.287692 0.0644166)
(10.8432 0.137872 0.0383434)
(10.301 0.638318 0.012824)
(9.57218 0.959903 0.0667694)
(10.5166 0.920113 0.128697)
(11.0266 0.733535 0.0460811)
(10.523 0.324228 -0.0770954)
(10.052 -0.0309487 -0.0858322)
(9.87187 -0.090357 -0.0449328)
(9.88912 -0.175009 -0.0292505)
(9.80369 -0.269823 -0.00156298)
(9.62112 -0.259588 0.0222965)
(9.54775 -0.244349 0.175377)
(10.1798 -0.137779 0.164619)
(10.2742 -0.0201077 -0.0208381)
(9.54257 0.074821 -0.156249)
(9.12812 0.0811634 0.0767823)
(10.019 0.0677281 0.133085)
(10.2639 0.010747 -0.055396)
(9.66585 -0.0948337 -0.198868)
(9.17727 -0.234436 -0.0140083)
(9.84963 -0.0890498 0.135825)
(10.216 0.1848 0.00711581)
(10.0167 0.152024 -0.164282)
(9.50472 -0.0861339 -0.159091)
(9.37876 -0.17082 -0.0576852)
(9.51854 -0.308156 -0.0290151)
(10.4774 -0.390877 -0.0433225)
(10.8243 -0.125433 0.0480395)
(10.4094 0.0265363 0.0702431)
(9.45284 -0.145589 0.0417054)
(9.70321 -0.39256 0.0427621)
(10.8903 -0.102034 0.0193579)
(11.205 0.0777374 0.0124904)
(10.8087 0.278424 0.0241318)
(9.95935 0.595714 0.0448185)
(9.93418 0.812968 0.0822371)
(10.4751 0.70486 0.016272)
(10.0992 0.18619 -0.127459)
(9.73956 0.0188568 -0.0749327)
(9.7494 -0.00692627 -0.030798)
(9.76474 -0.0334148 -0.0155641)
(9.68875 -0.0720484 0.00906537)
(9.54378 -0.083487 0.0348955)
(9.47786 -0.103849 0.156577)
(10.2636 -0.0703042 0.13146)
(10.3719 -0.00214793 -0.0231722)
(9.49564 0.0526237 -0.130583)
(9.04984 0.0483173 0.0788174)
(9.89175 0.0302646 0.128111)
(10.1293 -0.000222483 -0.0491038)
(9.55054 -0.0414762 -0.172977)
(9.09445 -0.0867991 0.0567103)
(9.97732 -0.025323 0.151282)
(10.2776 0.0651773 -0.0306366)
(9.84344 0.0530379 -0.204313)
(9.29505 -0.0360845 -0.148482)
(9.23094 -0.0648021 -0.0372462)
(9.33886 -0.131396 0.0183408)
(10.6189 -0.137951 0.0575597)
(10.8742 -0.0406705 0.0603129)
(10.2304 -0.00272157 -0.00196954)
(9.08004 -0.106897 -0.0478533)
(10.075 -0.11976 -0.0104145)
(10.8663 0.0233171 -0.00636034)
(11.0892 -0.00866375 -0.00105376)
(10.6806 0.00419217 0.0639398)
(10.2605 0.121612 0.120844)
(10.2672 0.264882 0.0604657)
(10.4145 0.324093 -0.0500657)
(11.4879 -0.00734258 0.117141)
(11.0658 -0.11033 0.0034251)
(10.3988 -0.13071 -0.365346)
(10.4956 -0.000688484 -0.111038)
(10.5744 0.042919 0.232533)
(9.72898 -0.0138071 0.0545269)
(9.01434 -0.0662259 -0.120645)
(9.10875 -0.0414209 0.0962989)
(9.54272 -0.0215303 0.30589)
(9.7177 -0.0370287 -0.141652)
(9.56966 -0.0474502 -0.338962)
(9.54382 -0.0281381 -0.0748188)
(9.74264 0.00481847 0.0797504)
(9.81393 0.0142693 -0.175117)
(9.66281 0.00622748 -0.273798)
(9.5648 0.00832462 -0.130355)
(9.61492 0.0292294 0.026434)
(9.74647 0.0581977 -0.000462433)
(9.82374 0.0538715 -0.251186)
(9.70746 0.0333357 -0.376547)
(10.7167 0.0058997 -0.144174)
(11.0541 -0.0312659 0.0992321)
(10.6225 -0.0724366 0.219784)
(9.81796 -0.068425 0.115897)
(9.56837 -0.0324632 0.0215893)
(9.65117 -0.000901603 0.0419032)
(9.6513 0.0211882 0.103676)
(9.52898 0.0401182 0.134711)
(9.50361 0.0550486 0.13168)
(9.4886 0.0742575 0.159273)
(10.8812 0.132803 0.330562)
(11.5339 0.124549 0.314058)
(11.3495 0.0758185 0.178144)
(10.995 -0.167623 -0.0920413)
(10.6733 -0.2839 -0.283399)
(10.6657 -0.101125 -0.164094)
(10.6451 -0.0273956 -0.0389448)
(9.68913 -0.121067 -0.0248627)
(9.03897 -0.173584 -0.0161145)
(9.20534 -0.101786 0.141124)
(9.60126 -0.0555539 0.270996)
(9.7471 -0.093206 -0.119815)
(9.63432 -0.123734 -0.266392)
(9.65132 -0.079546 -0.0223371)
(9.84013 0.0109105 0.0528479)
(9.87109 0.0365135 -0.215105)
(9.71279 0.00779679 -0.280076)
(9.64326 0.00527045 -0.116378)
(9.71979 0.0591711 0.0129459)
(9.82884 0.144449 -0.0161471)
(9.84599 0.127999 -0.167353)
(9.73429 0.16104 -0.348396)
(10.6944 0.109415 -0.251417)
(11.0147 -0.0838217 -0.00419399)
(10.6349 -0.261928 0.210621)
(9.92688 -0.237581 0.175984)
(9.70105 -0.103944 0.0686415)
(9.76328 -0.0101412 0.0745104)
(9.74792 0.0488388 0.122997)
(9.63423 0.115606 0.140982)
(9.60004 0.169943 0.132334)
(9.59459 0.250043 0.160208)
(10.9412 0.347914 0.316955)
(11.4733 0.325095 0.36541)
(11.2006 0.242615 0.238764)
(10.765 -0.0764265 -0.0094002)
(10.5429 -0.368565 -0.287441)
(10.7658 -0.167777 -0.2103)
(10.6911 -0.160093 -0.116)
(9.65168 -0.284057 -0.0500893)
(9.0887 -0.27015 0.01314)
(9.28512 -0.143864 0.140929)
(9.60536 -0.0595689 0.213182)
(9.70485 -0.103706 -0.0850473)
(9.63924 -0.155101 -0.146174)
(9.73393 -0.10454 0.098402)
(9.91379 0.012466 -0.00513812)
(9.86658 0.0396929 -0.30994)
(9.6876 -0.00552751 -0.301314)
(9.67182 -0.0251219 -0.065741)
(9.80925 0.0272371 0.0440897)
(9.89274 0.147321 -0.09486)
(9.87476 0.178601 -0.224552)
(9.89644 0.180856 -0.256751)
(10.3293 0.239723 -0.285873)
(10.6788 -0.117751 -0.0355494)
(10.5702 -0.398408 0.192924)
(10.125 -0.328709 0.181376)
(9.88462 -0.124957 0.0874913)
(9.86955 -0.0255944 0.116629)
(9.83282 0.0440879 0.157431)
(9.74579 0.173194 0.149729)
(9.70883 0.282833 0.122627)
(9.67894 0.44237 0.168499)
(10.8609 0.505721 0.282236)
(11.3789 0.38375 0.282409)
(11.0788 0.337959 0.203063)
(10.398 0.0686376 -0.0657242)
(10.6117 -0.265666 -0.286128)
(10.8682 -0.215882 -0.165393)
(10.4829 -0.327093 -0.0987707)
(9.54841 -0.452648 -0.0428772)
(9.22497 -0.369529 0.0514368)
(9.43018 -0.190011 0.14087)
(9.64141 -0.0424257 0.114212)
(9.65166 -0.0524571 -0.072995)
(9.63357 -0.114315 -0.0366952)
(9.8191 -0.080628 0.231963)
(9.98437 0.00852114 -0.0650376)
(9.85315 0.0180695 -0.393044)
(9.64808 -0.0183987 -0.304165)
(9.67613 -0.0290577 -0.0004912)
(9.8924 0.0014371 0.174893)
(9.99266 0.0891499 -0.151208)
(9.91548 0.128572 -0.34841)
(9.925 0.0876384 -0.247212)
(10.1263 0.024636 -0.106446)
(10.3773 -0.209263 0.0141057)
(10.4664 -0.414755 0.102546)
(10.2862 -0.217297 0.101134)
(10.031 -0.02506 0.0806529)
(9.93958 -0.0550892 0.124492)
(9.94723 -0.0117692 0.157105)
(9.92214 0.2251 0.140253)
(9.88894 0.427396 0.119166)
(9.84231 0.575326 0.147346)
(10.6068 0.62937 0.235722)
(11.2292 0.469196 0.277371)
(10.9963 0.422902 0.0771763)
(10.0616 0.227721 -0.0619336)
(10.4241 0.0322308 -0.098289)
(10.6649 -0.234317 -0.207201)
(10.3055 -0.553942 -0.2306)
(9.59754 -0.603093 -0.0770567)
(9.42106 -0.410145 0.129373)
(9.628 -0.214345 0.269573)
(9.7429 -0.0436871 -0.0171083)
(9.63302 -0.00208743 -0.186355)
(9.61104 -0.0374276 -0.00111834)
(9.85678 -0.0240861 0.270767)
(10.0125 0.00717184 -0.100273)
(9.83962 -0.0164108 -0.39331)
(9.64047 -0.0378819 -0.254546)
(9.69162 -0.00299221 0.0171263)
(9.92755 0.0373217 0.159385)
(10.0215 0.0486115 -0.183258)
(9.88421 0.00764286 -0.340888)
(9.83054 -0.0692676 -0.177812)
(9.94271 -0.197235 -0.0108199)
(10.2311 -0.499291 -0.00283785)
(10.5993 -0.280001 0.00222511)
(10.5493 -0.0217762 0.11323)
(10.0258 0.0182348 0.162759)
(9.86977 -0.183988 0.133252)
(10.1172 -0.235124 0.1239)
(10.218 0.214867 0.109312)
(10.0983 0.650262 0.126931)
(9.91564 0.760959 0.163443)
(10.4943 0.704534 0.258833)
(11.0745 0.586889 0.23585)
(10.794 0.28787 -0.187142)
(10.1725 0.0309904 -0.262146)
(10.0405 0.143098 -0.155168)
(10.1359 -0.126041 -0.139104)
(9.99207 -0.520053 -0.0892171)
(9.76189 -0.561596 0.0232317)
(9.6956 -0.371161 0.196953)
(9.83161 -0.190641 0.327681)
(9.85364 -0.0346648 -0.0505211)
(9.65786 0.0333682 -0.221145)
(9.61152 0.0214421 0.0141832)
(9.86364 0.0178056 0.275253)
(9.99209 0.0042885 -0.123124)
(9.80809 -0.0405342 -0.370133)
(9.66144 -0.0626995 -0.178339)
(9.75132 -0.00475762 0.0536338)
(9.94399 0.0761756 0.0853233)
(9.96305 0.0544608 -0.166377)
(9.79029 -0.0523731 -0.244944)
(9.66591 -0.11857 -0.10653)
(9.61882 -0.35568 -0.017361)
(10.5618 -0.383555 0.0111436)
(10.8704 -0.129808 0.0473729)
(10.5546 -0.0179909 0.112648)
(9.74475 -0.165332 0.0989685)
(9.61851 -0.43404 0.0839051)
(10.5222 -0.342068 0.105431)
(10.8529 0.0897572 0.0915998)
(10.4082 0.647091 0.0798019)
(9.82527 0.943864 0.179907)
(10.3973 0.919763 0.336742)
(10.8813 0.672418 0.126444)
(10.4456 0.234398 -0.163472)
(10.1549 0.0100741 -0.174515)
(9.99198 -0.0263008 -0.0897913)
(9.98025 -0.12825 -0.0577325)
(9.92268 -0.245686 -0.0181888)
(9.81027 -0.254229 0.0625272)
(9.78934 -0.233926 0.224274)
(9.95886 -0.216356 0.343381)
(9.96662 -0.0106426 -0.054316)
(9.68893 0.114879 -0.230855)
(9.59537 0.0798108 0.0155071)
(9.83947 0.0380827 0.251855)
(9.95411 0.00141417 -0.129437)
(9.77257 -0.0355764 -0.330818)
(9.67612 -0.0555125 -0.0631169)
(9.83048 -0.0154539 0.203345)
(9.98654 0.0663184 0.00754895)
(9.89296 0.04968 -0.250921)
(9.66734 -0.0494644 -0.218498)
(9.55976 -0.118964 -0.0557516)
(9.54171 -0.222768 0.0452172)
(10.693 -0.180319 0.105886)
(10.9687 -0.0754428 0.111508)
(10.4032 -0.122169 0.0251891)
(9.49968 -0.306151 -0.040875)
(9.60726 -0.501513 0.0375352)
(10.9452 -0.160016 0.0629309)
(11.3009 0.0531699 0.060537)
(10.9148 0.28495 0.0700807)
(10.0833 0.632814 0.0951892)
(9.94192 0.793218 0.119418)
(10.3243 0.615671 0.0104119)
(10.1692 0.147022 -0.256819)
(9.93668 0.0437231 -0.151081)
(9.86609 0.00963883 -0.0655592)
(9.85367 -0.019733 -0.0418739)
(9.80513 -0.0614188 0.00979901)
(9.70874 -0.0730842 0.0819539)
(9.69112 -0.117224 0.289814)
(10.0472 -0.109645 0.308222)
(10.1092 -0.0044452 -0.0528996)
(9.66858 0.0789832 -0.248637)
(9.48086 0.054058 0.00315477)
(9.7342 0.0235709 0.226764)
(9.86282 0.00208282 -0.100585)
(9.6949 -0.0121126 -0.248615)
(9.62594 -0.019425 0.00177456)
(9.8184 -0.00673572 0.26225)
(9.95359 0.0234126 -0.0592981)
(9.79102 0.0156777 -0.317398)
(9.54569 -0.022524 -0.207589)
(9.45705 -0.0438831 -0.0237243)
(9.48122 -0.0729641 0.123218)
(10.6844 -0.0531904 0.237034)
(10.9058 -0.0303495 0.153802)
(10.2064 -0.0603091 -0.0742163)
(9.12477 -0.198176 -0.191197)
(10.151 -0.170979 -0.014497)
(10.9231 -0.0050805 0.0306808)
(11.1789 -0.0143897 0.0477037)
(10.8564 0.0308681 0.109873)
(10.4025 0.176118 0.178285)
(10.0443 0.266174 0.099359)
(10.1615 0.240605 -0.126168)
)
;

boundaryField
{
    wall
    {
        type            fixedValue;
        value           uniform (0 0 0);
    }
    outlet
    {
        type            cyclic;
    }
    inlet
    {
        type            cyclic;
    }
    procBoundary0to1
    {
        type            processor;
        value           nonuniform List<vector> 
256
(
(11.3153 0.0680789 0.223007)
(10.9221 -0.0272906 -0.107067)
(10.5968 -0.103209 -0.321375)
(10.8084 -0.073121 -0.189016)
(10.8086 -0.0475613 -0.0877935)
(9.84638 -0.036893 -0.10396)
(9.24103 -0.0470957 -0.0906194)
(9.35279 -0.041677 0.00637625)
(9.59161 -0.0259528 -0.00217487)
(9.7654 -0.0242765 -0.132207)
(9.81311 -0.0278444 -0.154544)
(9.79668 -0.0225736 -0.0719483)
(9.84129 -0.00948638 -0.0724361)
(9.9094 0.00290916 -0.163631)
(9.8894 0.00935725 -0.189131)
(9.84162 0.0191584 -0.107176)
(9.78571 0.022589 0.010711)
(9.7573 0.0867568 -0.0544431)
(9.96658 0.106608 -0.143856)
(10.0521 0.0266484 0.0123816)
(10.9245 -0.076694 0.0827668)
(11.1861 -0.0867724 -0.0357852)
(10.7377 -0.0695671 -0.0954993)
(9.95319 -0.0385769 -0.105379)
(9.76118 -0.0105479 -0.0710137)
(9.90063 0.0208202 0.0558762)
(9.89583 0.035512 0.166223)
(9.74831 0.0418712 0.186945)
(9.70636 0.0514358 0.188896)
(9.75885 0.0783141 0.298288)
(11.0631 0.098467 0.500573)
(11.5511 0.113111 0.534593)
(11.3052 0.173987 0.323597)
(10.7966 -0.0607954 0.0252495)
(10.5793 -0.276776 -0.235869)
(10.9446 -0.18051 -0.242025)
(10.9305 -0.131285 -0.191715)
(9.89676 -0.138421 -0.161608)
(9.29226 -0.136645 -0.0822889)
(9.43174 -0.105921 0.0091844)
(9.66359 -0.0686074 -0.012442)
(9.8187 -0.0610234 -0.128259)
(9.87036 -0.0678195 -0.128471)
(9.8705 -0.0626797 -0.0560235)
(9.9222 -0.0312473 -0.089773)
(9.98395 0.00170876 -0.183452)
(9.96142 0.0138422 -0.18581)
(9.91718 0.035896 -0.0845683)
(9.89521 0.0616293 0.0121017)
(9.91115 0.146628 -0.020556)
(9.97951 0.196689 -0.115781)
(9.94113 0.100334 -0.00139658)
(10.9057 -0.040936 -0.000105648)
(11.2151 -0.14198 -0.118914)
(10.8301 -0.205139 -0.0952597)
(10.0706 -0.169191 -0.0504356)
(9.8803 -0.0625692 -0.0287746)
(10.0045 0.047895 0.110356)
(9.97281 0.0934774 0.214907)
(9.83063 0.123685 0.21586)
(9.80543 0.155391 0.18748)
(9.82979 0.251449 0.268634)
(11.1293 0.296457 0.399262)
(11.6015 0.252066 0.424468)
(11.2483 0.2101 0.289462)
(10.536 -0.0299101 0.0569582)
(10.5631 -0.309159 -0.156852)
(10.9971 -0.195565 -0.168615)
(10.914 -0.234215 -0.22726)
(9.85466 -0.292781 -0.21051)
(9.34002 -0.227835 -0.0757422)
(9.48477 -0.141727 0.010842)
(9.69111 -0.0852627 -0.0168696)
(9.82142 -0.0761336 -0.108582)
(9.86713 -0.0876221 -0.102821)
(9.88885 -0.0834633 -0.0660739)
(9.9612 -0.0397394 -0.136112)
(10.0103 -0.000810457 -0.219832)
(9.97938 0.00639324 -0.184215)
(9.94842 0.0225759 -0.0311679)
(9.94785 0.0437816 0.0322683)
(9.96021 0.106514 -0.0535374)
(9.97463 0.125225 -0.1257)
(9.96057 0.199938 -0.122709)
(10.7238 0.197588 -0.13649)
(11.02 -0.0784522 -0.0944071)
(10.7672 -0.339658 0.0288126)
(10.1899 -0.310201 0.0279484)
(10.0553 -0.110222 -0.0565202)
(10.1206 0.015828 0.187701)
(10.0279 0.0743116 0.336441)
(9.89926 0.16956 0.24674)
(9.9091 0.277671 0.178406)
(9.94286 0.40914 0.228095)
(10.9729 0.469316 0.317848)
(11.5077 0.349419 0.379247)
(11.1388 0.200033 0.22351)
(10.1929 -0.0138574 -0.0299606)
(10.6242 -0.036076 -0.056096)
(10.9382 -0.146815 -0.168029)
(10.7019 -0.427474 -0.304053)
(9.84977 -0.528598 -0.232775)
(9.49988 -0.348058 -0.0327851)
(9.5948 -0.1866 0.0312958)
(9.72928 -0.0883607 -0.036377)
(9.81642 -0.0536013 -0.12413)
(9.86312 -0.06661 -0.0930431)
(9.91847 -0.0665459 -0.0738875)
(10.0049 -0.0194998 -0.167075)
(10.0302 0.0127689 -0.229851)
(9.9849 0.0120048 -0.192504)
(9.95467 -0.0117032 -0.0241068)
(9.97924 -0.0236651 0.0300811)
(10.0215 0.0488235 -0.0808055)
(10.0603 0.116441 -0.179069)
(10.1906 0.138331 -0.244669)
(10.4579 0.210405 -0.120598)
(10.6709 -0.123615 0.136877)
(10.6378 -0.481995 0.233064)
(10.4075 -0.261233 0.0810684)
(10.2524 -0.0108464 -0.0668161)
(10.2027 -0.0699561 0.199879)
(10.1269 -0.0491929 0.346001)
(10.0696 0.198861 0.209863)
(10.0732 0.422685 0.148431)
(10.0385 0.595709 0.200714)
(10.8761 0.636413 0.321198)
(11.3285 0.428313 0.378164)
(10.9822 0.1539 -0.0216642)
(10.4544 -0.0053892 -0.172661)
(10.4136 0.146506 0.0181726)
(10.59 -0.0437418 -0.104659)
(10.3868 -0.517714 -0.314495)
(10.0099 -0.624004 -0.226995)
(9.79667 -0.388702 0.0208277)
(9.78212 -0.184881 0.0900108)
(9.824 -0.0734048 -0.0377225)
(9.84313 -0.0129675 -0.143555)
(9.85415 -0.0108069 -0.109373)
(9.93594 -0.0109893 -0.0622117)
(10.0405 0.00476401 -0.122171)
(10.0418 0.00571757 -0.185424)
(9.95492 0.0106458 -0.10834)
(9.91273 -0.00333119 -0.0814171)
(10.0084 -0.00672693 -0.190666)
(10.1072 0.0524419 -0.171551)
(10.105 0.0823971 -0.173729)
(10.1635 0.0214344 -0.1057)
(10.2428 -0.103831 0.116084)
(10.4 -0.376449 0.337132)
(10.7178 -0.306313 0.244904)
(10.704 -0.102568 0.100279)
(10.2217 -0.0404384 0.0404888)
(10.0676 -0.252604 0.121556)
(10.3026 -0.309942 0.175872)
(10.4131 0.177634 0.150609)
(10.3289 0.65212 0.167564)
(10.2064 0.785305 0.219221)
(10.5868 0.78045 0.332455)
(11.0267 0.48805 0.244811)
(10.7804 0.1806 -0.162594)
(10.4753 0.0544397 -0.215941)
(10.31 0.0419166 -0.137049)
(10.3108 -0.147813 -0.146663)
(10.2383 -0.359111 -0.152974)
(10.0933 -0.377372 -0.0369953)
(9.95637 -0.25694 0.142652)
(9.90302 -0.136081 0.155557)
(9.90107 -0.0397598 -0.0173467)
(9.87896 0.0190808 -0.118531)
(9.86506 0.0301173 -0.0539199)
(9.93404 0.0326354 0.00950482)
(10.0216 0.0112857 -0.120022)
(10.036 -0.0226542 -0.233235)
(9.97589 0.00101738 -0.0825539)
(9.93726 0.0426834 -0.0233313)
(10.035 0.0650955 -0.154644)
(10.1109 0.0672191 -0.118709)
(10.0294 0.0147792 -0.020606)
(9.9831 -0.0753151 0.0236772)
(10.033 -0.268075 0.155692)
(10.5228 -0.368813 0.37606)
(10.8647 -0.100911 0.148454)
(10.6966 -0.0888564 -0.044104)
(10.0102 -0.279823 -0.07494)
(9.85616 -0.503091 0.0209633)
(10.7062 -0.378924 0.0314504)
(11.0364 0.0762194 0.0899024)
(10.6776 0.652951 0.172545)
(10.2423 0.872248 0.212909)
(10.2796 0.791335 0.255806)
(10.6672 0.514733 0.0937698)
(10.5575 0.214783 -0.103508)
(10.3792 0.0876936 -0.0763262)
(10.2261 0.0170933 -0.0831995)
(10.183 -0.0777219 -0.088096)
(10.1566 -0.170722 -0.0721357)
(10.1115 -0.2007 0.0175267)
(10.0376 -0.179523 0.188195)
(9.99915 -0.115898 0.195568)
(9.97905 -0.0176586 -0.0100145)
(9.91289 0.0417513 -0.113779)
(9.86688 0.0425396 -0.0264361)
(9.9177 0.0366648 0.0470348)
(9.98638 0.0335919 -0.0983093)
(10.0203 0.0184297 -0.23361)
(10.0098 0.0030996 -0.0683813)
(9.97735 0.0148423 0.0514701)
(10.0346 0.0436765 -0.0561629)
(10.0575 0.0272206 -0.0879538)
(9.94842 -0.032117 -0.0102836)
(9.8613 -0.0741292 0.0669117)
(9.88917 -0.194577 0.203756)
(10.7185 -0.144352 0.274779)
(10.952 -0.0217462 0.123206)
(10.4453 -0.159045 -0.0887184)
(9.73748 -0.415438 -0.127684)
(9.90617 -0.539438 0.0280834)
(11.0993 -0.157131 0.121845)
(11.4156 0.0485988 0.085461)
(11.0611 0.250082 0.0513732)
(10.2637 0.582496 0.0367402)
(10.0421 0.658453 -0.0267112)
(10.3627 0.439069 -0.119585)
(10.3838 0.113237 -0.156029)
(10.2248 0.062094 0.0228393)
(10.0886 0.0169451 -0.0108424)
(10.0664 -0.0176169 -0.0547143)
(10.0592 -0.0440725 -0.0203476)
(10.0282 -0.0591457 0.0666213)
(9.9852 -0.0713074 0.212245)
(10.009 -0.0555704 0.252103)
(10.0023 -0.00546903 -0.0366692)
(9.88279 0.0239825 -0.186669)
(9.80416 0.0205967 -0.0475406)
(9.86881 0.0161962 0.0624473)
(9.94863 0.0279138 -0.0326535)
(9.95075 0.0354328 -0.115867)
(9.91544 0.00295257 -0.0275526)
(9.92178 -0.0136295 0.0261914)
(9.99179 0.00353163 -0.0734303)
(9.97926 0.000794612 -0.122715)
(9.85926 -0.0182136 -0.0326311)
(9.7697 -0.0327628 0.0728801)
(9.87915 -0.0549024 0.221607)
(10.6712 -0.0120682 0.324829)
(10.8697 0.00738054 0.137163)
(10.1749 -0.085208 -0.169681)
(9.39951 -0.264292 -0.159681)
(10.4101 -0.186053 0.0965222)
(11.0876 -0.00627207 0.115307)
(11.3026 -0.0160372 0.0250017)
(10.9967 0.0293331 -0.014893)
(10.5655 0.181705 -0.0149877)
(9.9791 0.255306 -0.0641716)
(10.1264 0.168072 -0.284741)
)
;
    }
}


// ************************************************************************* //
