/*--------------------------------*- C++ -*----------------------------------*\
| =========                 |                                                 |
| \\      /  F ield         | OpenFOAM: The Open Source CFD Toolbox           |
|  \\    /   O peration     | Version:  2506                                  |
|   \\  /    A nd           | Website:  www.openfoam.com                      |
|    \\/     M anipulation  |                                                 |
\*---------------------------------------------------------------------------*/
FoamFile
{
    version     2.0;
    format      ascii;
    arch        "LSB;label=32;scalar=64";
    class       volScalarField;
    location    "0.06";
    object      Ksl;
}
// * * * * * * * * * * * * * * * * * * * * * * * * * * * * * * * * * * * * * //

dimensions      [1 -3 -1 0 0 0 0];

internalField   nonuniform List<scalar> 
4608
(
157308
214481
198372
140014
211536
125362
221988
190715
189851
134600
162456
201130
121225
237220
179120
207618
196178
282033
232781
205787
180349
173273
242800
140689
236560
78652.5
207345
104973
207898
246935
257077
305281
156008
264705
318153
163768
190748
154065
115533
229549
205085
190660
156260
294609
148113
252896
210830
179164
157256
185866
163579
347008
126097
215209
197164
178774
240001
252248
259676
156214
243377
200840
198582
125816
259370
150608
313895
199232
561545
176294
242824
257944
204001
273429
193250
259273
250848
211775
211853
264772
206442
181641
278599
355553
304752
311003
212562
246085
194354
265048
257284
181651
241156
310193
178154
194516
300652
305321
171289
174848
182508
170220
252554
312827
323990
275545
215519
223154
317699
180814
255398
204454
261304
199015
197196
210292
278565
285370
161580
260926
249849
249638
151061
400122
197664
123960
222835
422918
168373
199540
256726
247934
167959
184915
210837
233688
273871
261144
221932
293808
260272
239418
250149
240964
268966
157942
256968
139356
280520
175985
253077
243032
202801
348017
307811
170954
226613
389766
241283
234117
485895
147765
258298
251896
298048
311644
183453
138173
236233
272258
247534
492156
160593
282481
204719
259865
200356
218622
318844
263590
410315
223455
231917
235943
287258
184988
213932
280338
215875
167657
245965
185812
155054
188428
178826
179326
337387
228620
314363
217116
261369
233857
238231
240576
204382
198921
218414
218917
185370
280324
279450
247419
299419
248595
301672
247026
223434
246145
332731
486069
202497
183241
209441
315612
180379
245822
170380
187750
224166
344542
271806
175857
220428
238360
280395
294532
176995
230770
358601
282709
284167
254777
248411
166059
339393
217682
272591
293866
159357
211624
283959
565226
172001
218091
216713
222257
195647
344028
257743
173497
267935
284516
238976
258290
162608
254389
144588
123209
454722
265482
227815
235448
235788
227370
298246
255122
173509
210691
195841
196507
264901
294639
454734
203778
371411
129161
292608
135116
313388
205297
147299
301232
135320
550266
166704
291917
227937
357683
212750
235303
234055
376930
249575
220148
124147
338649
186226
280975
227499
175268
354690
219161
211146
373893
276355
213397
329681
267969
132000
264640
225630
242079
207697
287345
201722
224339
291772
248590
171038
257671
185225
284206
173051
303059
231628
233825
201835
286278
296557
177451
251584
166531
273015
373689
396183
167778
193878
162963
310709
248928
306027
198394
157105
368970
352739
236046
306659
119988
283927
365347
213551
250500
325563
363872
171119
231311
216278
193675
111840
251451
176073
210769
265903
294158
222614
186910
240428
208119
304141
582996
94628.8
186346
253539
372391
27408
40303.2
36315.2
42251
47269.8
53104.1
82296
39613.5
56108.6
29600.2
114787
63806.4
154925
140161
107619
57633.4
40331.4
58797.7
67754
81765.6
89171.6
68218.9
152362
79934.6
26377
21108.2
64759
79685.2
165631
90594.5
139890
30404.5
40130.2
65081.9
39293.1
72789.2
39510.7
85982.4
45179.6
21514.3
59950.5
46357.5
61668.5
65843.5
75780.6
85347.1
39755.4
13702.8
12896.8
24916.2
81794.5
47816.8
41861.9
37818.1
35281.2
26353.9
45977
43084.3
90272.2
22284.3
61889.3
29231.9
20706.5
40197.3
0
0
0
0
0
0
0
0
0
0
0
0
0
0
0
0
0
0
0
0
0
0
798.341
0
0
0
0
0
0
477.771
512.841
0
0
0
0
0
0
0
0
0
0
0
0
0
0
0
0
0
0
0
0
0
0
0
0
0
0
0
0
0
0
0
0
0
0
0
0
0
0
0
0
0
0
0
0
0
0
0
0
0
0
0
0
0
0
0
0
0
0
0
0
0
0
0
0
0
0
0
0
0
0
0
0
0
0
0
0
0
0
0
0
0
0
0
0
0
0
0
0
0
0
0
0
0
0
0
0
0
0
0
0
0
0
0
0
0
0
0
0
0
0
0
0
0
0
0
0
0
0
0
0
0
0
0
0
0
0
0
0
0
0
0
0
0
0
0
0
0
0
0
0
0
0
0
0
0
0
0
0
0
0
0
0
0
0
0
0
0
0
0
0
0
0
0
0
0
0
0
0
0
0
0
0
0
0
0
0
0
0
0
0
0
0
0
0
0
0
0
0
0
0
0
0
0
0
0
0
0
0
0
0
0
0
0
0
0
0
0
0
0
0
0
0
0
0
0
0
0
0
0
0
0
0
0
0
0
0
0
0
0
0
0
0
0
0
0
0
0
0
0
0
0
0
0
0
0
0
0
0
0
0
0
0
0
0
0
0
0
0
0
0
0
0
0
0
0
0
0
0
0
0
0
0
0
0
0
0
0
0
0
0
0
0
0
0
0
0
0
0
0
0
0
0
0
0
0
0
0
0
0
0
0
0
0
0
0
0
0
0
0
0
0
0
0
0
0
0
0
0
0
0
0
0
0
0
0
0
0
0
0
0
0
0
0
0
0
0
0
0
0
0
0
0
0
0
0
0
0
0
0
0
0
0
0
0
0
0
0
0
0
0
0
0
0
0
0
0
0
0
0
0
0
0
0
0
0
0
0
0
0
0
0
0
0
0
0
0
0
0
0
0
0
0
0
0
0
0
0
0
0
0
0
0
0
0
0
0
0
0
0
0
0
0
0
0
0
0
0
0
0
0
0
0
0
0
0
0
0
0
0
0
0
0
0
0
0
0
0
0
0
0
0
0
0
0
0
0
0
0
0
0
0
0
0
0
0
0
0
0
0
0
0
0
0
0
0
0
0
0
0
0
0
0
0
0
0
0
0
0
0
0
0
0
0
0
0
0
0
0
0
0
0
0
0
0
0
0
0
0
0
0
0
0
0
0
0
0
0
0
0
0
0
0
0
0
0
0
0
0
0
0
0
0
0
0
0
0
0
0
0
0
0
0
0
0
0
0
0
0
0
0
0
0
0
0
0
0
0
0
0
0
0
0
0
0
0
0
0
0
0
0
0
0
0
0
0
0
0
0
0
0
0
0
0
0
0
0
0
0
0
0
0
0
0
0
0
0
0
0
0
0
0
0
0
0
0
0
0
0
0
0
0
0
0
0
0
0
0
0
0
0
0
0
0
0
0
0
0
0
0
0
0
0
0
0
0
0
0
0
0
0
0
0
0
0
0
0
0
0
0
0
0
0
0
0
0
0
0
0
0
0
0
0
0
0
0
0
0
0
0
0
0
0
0
0
0
0
0
0
0
0
0
0
0
0
0
0
0
0
0
0
0
0
0
0
0
0
0
0
0
0
0
0
0
0
0
0
0
0
0
0
0
0
0
0
0
0
0
0
0
0
0
0
0
0
0
0
0
0
0
0
0
0
0
0
0
0
0
0
0
0
0
0
0
0
0
0
0
0
0
0
0
0
0
0
0
0
0
0
0
0
0
0
0
0
0
0
0
0
0
0
0
0
0
0
0
0
0
0
0
0
0
0
0
0
0
0
0
0
0
0
0
0
0
0
0
0
0
0
0
0
0
0
0
0
0
0
0
0
0
0
0
0
0
0
0
0
0
0
0
0
0
0
0
0
0
0
0
0
0
0
0
0
0
0
0
0
0
0
0
0
0
0
0
0
0
0
0
0
0
0
0
0
0
0
0
0
0
0
0
0
0
0
0
0
0
0
0
0
0
0
0
0
0
0
0
0
0
0
0
0
0
0
0
0
0
0
0
0
0
0
0
0
0
0
0
0
0
0
0
0
0
0
0
0
0
0
0
0
0
0
0
0
0
0
0
0
0
0
0
0
0
0
0
0
0
0
0
0
0
0
0
0
0
0
0
0
0
0
0
0
0
0
0
0
0
0
0
0
0
0
0
0
0
0
0
0
0
0
0
0
0
0
0
0
0
0
0
0
0
0
0
0
0
0
0
0
0
0
0
0
0
0
0
0
0
0
0
0
0
0
0
0
0
0
0
0
0
0
0
0
0
0
0
0
0
0
0
0
0
0
0
0
0
0
0
0
0
0
0
0
0
0
0
0
0
0
0
0
0
0
0
0
0
0
0
0
0
0
0
0
0
0
0
0
0
0
0
0
0
0
0
0
0
0
0
0
0
0
0
0
0
0
0
0
0
0
0
172781
282080
170670
140848
191035
159228
195053
194863
250994
163336
158650
213692
199132
263278
187685
191067
135903
178879
168037
151611
285075
223427
179240
207722
213151
169279
186637
138121
230434
182544
141529
204564
322101
99038
329054
333708
195477
242158
183707
286153
318636
302975
185527
297871
210478
182848
258216
237024
278057
183585
181948
201672
202841
227751
184344
263746
186048
280399
189330
190249
239251
251261
268868
158083
280709
322374
257038
139887
280465
270398
193941
93417.3
229321
270545
202040
229616
194386
267839
254420
335378
165362
182608
226413
289972
275890
134901
244662
320033
217927
255490
174910
369129
149527
237434
210341
166908
121399
265998
142413
298469
204112
238439
272212
230615
498371
198754
340628
257941
477308
144400
241291
373894
256338
314821
185557
94092.6
301204
279195
133380
206289
250741
209352
259735
155875
274960
197871
173021
223991
242415
174135
224992
370199
222186
312925
153438
459268
271827
176701
200931
297066
188130
361086
310601
176623
293644
239488
250235
285167
209518
146687
203503
410688
203794
319583
235218
199259
239752
228044
207569
102042
74629.6
327429
119230
311122
173682
237417
168272
287329
221123
282229
222684
203727
351518
188574
139207
130205
279770
176155
314318
315308
116564
320541
192444
269385
261435
245353
125066
133650
390294
226456
196850
168332
67253.2
27538.1
64306.9
62368.8
29838.3
36343.6
36604
42317
82399
58270.3
82288.1
60840.9
49025.8
24401.1
18021.7
29835.6
62274.4
24735.5
35597.4
57487.2
31199.7
60839.9
60045.1
57847.3
50068.3
50161.2
79732.7
126486
43060.1
43481.1
102607
48134.4
0
0
0
0
0
0
0
0
0
0
0
0
0
0
0
0
0
0
0
0
0
0
0
0
0
0
0
0
0
0
0
0
0
0
0
0
0
0
0
0
0
0
0
0
0
0
0
0
0
0
0
0
0
0
0
0
0
0
0
0
0
0
0
0
0
0
0
0
0
0
0
0
0
0
0
0
0
0
0
0
0
0
0
0
0
0
0
0
0
0
0
0
0
0
0
0
0
0
0
0
0
0
0
0
0
0
0
0
0
0
0
0
0
0
0
0
0
0
0
0
0
0
0
0
0
0
0
0
0
0
0
0
0
0
0
0
0
0
0
0
0
0
0
0
0
0
0
0
0
0
0
0
0
0
0
0
0
0
0
0
0
0
0
0
0
0
0
0
0
0
0
0
0
0
0
0
0
0
0
0
0
0
0
0
0
0
0
0
0
0
0
0
0
0
0
0
0
0
0
0
0
0
0
0
0
0
0
0
0
0
0
0
0
0
0
0
0
0
0
0
0
0
0
0
0
0
0
0
0
0
0
0
0
0
0
0
0
0
0
0
0
0
0
0
0
0
0
0
0
0
0
0
0
0
0
0
0
0
0
0
0
0
0
0
0
0
0
0
0
0
0
0
0
0
0
0
0
0
0
0
0
0
0
0
0
0
0
0
0
0
0
0
0
0
0
0
0
0
0
0
0
0
0
0
0
0
0
0
0
0
0
0
0
0
0
0
0
0
0
0
0
0
0
0
0
0
0
0
0
0
0
0
0
0
0
0
0
0
0
0
0
0
0
0
0
0
0
0
0
0
0
0
0
0
0
0
0
0
0
0
0
0
0
0
0
0
0
0
0
0
0
0
0
0
0
0
0
0
0
0
0
0
0
0
0
0
0
0
0
0
0
0
0
0
0
0
0
0
0
0
0
0
0
0
0
0
0
0
0
0
0
0
0
0
0
0
0
0
0
0
0
0
0
0
0
0
0
0
0
0
0
0
0
0
0
0
0
0
0
0
0
0
0
0
0
0
0
0
0
0
0
0
0
0
0
0
0
0
0
0
0
0
0
0
0
0
0
0
0
0
0
0
0
0
0
0
0
0
0
0
0
0
0
0
0
0
0
0
0
0
0
0
0
0
0
0
0
0
0
0
0
0
0
0
0
0
0
0
0
0
0
0
0
0
0
0
0
0
0
0
0
0
0
0
0
0
0
0
0
0
0
0
0
0
0
0
0
0
0
0
0
0
0
0
229845
143155
160701
219400
162121
239824
190001
281412
200372
191916
132245
238964
163005
224827
283834
157582
228025
137476
144234
227547
154490
193271
181879
250819
202915
138460
147019
167257
154324
196691
136365
276979
170335
240091
215792
104397
243269
118490
228409
352599
194514
267326
277752
302440
141067
243940
342484
215531
217402
197918
136974
347316
285029
219099
107655
250539
132933
140110
319024
218927
114355
286449
141452
207936
215223
203692
243643
220303
184438
341394
214505
144558
259618
161546
246281
265563
315405
169475
180262
181792
176128
249670
199002
246057
191293
187521
309112
284722
182236
197343
232182
230715
281897
237585
229269
141728
228307
304246
152225
365816
214624
171191
270916
167838
221653
189531
200256
333744
299873
426289
271215
214992
167200
103303
185195
276595
168173
293068
185909
319078
269842
227821
218598
193207
185737
250689
236478
420554
202262
152444
181129
263880
234654
169651
439995
193423
190288
291203
266202
413357
149252
248570
258227
341437
197233
220262
232272
242977
241574
207042
235664
270840
245445
211362
256864
260983
156788
474487
153985
462543
68958.6
237957
260848
160062
238473
267809
250334
270975
211504
182940
198310
205969
182939
194148
215036
162320
250501
196707
194397
239482
223832
302465
221937
230315
233505
190833
379908
331504
252747
192385
271984
383344
88190.6
35308.7
21509.3
25785.8
101598
71995.2
78473.5
51815.8
121937
62384.8
77224
63579.2
83329.6
81614
71837.8
73280.5
69453
71176.8
49646.7
77797.7
82365.4
48266.9
32052.8
51308.9
100159
28927.9
45102.9
41422.3
74704.3
104330
34629.3
50657.6
0
0
0
0
0
0
0
0
0
0
0
0
0
0
0
0
0
0
0
0
0
0
0
0
0
0
0
0
0
0
0
0
0
0
0
0
0
0
0
0
0
0
0
0
0
0
0
0
0
0
0
0
0
0
0
0
0
0
0
0
0
0
0
0
0
0
0
0
0
0
0
0
0
0
0
0
0
0
0
0
0
0
0
0
0
0
0
0
0
0
0
0
0
0
0
0
0
0
0
0
0
0
0
0
0
0
0
0
0
0
0
0
0
0
0
0
0
0
0
0
0
0
0
0
0
0
0
0
0
0
0
0
0
0
0
0
0
0
0
0
0
0
0
0
0
0
0
0
0
0
0
0
0
0
0
0
0
0
0
0
0
0
0
0
0
0
0
0
0
0
0
0
0
0
0
0
0
0
0
0
0
0
0
0
0
0
0
0
0
0
0
0
0
0
0
0
0
0
0
0
0
0
0
0
0
0
0
0
0
0
0
0
0
0
0
0
0
0
0
0
0
0
0
0
0
0
0
0
0
0
0
0
0
0
0
0
0
0
0
0
0
0
0
0
0
0
0
0
0
0
0
0
0
0
0
0
0
0
0
0
0
0
0
0
0
0
0
0
0
0
0
0
0
0
0
0
0
0
0
0
0
0
0
0
0
0
0
0
0
0
0
0
0
0
0
0
0
0
0
0
0
0
0
0
0
0
0
0
0
0
0
0
0
0
0
0
0
0
0
0
0
0
0
0
0
0
0
0
0
0
0
0
0
0
0
0
0
0
0
0
0
0
0
0
0
0
0
0
0
0
0
0
0
0
0
0
0
0
0
0
0
0
0
0
0
0
0
0
0
0
0
0
0
0
0
0
0
0
0
0
0
0
0
0
0
0
0
0
0
0
0
0
0
0
0
0
0
0
0
0
0
0
0
0
0
0
0
0
0
0
0
0
0
0
0
0
0
0
0
0
0
0
0
0
0
0
0
0
0
0
0
0
0
0
0
0
0
0
0
0
0
0
0
0
0
0
0
0
0
0
0
0
0
0
0
0
0
0
0
0
0
0
0
0
0
0
0
0
0
0
0
0
0
0
0
0
0
0
0
0
0
0
0
0
0
0
0
0
0
0
0
0
0
0
0
0
0
0
0
0
0
0
0
0
0
0
0
0
0
0
0
0
0
0
0
0
0
0
0
0
0
0
0
0
0
0
0
0
0
0
0
0
0
0
0
0
0
0
0
0
0
0
0
0
164026
178811
247310
224293
173998
226553
138387
216432
149951
166214
176688
196323
209425
241767
199564
207380
179582
272418
177267
226771
160443
160675
200830
165693
170077
237344
137883
302265
124758
197350
164886
249324
154847
237932
197842
224394
208218
198640
157414
202853
278915
168862
198380
205545
259033
160885
308871
239990
176159
256888
249605
229830
178484
234033
222206
101826
290650
299695
169168
216554
262201
248616
277973
255994
246252
146977
269476
182018
198229
205810
204515
164432
277685
229644
172475
245289
199596
212997
229530
239528
190273
172140
277295
227588
257500
226711
138852
320495
368541
292830
208747
244532
290509
290154
210279
230163
151049
273484
231845
263576
187909
215150
226145
141401
190911
149517
272916
140040
234545
262742
275082
263562
209478
324651
316245
248693
220573
167982
278966
174828
282231
209932
188495
199590
363209
265082
258661
326617
217523
198167
224922
208373
174305
243780
148937
209664
291478
267801
145797
278964
284971
297553
179222
341403
150241
182836
262456
386204
160314
189316
192078
381087
234784
268666
315437
272248
198284
169770
296863
200172
186104
242863
241011
203411
190102
157106
243035
185265
349063
239800
208594
226166
231545
315951
205137
181214
126830
336074
238316
269615
256243
287953
359472
222119
287903
167262
149669
323681
127323
216051
210488
251016
35036.9
39980.7
54752.6
48985.9
55893.6
53697.9
47078.8
138002
72201.2
35773.9
28806.4
27922
49548.5
45620.4
76401.3
87823
65807.4
25977
42926.5
37194.2
42090
20636.7
32299.7
73731.9
48950.5
16618.6
39061.9
40131.1
38821.7
80936
19663.3
35848.2
0
0
0
0
0
0
0
0
0
0
0
0
0
0
0
0
0
0
0
0
0
0
0
0
0
0
0
0
0
0
0
0
0
0
0
0
0
0
0
0
0
0
0
0
0
0
0
0
0
0
0
0
0
0
0
0
0
0
0
0
0
0
0
0
0
0
0
0
0
0
0
0
0
0
0
0
0
0
0
0
0
0
0
0
0
0
0
0
0
0
0
0
0
0
0
0
0
0
0
0
0
0
0
0
0
0
0
0
0
0
0
0
0
0
0
0
0
0
0
0
0
0
0
0
0
0
0
0
0
0
0
0
0
0
0
0
0
0
0
0
0
0
0
0
0
0
0
0
0
0
0
0
0
0
0
0
0
0
0
0
0
0
0
0
0
0
0
0
0
0
0
0
0
0
0
0
0
0
0
0
0
0
0
0
0
0
0
0
0
0
0
0
0
0
0
0
0
0
0
0
0
0
0
0
0
0
0
0
0
0
0
0
0
0
0
0
0
0
0
0
0
0
0
0
0
0
0
0
0
0
0
0
0
0
0
0
0
0
0
0
0
0
0
0
0
0
0
0
0
0
0
0
0
0
0
0
0
0
0
0
0
0
0
0
0
0
0
0
0
0
0
0
0
0
0
0
0
0
0
0
0
0
0
0
0
0
0
0
0
0
0
0
0
0
0
0
0
0
0
0
0
0
0
0
0
0
0
0
0
0
0
0
0
0
0
0
0
0
0
0
0
0
0
0
0
0
0
0
0
0
0
0
0
0
0
0
0
0
0
0
0
0
0
0
0
0
0
0
0
0
0
0
0
0
0
0
0
0
0
0
0
0
0
0
0
0
0
0
0
0
0
0
0
0
0
0
0
0
0
0
0
0
0
0
0
0
0
0
0
0
0
0
0
0
0
0
0
0
0
0
0
0
0
0
0
0
0
0
0
0
0
0
0
0
0
0
0
0
0
0
0
0
0
0
0
0
0
0
0
0
0
0
0
0
0
0
0
0
0
0
0
0
0
0
0
0
0
0
0
0
0
0
0
0
0
0
0
0
0
0
0
0
0
0
0
0
0
0
0
0
0
0
0
0
0
0
0
0
0
0
0
0
0
0
0
0
0
0
0
0
0
0
0
0
0
0
0
0
0
0
0
0
0
0
0
0
0
0
0
0
0
0
0
0
0
0
0
0
0
0
0
0
0
0
0
0
0
0
0
0
0
0
0
0
0
0
0
0
0
0
0
0
0
0
222305
185763
171416
196403
165085
198607
204203
147945
269519
194616
157314
179767
146540
300289
110725
142603
236471
148846
284503
243325
180150
249529
173725
149683
130149
210942
148652
279546
296993
144343
313676
167487
177825
141298
343888
115444
227391
309234
296302
175780
243625
237572
363364
243041
209038
246172
231826
174902
273586
185203
131486
248434
178199
221807
213809
169582
395787
178693
149362
247657
178684
277200
201230
181965
271773
256347
300085
213394
218584
232273
173507
233775
197454
160309
204210
194341
198119
196362
201511
323161
357201
289908
391314
170554
207160
268390
214885
281109
168843
323299
117506
237252
294589
172071
253294
167902
312985
258127
278816
200713
220909
229728
176921
262726
255828
243932
232478
167258
177454
344179
151373
218947
279902
265348
213948
306770
273285
202871
191623
228899
156133
234403
221454
144673
168473
218048
223264
148473
196512
433014
202121
132312
188352
352244
188890
223578
288479
196343
281134
245631
217388
207917
199642
194618
287758
220225
245426
192044
279111
293463
244612
243477
217074
353208
188933
191739
195733
192003
272118
209036
145145
305444
248970
199172
100960
191783
170454
213779
248943
233383
213156
176579
243597
281318
298932
325201
189529
191135
181904
185785
156171
254553
165626
175131
150633
358540
175722
301505
285997
237834
241169
200339
75743.8
100888
79878.9
47863.6
57834.4
41585.1
81542.2
111256
24273.3
31821.6
30056.9
166177
70082.8
24176.6
64508.8
46828
34134.1
35055.1
45913.4
42055.3
19629.3
55315.2
23697.7
28253.9
36189.2
24661.4
31636.9
35018.4
12717.4
86178.5
42903.2
41654
0
0
0
0
0
0
0
0
0
0
0
284.076
0
0
0
0
0
0
0
0
0
0
0
0
0
0
0
0
0
0
0
0
0
0
0
0
0
0
0
0
0
0
0
0
0
0
0
0
0
0
0
0
0
0
0
0
0
0
0
0
0
0
0
0
0
0
0
0
0
0
0
0
0
0
0
0
0
0
0
0
0
0
0
0
0
0
0
0
0
0
0
0
0
0
0
0
0
0
0
0
0
0
0
0
0
0
0
0
0
0
0
0
0
0
0
0
0
0
0
0
0
0
0
0
0
0
0
0
0
0
0
0
0
0
0
0
0
0
0
0
0
0
0
0
0
0
0
0
0
0
0
0
0
0
0
0
0
0
0
0
0
0
0
0
0
0
0
0
0
0
0
0
0
0
0
0
0
0
0
0
0
0
0
0
0
0
0
0
0
0
0
0
0
0
0
0
0
0
0
0
0
0
0
0
0
0
0
0
0
0
0
0
0
0
0
0
0
0
0
0
0
0
0
0
0
0
0
0
0
0
0
0
0
0
0
0
0
0
0
0
0
0
0
0
0
0
0
0
0
0
0
0
0
0
0
0
0
0
0
0
0
0
0
0
0
0
0
0
0
0
0
0
0
0
0
0
0
0
0
0
0
0
0
0
0
0
0
0
0
0
0
0
0
0
0
0
0
0
0
0
0
0
0
0
0
0
0
0
0
0
0
0
0
0
0
0
0
0
0
0
0
0
0
0
0
0
0
0
0
0
0
0
0
0
0
0
0
0
0
0
0
0
0
0
0
0
0
0
0
0
0
0
0
0
0
0
0
0
0
0
0
0
0
0
0
0
0
0
0
0
0
0
0
0
0
0
0
0
0
0
0
0
0
0
0
0
0
0
0
0
0
0
0
0
0
0
0
0
0
0
0
0
0
0
0
0
0
0
0
0
0
0
0
0
0
0
0
0
0
0
0
0
0
0
0
0
0
0
0
0
0
0
0
0
0
0
0
0
0
0
0
0
0
0
0
0
0
0
0
0
0
0
0
0
0
0
0
0
0
0
0
0
0
0
0
0
0
0
0
0
0
0
0
0
0
0
0
0
0
0
0
0
0
0
0
0
0
0
0
0
0
0
0
0
0
0
0
0
0
0
0
0
0
0
0
0
0
0
0
0
0
0
0
0
0
0
0
0
0
0
0
0
0
0
0
0
0
0
0
0
0
0
0
0
0
0
0
0
0
0
0
0
0
0
)
;

boundaryField
{
    inlet
    {
        type            zeroGradient;
    }
    outlet
    {
        type            zeroGradient;
    }
    wall
    {
        type            zeroGradient;
    }
}


// ************************************************************************* //
