/*--------------------------------*- C++ -*----------------------------------*\
| =========                 |                                                 |
| \\      /  F ield         | OpenFOAM: The Open Source CFD Toolbox           |
|  \\    /   O peration     | Version:  2506                                  |
|   \\  /    A nd           | Website:  www.openfoam.com                      |
|    \\/     M anipulation  |                                                 |
\*---------------------------------------------------------------------------*/
FoamFile
{
    version     2.0;
    format      ascii;
    arch        "LSB;label=32;scalar=64";
    class       volVectorField;
    location    "0.06";
    object      U;
}
// * * * * * * * * * * * * * * * * * * * * * * * * * * * * * * * * * * * * * //

dimensions      [0 1 -1 0 0 0 0];

internalField   nonuniform List<vector> 
4608
(
(-0.00259292 -0.00169457 0.0185471)
(-0.00113685 -0.000233235 0.012781)
(-0.000924588 -0.00100926 0.0138397)
(-0.00117868 0.000373412 0.0208721)
(6.89593e-05 -0.00045483 0.013256)
(0.000381784 -0.00096123 0.0243247)
(-0.000591823 -0.000397054 0.0130815)
(0.00212095 -0.00158708 0.0145751)
(0.00159957 -0.00218866 0.0143143)
(-0.000754991 -0.00252786 0.02111)
(-0.00294807 -0.00182058 0.0176382)
(-0.000607135 -0.000565085 0.0136525)
(-0.000292772 -0.000352659 0.0231454)
(-0.000285156 -0.00175806 0.0114062)
(-8.55641e-05 -0.000921405 0.0159627)
(0.000730342 0.000165309 0.0131835)
(0.000513937 -0.000869112 0.0137986)
(-0.0013997 -0.000586337 0.00927949)
(-0.00109112 -0.000303567 0.0115057)
(-0.000175629 0.00175747 0.0142288)
(-0.000573704 0.000324297 0.0151644)
(0.000681944 -0.000677187 0.017624)
(0.0019064 0.000540239 0.010592)
(0.00100689 0.000715222 0.0209677)
(4.37545e-05 -0.000575614 0.0110518)
(-0.00132758 -0.00360402 0.033064)
(-0.000150922 0.000560863 0.0125466)
(-0.00110663 0.00349582 0.027532)
(-0.00197425 0.00213928 0.013019)
(0.00102014 0.00155658 0.0101705)
(0.00214895 0.00206253 0.00911489)
(0.00187838 0.000117094 0.0082867)
(-0.0009971 -0.00150659 0.0172381)
(1.16092e-05 -0.00132071 0.0105331)
(0.000701771 2.19494e-05 0.00742621)
(0.00121384 -0.001657 0.0158903)
(0.000343876 0.00148871 0.0135766)
(0.000851507 0.00228262 0.0175584)
(-0.000957503 0.00138928 0.0261712)
(0.000782094 0.0020827 0.0127199)
(-0.000121076 0.000636871 0.0129387)
(0.00109595 0.00112884 0.0141953)
(-0.000284385 0.00149363 0.0180194)
(-0.000232245 0.00030049 0.00810103)
(0.00181372 0.000670987 0.0200559)
(0.000697709 -0.000125858 0.0104098)
(0.00130985 0.000202142 0.0129402)
(0.00257749 0.00214342 0.0166168)
(-0.00176565 0.00137821 0.0186132)
(-0.000379759 0.00120764 0.0150855)
(-0.00103703 0.00169402 0.0170205)
(-0.000242741 0.00148734 0.00632094)
(0.00229558 0.00101125 0.0212405)
(0.00195632 0.00244814 0.012991)
(0.00173954 0.000950542 0.0142229)
(0.00174251 0.000785299 0.0157808)
(-0.00289217 0.00102535 0.0108655)
(0.000424347 0.00217577 0.0100937)
(0.00073413 0.00155179 0.00954589)
(0.000927099 0.00243087 0.0173373)
(0.00230954 0.000941337 0.0102604)
(0.00130843 0.00127754 0.0129955)
(-0.000460912 0.000135938 0.0138003)
(0.00044104 0.00054774 0.0238766)
(-0.000672006 -0.0021954 0.0238843)
(-0.00220093 -0.00357425 0.0433113)
(-0.00180831 -0.000760833 0.0193259)
(0.000481971 -0.00225693 0.0325622)
(-0.000229899 0.000129889 0.00806135)
(0.00023834 0.000550422 0.0355304)
(0.0011577 -0.000540844 0.0251046)
(0.000476454 -0.000656964 0.0216575)
(-0.0045677 -0.00320104 0.0308803)
(-0.00177698 -0.000904086 0.0231668)
(-0.000458037 -0.000382855 0.0322968)
(-0.00119401 0.00220521 0.0232952)
(0.000774503 -0.000551597 0.0247313)
(0.00258001 0.00103439 0.0299617)
(0.000969606 -9.52731e-05 0.0296869)
(0.00110746 -0.000147453 0.0233716)
(-0.000704058 -0.00196613 0.0313792)
(-0.000535655 -0.00458235 0.0359387)
(0.000496675 -0.000980991 0.0206861)
(-0.000324948 -0.000381862 0.0159121)
(-0.00137081 0.00232805 0.0196605)
(0.0014978 -0.000252487 0.0188703)
(0.00107018 0.000512762 0.0286879)
(0.00192671 0.00124519 0.0257111)
(-0.00612793 -0.00282632 0.0329901)
(-0.00173762 -1.63157e-05 0.0220476)
(0.00256022 -0.000353425 0.0220144)
(0.00107668 -0.0031975 0.0331702)
(0.000965462 0.00096164 0.0258439)
(0.00158193 -0.000744932 0.0193455)
(0.00286289 -0.00122804 0.0357932)
(0.000716046 0.00427447 0.0340678)
(0.00066096 -0.000327683 0.0205561)
(0.00139442 0.00226635 0.0195285)
(-0.00228168 0.000901377 0.037959)
(-0.00195373 0.00126401 0.0365321)
(-0.000697099 0.000591185 0.0344322)
(0.000978539 0.000820701 0.036624)
(0.00383375 9.40343e-05 0.0229867)
(0.00110889 -0.000497042 0.0186712)
(-0.00132623 0.00204334 0.018653)
(-0.000757184 -0.0012872 0.0225002)
(8.42068e-05 -0.000604055 0.0298402)
(0.00199989 0.00140085 0.027849)
(0.00133045 -0.00124212 0.018583)
(0.00194371 0.00186466 0.0358287)
(0.00163025 0.00115055 0.0233941)
(0.00122754 -0.00173813 0.0315911)
(-0.000159074 0.00148346 0.0222161)
(-0.00108769 0.00232489 0.031263)
(0.000135784 0.00177017 0.0312722)
(-0.00104748 0.00072213 0.0307032)
(0.00135098 0.00167936 0.0211079)
(0.00342773 0.00123339 0.0205335)
(0.000783398 0.0013243 0.0393031)
(0.00150716 0.00148944 0.0226573)
(-4.72475e-05 0.000836482 0.023632)
(3.30672e-05 0.00133056 0.0244094)
(-0.00230816 0.00230649 0.0427438)
(0.00081607 0.00145819 0.0121595)
(0.00360477 0.00370158 0.033427)
(0.00117875 0.00044351 0.0528253)
(0.000172138 0.00232012 0.0295684)
(0.00132115 0.00319737 0.0129852)
(0.00227602 -0.00175952 0.0414259)
(0.00115915 -0.00203391 0.0341653)
(0.00136634 0.00043855 0.025228)
(0.00017826 0.000285346 0.0270747)
(-0.0020654 0.00084973 0.0389485)
(-0.000763458 0.00010479 0.0368679)
(0.000608436 0.000171229 0.0321005)
(8.00166e-05 0.00206357 0.0270843)
(-0.000473796 -0.00129474 0.0240434)
(0.000162209 -0.00224739 0.0257713)
(0.0010347 -0.00179256 0.0313559)
(0.000792059 -0.000273449 0.0222447)
(0.000138873 0.000491185 0.0254708)
(-0.000197095 0.00150713 0.0273545)
(0.0012392 0.000298292 0.0266214)
(0.0012142 0.00054198 0.027157)
(-0.000699871 -0.000445762 0.0239353)
(-0.000458894 -0.00107743 0.0431649)
(0.00066802 -0.00123549 0.0245849)
(0.00136489 -0.00350515 0.0502069)
(0.000696435 0.000133706 0.0238501)
(0.000242264 0.00179649 0.0389363)
(-0.000124983 -1.96461e-05 0.0260574)
(0.00151363 5.88719e-05 0.0276095)
(-8.67676e-05 0.00182919 0.0324837)
(-5.02544e-05 0.000473362 0.0175086)
(-0.00045949 -0.000275878 0.0193668)
(0.00162215 -0.00100751 0.0412008)
(0.00278096 -0.00076083 0.0295964)
(0.000253038 -0.0017297 0.0154339)
(-0.00168085 -0.000330587 0.026739)
(0.000745663 0.000267792 0.0286952)
(0.000546422 0.000168317 0.0116638)
(-0.00168689 0.000937813 0.0466281)
(-0.00120216 0.000305992 0.0254589)
(-0.000610781 0.00133199 0.0262924)
(-0.00136644 -5.79601e-05 0.0227031)
(-0.000297983 -0.00252628 0.0217079)
(0.00369348 -0.000450013 0.0393907)
(0.000987856 -0.000439684 0.0494344)
(0.000679417 -0.000857024 0.0271915)
(-0.00111261 -0.000577244 0.0227025)
(-0.000143694 -0.000868145 0.0268171)
(0.000936097 0.00110779 0.0115173)
(-0.000212339 0.00111136 0.0450043)
(-0.00125594 0.00124186 0.0230978)
(-0.000217723 -0.00103439 0.0330469)
(0.000374522 0.000559215 0.0255905)
(-0.000237754 -0.000106637 0.0342389)
(-0.00092269 -0.00105123 0.0294208)
(0.00101114 4.07867e-05 0.0198262)
(0.00117484 0.000817485 0.0237131)
(0.000501694 -0.000139189 0.0148914)
(-0.000520433 0.000277318 0.0295516)
(0.000563189 0.00106734 0.0285271)
(0.00261566 0.00257714 0.0273977)
(0.00087236 0.00041068 0.0216332)
(-0.00245408 -0.00303908 0.034898)
(0.000923289 0.00231041 0.0306372)
(0.00194393 8.24476e-05 0.0225473)
(-1.18832e-05 0.000558877 0.0310535)
(0.000128462 0.00115411 0.0411825)
(0.00219483 0.00168051 0.0273769)
(0.00162024 0.00162425 0.0357404)
(-0.000969109 -0.00115441 0.0455861)
(0.00132561 -0.000895761 0.0365654)
(0.00249593 0.00240908 0.0385602)
(-0.000699586 0.00248633 0.0388293)
(-0.000984536 -0.000472449 0.0181268)
(0.00015024 -0.00154908 0.0295966)
(0.00140372 0.00075916 0.0198939)
(0.0019641 0.000845174 0.0309057)
(0.00148974 -0.000809468 0.0251672)
(0.0008666 -0.0013134 0.0282235)
(0.00240175 -0.00119488 0.0277288)
(-0.00131067 -0.00200912 0.0273862)
(-0.00273058 0.00221802 0.0321603)
(0.000734822 0.00191251 0.0328091)
(0.00119557 0.00216827 0.0294552)
(0.0010272 0.00126287 0.0302686)
(0.000390998 -0.00253116 0.0373877)
(0.000181363 -0.000460491 0.0226239)
(0.00037346 -0.00159407 0.0224378)
(0.00175213 -0.00268741 0.0265184)
(0.00127143 0.00028376 0.0200545)
(8.05784e-05 0.00238388 0.0257545)
(0.000648649 0.00057122 0.0207514)
(-0.000723622 0.00162318 0.0256552)
(0.0021975 0.000153421 0.0299869)
(0.000888668 0.00051085 0.026634)
(2.84744e-05 0.000698568 0.0184984)
(3.29321e-05 0.000672723 0.0120337)
(0.0033011 0.000798462 0.0323956)
(0.000381691 -0.000227725 0.0363852)
(-0.000598846 -0.000933112 0.0312985)
(-0.000420533 -0.0010297 0.0204153)
(0.000177451 0.00230858 0.0370257)
(0.00117025 7.30276e-06 0.0257401)
(0.00161778 0.00218445 0.0412465)
(0.00134286 0.00318242 0.037325)
(-0.000368563 5.60702e-05 0.0304587)
(-0.00139319 -0.00135784 0.0190345)
(-0.00111451 -0.000682345 0.02467)
(0.00037542 -0.00160681 0.0390513)
(0.000326076 0.00171097 0.0294957)
(0.000560831 0.000155905 0.0269596)
(0.00109475 0.000596576 0.0226184)
(-0.000484707 0.000511935 0.021851)
(-0.00223296 -0.000246061 0.0407237)
(-0.0008625 0.000375978 0.0305899)
(-0.000212057 -0.000491716 0.0185315)
(-9.80565e-05 0.000695215 0.0238492)
(0.000810523 -0.000263276 0.023414)
(-0.000191429 -0.00072319 0.0257895)
(0.0012856 -0.00117431 0.0264548)
(0.000357117 -0.000246377 0.0416233)
(0.000265861 -9.28735e-05 0.0183956)
(-0.00132446 5.56427e-06 0.0312112)
(-0.000432137 0.00202013 0.0248498)
(-0.000255375 -0.000303727 0.022992)
(0.00223739 -0.00354302 0.0443314)
(-0.000423694 0.00113065 0.0318229)
(0.00155003 -0.000973319 0.0235679)
(0.000758315 -0.00121606 0.00994661)
(-0.00148291 -0.00121031 0.0446876)
(0.00160027 -0.000240955 0.0325492)
(0.000302174 0.00126842 0.0324556)
(-0.00163777 -0.00226656 0.0305986)
(-0.00205921 -0.000960686 0.0359337)
(-9.5516e-05 -0.00139639 0.0180292)
(-2.36706e-05 -0.00106586 0.0255565)
(0.00252139 0.000488127 0.0400782)
(0.000529728 -0.00123127 0.0235607)
(-0.000743358 -0.000980563 0.0221504)
(0.000364272 -0.000721713 0.0268049)
(0.00138275 0.000228491 0.0245926)
(0.00134372 0.000123869 0.0432236)
(-0.000196091 0.000319745 0.0253786)
(-6.4712e-05 0.000982821 0.0454239)
(0.000312862 0.00230662 0.054404)
(-0.000435928 -0.000164983 0.0113055)
(-0.000598163 0.000180889 0.0222149)
(0.00141536 -0.000121168 0.0270076)
(0.00272709 -0.00034108 0.0267878)
(-0.000476491 -0.00109768 0.0277142)
(0.000347835 0.00153868 0.029974)
(0.000440607 0.00111556 0.0203068)
(6.39057e-05 0.00174982 0.0243963)
(-0.000466329 -0.000532236 0.0361173)
(-0.000462603 0.00131968 0.0296649)
(-0.000360207 0.000391917 0.0310876)
(0.00153922 0.000449556 0.0331242)
(0.000683795 0.000509001 0.0248119)
(0.00160211 -0.000512507 0.0215302)
(0.000137281 -0.000212981 0.0121448)
(-0.00237629 -0.000677637 0.0317858)
(-0.000819176 0.000285565 0.0148936)
(2.3957e-05 0.00485354 0.0494299)
(0.0004629 0.000836533 0.0201345)
(0.000876804 5.12145e-06 0.0529246)
(-0.000161258 0.0012471 0.0195955)
(-0.00102542 -0.000955598 0.032982)
(0.000365734 -0.00275221 0.0487081)
(0.000504192 -0.00170296 0.0199554)
(0.00522123 0.0019061 0.0520334)
(2.5303e-05 0.000443151 0.00972957)
(-0.00416284 0.00382456 0.0412629)
(0.000886942 0.0013733 0.0225719)
(-5.83027e-05 0.00163758 0.0281655)
(-0.000404497 0.000898113 0.0170739)
(-0.000271152 0.0017416 0.0307372)
(0.000253272 0.000717859 0.0272706)
(0.000539303 0.00138052 0.0276253)
(0.00094466 -0.000837213 0.015791)
(0.00126579 0.00116385 0.0269241)
(0.00107822 0.00228831 0.0319087)
(0.00326214 -0.00175168 0.0595872)
(-0.000858411 -2.42072e-05 0.0185845)
(-0.00147871 0.000496323 0.0351114)
(0.000233271 0.0011753 0.0218441)
(0.000482711 0.00339837 0.028305)
(0.000487429 0.000979234 0.040309)
(0.000539255 -0.000165452 0.0178836)
(-0.000897923 -0.0023589 0.0315321)
(0.00116069 0.000317869 0.0308701)
(0.000268721 -0.000548689 0.0158349)
(0.000864011 -0.000875201 0.0219608)
(0.00337821 -0.000258985 0.0327252)
(6.76812e-05 0.000149331 0.0187169)
(-0.00202734 0.000286093 0.0245099)
(-0.00283784 0.00010762 0.0563932)
(-0.00117324 -0.000669029 0.0251284)
(0.000902863 -0.000828088 0.0184417)
(-0.000263092 -0.000760872 0.0170724)
(-0.0016484 -0.00337889 0.0196635)
(-0.000374246 -0.00281571 0.0136168)
(-0.000373549 -0.0028727 0.0197098)
(-0.00049203 -0.00169756 0.0172854)
(0.000254162 -0.00301316 0.0128023)
(-0.000536377 -0.000842768 0.0153373)
(0.00189596 -0.000901491 0.0246153)
(-0.00140431 -0.000812877 0.0147986)
(-0.00472869 -0.00111909 0.022111)
(0.000114374 -0.00109842 0.0135264)
(0.00077629 -0.00308071 0.0241421)
(9.58801e-05 -0.00155747 0.0131492)
(0.00174199 -0.00287915 0.0175955)
(0.00135887 -0.00120139 0.0165661)
(0.000827099 0.00272691 0.0199719)
(-0.000799285 0.000349623 0.0131104)
(-0.00162725 0.00176062 0.0127483)
(-0.00282139 0.00203672 0.0228773)
(-0.000521147 0.000396147 0.0156947)
(-0.000832104 -0.000902273 0.0252901)
(0.00112153 0.000211187 0.0138917)
(0.00218509 0.000292831 0.0100835)
(0.000857798 5.83809e-05 0.00873025)
(-0.00246094 -0.00012417 0.0236063)
(-0.00392395 0.000824582 0.0201647)
(-0.0037113 0.00255115 0.0252257)
(-0.000974279 0.00158514 0.0121686)
(0.00018308 0.00117175 0.0158305)
(0.00189445 0.00208074 0.0128278)
(0.00244382 0.00361112 0.0205727)
(0.00133281 -0.00221225 0.0262323)
(-0.000348531 -0.000115252 0.00981389)
(-0.000734516 -0.000103493 0.0106883)
(-0.000975051 0.00125572 0.0169581)
(-0.000824332 0.00112008 0.0125594)
(0.00160115 0.00609564 0.0334075)
(0.00246592 0.00227552 0.0132435)
(0.000862972 0.000948362 0.010414)
(0.000785748 0.000569286 0.0184906)
(-0.000622393 0.00106405 0.0154572)
(-0.000972841 -0.000663581 0.0117983)
(-0.000625777 0.00050063 0.0101774)
(-0.000588406 0.00192775 0.0250602)
(0.00170045 0.00225069 0.0169867)
(0.0027618 0.00165098 0.0180502)
(0.000990439 -0.000878742 0.0197923)
(0.00105948 -0.000580191 0.0369483)
(-0.00168864 -0.000303383 0.014919)
(-0.001896 -0.000627102 0.0231718)
(0.00113893 0.00218469 0.0189872)
(0.000154766 0.000948115 0.0143031)
(0.000722154 0.00115114 0.0130236)
(0.000698469 0.000373331 0.0172097)
(-0.000342995 -0.000657412 0.0209486)
(0.000161833 -0.00183683 0.0159421)
(-0.000665223 -0.00127009 0.0186519)
(0.000549866 -0.00033632 0.0118744)
(-0.000313774 -3.9002e-05 0.00609379)
(-0.00233884 0.000763106 0.0423833)
(0.00126232 0.000793675 0.0208623)
(0.000192534 -0.000993626 0.0149381)
(0.000172695 -0.000334021 0.010081)
(0.000836731 -0.000610941 0.0238551)
(0.00083209 -0.000631287 0.0144805)
(-0.000580906 0.000588178 0.0211105)
(0.000218448 -0.000200339 0.0210842)
(-0.000489374 0.000765755 0.0197405)
(0.000165174 0.000176483 0.0176795)
(-0.000131397 -4.83878e-05 0.0119341)
(-0.000565342 -5.03419e-06 0.0197244)
(-0.000298417 0.000182991 0.0184502)
(0.000376406 0.000235758 0.0218205)
(-0.000448773 0.000442308 0.0117065)
(0.00375994 -0.000761836 0.0180495)
(8.39017e-05 0.000371783 0.0089163)
(-0.000138462 -3.16743e-05 0.00998431)
(-7.62326e-05 9.02443e-05 0.0125774)
(-0.000225876 0.000126882 0.0174224)
(-0.000378354 -7.37676e-06 0.0197693)
(-0.000144028 -1.39237e-05 0.0134895)
(-0.000485423 3.09202e-05 0.0146055)
(-0.000458955 0.00032545 0.0160386)
(-0.000212473 0.000383007 0.0162956)
(0.000213744 -0.000177245 0.0215846)
(2.97224e-05 1.14199e-05 0.00985216)
(-0.000473017 -0.000213558 0.0135967)
(-0.000630413 -8.57769e-05 0.0173075)
(-0.00016426 0.000117628 0.0245226)
(-0.00067396 -0.000207243 0.0141143)
(-0.000793803 4.80464e-05 0.016164)
(-0.000238051 2.31067e-05 0.00807207)
(-0.000143627 0.000240773 0.0169572)
(-0.000171824 -0.000103471 0.00943132)
(-0.000458641 -0.000129814 0.0296639)
(-0.000364498 4.78511e-05 0.0196395)
(-0.000396525 0.00024463 0.0122841)
(-0.000377743 6.18439e-05 0.0225317)
(-0.000473978 4.98327e-05 0.0146625)
(-0.000302952 -0.000590067 0.0274644)
(1.06124e-05 9.82552e-05 0.0141628)
(9.89013e-05 -0.000396672 0.0203577)
(0.000566398 0.000648953 0.0140214)
(6.92858e-05 -0.000714014 0.0137971)
(-7.84184e-05 -0.000248132 0.0138423)
(0.000277852 0.000181481 0.0149281)
(0.000334376 -0.00033833 0.0135037)
(-8.56307e-05 0.000239328 0.0150967)
(3.87857e-06 9.48667e-05 0.0118344)
(-0.000752545 0.000615693 0.0166641)
(-0.000422253 -0.000322986 0.0227765)
(-0.000699541 -0.000425917 0.0469527)
(0.00080855 -0.000121161 0.0191004)
(-0.000120295 9.44957e-05 0.0135419)
(-0.000404387 -5.09663e-05 0.0168521)
(-0.000369361 -1.05759e-05 0.018235)
(4.51727e-05 -2.09992e-05 0.0181798)
(-8.71463e-05 0.00028941 0.0145313)
(-0.000257479 0.000213667 0.0188974)
(-8.69445e-05 0.000158204 0.0186001)
(0.000958824 -0.00024479 0.0156222)
(-0.000354447 -0.000200147 0.0107282)
(-0.000913947 0.000345861 0.0177381)
(-0.00050375 -1.72131e-05 0.0147089)
(-0.000630525 0.000277816 0.0203835)
(0.000270682 -0.00020529 0.0262191)
(-0.000813348 -0.000517214 0.0114208)
(-0.000250202 -0.000323995 0.0288225)
(0.000124556 0.000317847 0.0249617)
(0.000320921 0.000392413 0.026777)
(0.000261601 0.000230891 0.0297192)
(0.000221021 0.000151485 0.0282102)
(0.000234267 -0.000369868 0.0222342)
(0.000236406 -8.28262e-05 0.0192436)
(0.00067879 -0.000563185 0.0259877)
(-0.00109588 7.91671e-05 0.0262462)
(4.06169e-05 0.000181403 0.0254242)
(0.000625462 5.83946e-05 0.0181172)
(0.000250683 -0.000241825 0.0298272)
(-0.000246003 -0.000307104 0.0188822)
(-7.78164e-05 -0.000843696 0.0143629)
(1.99534e-05 -0.000850111 0.0162605)
(0.000164154 -0.00084935 0.0245642)
(-0.000898448 -0.000581131 0.0256474)
(-0.00013852 -0.000521045 0.0216522)
(2.75413e-05 -0.000693156 0.0198467)
(-0.00019971 -0.000811588 0.0227715)
(-0.000560142 -0.000385367 0.021462)
(-0.000332561 -0.000914199 0.0266424)
(0.000100388 -0.000768292 0.00860424)
(-1.45874e-05 -0.00113056 0.0208823)
(-0.00144754 -0.000335498 0.0246762)
(-0.000227974 -0.000224634 0.0260857)
(0.000164204 -0.000675352 0.0227099)
(-7.07035e-05 -0.000556426 0.0230606)
(-0.000517441 -0.000668767 0.0123562)
(-0.000545507 -0.000213703 0.0184841)
(-0.000185723 -0.000344365 0.0103722)
(0.000300178 -0.000832644 0.0292729)
(-0.000979024 -3.02155e-05 0.024708)
(-0.000529745 0.000319586 0.0204351)
(-0.000376477 -7.39143e-05 0.0263727)
(-0.000458932 -0.000123144 0.0226921)
(-0.00041664 -0.00042937 0.0301461)
(-0.000165451 9.20034e-05 0.0241621)
(-0.000454474 -0.000201878 0.0240331)
(-5.09478e-05 -0.000391693 0.0247603)
(-0.000806843 -0.00127935 0.0238393)
(-0.000212323 -0.000580392 0.0202195)
(-0.000194782 -5.32984e-05 0.0204762)
(-0.000400424 -0.000225451 0.0199779)
(-0.000408264 4.8075e-05 0.0227619)
(-0.00056636 -8.85773e-05 0.0184356)
(-0.00102407 -5.90024e-05 0.02299)
(-0.000410638 6.87905e-06 0.0259668)
(-0.0011027 3.16615e-05 0.0371013)
(0.000934829 4.99806e-05 0.0261711)
(6.11423e-06 5.35721e-05 0.0206339)
(-0.00044417 -0.000344018 0.0232644)
(-0.000407807 -0.00025266 0.024798)
(-0.000446732 -0.000313992 0.0240478)
(-0.000428246 -0.000273901 0.0234219)
(-0.000179726 0.000779356 0.0241088)
(-0.000900422 0.00141012 0.0277727)
(-0.000212827 0.000245157 0.0240863)
(-0.000741535 0.000252849 0.0188872)
(-0.00084577 0.000369388 0.0240241)
(-0.000471301 4.36236e-05 0.02638)
(-0.000767676 0.000353472 0.0273674)
(0.00010248 0.00045074 0.0296427)
(0.000147791 0.000891035 0.0218238)
(0.000843898 0.000649888 0.00866652)
(0.000733595 0.000821076 0.00809533)
(0.000286489 0.000834567 0.00788634)
(0.000233287 0.000316174 0.00838929)
(0.000848595 0.00117425 0.00809535)
(0.000720953 0.00097535 0.00673556)
(-0.000388177 0.00128924 0.00631525)
(-0.000785275 0.000484481 0.00740495)
(2.1354e-05 0.000842872 0.00765255)
(0.000719481 0.000866444 0.00752988)
(0.000228388 0.000890063 0.00620924)
(0.000344045 0.000800013 0.0073748)
(0.00102504 0.000873257 0.00628384)
(0.000524675 0.000215986 0.00544394)
(-0.000778857 0.000897758 0.00556704)
(-0.00149343 0.000404061 0.00735796)
(9.49636e-05 0.000258609 0.00743631)
(0.000616608 0.000201168 0.00683473)
(0.000196445 6.56373e-06 0.00613784)
(0.000186981 0.000490644 0.00654078)
(0.000231242 0.000467078 0.00634662)
(0.000741958 -5.71891e-05 0.00688163)
(-0.000165262 0.000163925 0.00516529)
(-0.0016007 -0.000167858 0.00714017)
(-0.000183483 -4.27602e-05 0.00751277)
(0.000396803 2.18577e-05 0.0077231)
(0.000451465 -0.000457248 0.00687647)
(0.000689173 -0.000163843 0.0066615)
(0.000422165 -0.000692226 0.00551654)
(0.000196346 -0.000365984 0.00629749)
(-0.000875809 -0.00110633 0.00575465)
(-0.00123772 -0.000603137 0.00854389)
(0.000122586 -0.000267868 0.00737794)
(0.00018621 9.32895e-05 0.00680938)
(-3.45404e-05 -4.86743e-05 0.00743335)
(-0.000135726 -0.00016458 0.00702725)
(-5.57527e-05 -0.000920454 0.00809885)
(0.000255248 -0.000688165 0.00737221)
(-0.000441174 -0.00126966 0.00760783)
(-0.000523293 -0.000483907 0.00839669)
(0.000297311 -0.00122306 0.00768821)
(0.000629173 -0.000787282 0.00681005)
(0.000176888 -0.00012729 0.00649875)
(-0.000238606 -0.000333965 0.00643317)
(-0.00019523 -0.000324119 0.00708024)
(-0.000275877 -0.000557155 0.00669069)
(-0.000793346 -0.00077073 0.00768637)
(-0.000500685 -0.000419184 0.0086857)
(7.74777e-05 -0.000564948 0.0104101)
(0.00128494 -0.000675803 0.00818409)
(0.000396558 -0.000424137 0.00669311)
(-0.000390469 -0.000693481 0.00703919)
(-0.000360387 -0.000894947 0.00761035)
(-0.000297144 -0.00115269 0.00764767)
(-0.000394261 -0.00114164 0.0079423)
(-0.000264807 -0.000496517 0.00814154)
(0.000149582 0.000318685 0.00848052)
(0.000739268 -0.000602507 0.00759499)
(0.000106802 -0.000648219 0.00641416)
(-0.000764078 -0.000376144 0.007249)
(-0.000710405 -0.000720723 0.00807446)
(-0.000586099 -0.000713321 0.00854489)
(-0.000149257 -0.00100656 0.00922916)
(5.31159e-05 -0.00108646 0.00792812)
(0.000253138 0.000344373 0.0143861)
(0.000333427 0.00052364 0.01398)
(0.000232153 0.000573155 0.0137048)
(0.000190451 0.000453262 0.0138438)
(0.000430627 0.000728659 0.0136494)
(0.000359573 0.000599668 0.0130501)
(-8.94963e-05 0.000595098 0.0129203)
(-0.000283077 7.60421e-05 0.0134887)
(2.31503e-05 0.000434308 0.01373)
(0.000350427 0.000521553 0.0134643)
(0.000221448 0.000557124 0.01296)
(0.000229384 0.000542231 0.0133039)
(0.000431082 0.000539512 0.0127639)
(0.000205817 0.000229682 0.0123427)
(-0.000359732 0.000348354 0.0123181)
(-0.000670588 2.28188e-05 0.0132871)
(0.000135579 0.000142605 0.0134744)
(0.000368356 0.000175342 0.0131022)
(0.00022412 0.000129534 0.0127259)
(0.000162736 0.000277788 0.012843)
(0.000117636 0.000222556 0.0125898)
(0.000180385 -2.17939e-05 0.0126591)
(-0.000258019 -4.33773e-05 0.011996)
(-0.000801264 -0.000199921 0.0130661)
(8.28985e-05 -3.87742e-05 0.013441)
(0.000310273 -9.91347e-06 0.0132563)
(0.000300468 -0.000170239 0.0128994)
(0.000297581 -0.000115279 0.0127023)
(0.00011758 -0.000332712 0.012222)
(-6.23029e-05 -0.000288772 0.012338)
(-0.000526368 -0.000566695 0.0121544)
(-0.000720934 -0.000414657 0.0133901)
(0.00019397 -0.000175416 0.0134883)
(0.000235459 -6.72314e-05 0.0130714)
(0.00010393 -0.000124329 0.0131268)
(-2.77086e-05 -0.00021298 0.012945)
(-8.81038e-05 -0.000517482 0.0131999)
(-8.6682e-05 -0.000494385 0.0129934)
(-0.00040794 -0.000690796 0.0130304)
(-0.000463754 -0.000417356 0.0135298)
(0.000213474 -0.000486743 0.0137103)
(0.000364681 -0.000393103 0.0131299)
(0.000143838 -0.000212561 0.0128463)
(-0.000123295 -0.000304983 0.0127481)
(-0.000207747 -0.000384105 0.0129827)
(-0.000291622 -0.000482442 0.0128922)
(-0.000502902 -0.000559148 0.0132448)
(-0.000403361 -0.000373955 0.0136648)
(5.01147e-05 -0.000188259 0.0146459)
(0.000501762 -0.000343256 0.0137446)
(0.000178136 -0.000330858 0.0130819)
(-0.000227331 -0.000467606 0.013091)
(-0.000307447 -0.000612459 0.013351)
(-0.000312674 -0.0007101 0.0133922)
(-0.00034296 -0.000685361 0.0135905)
(-0.000238435 -0.000410044 0.0137159)
(-0.000113582 0.000226899 0.0141749)
(0.000211254 -0.000244374 0.0136936)
(1.88555e-06 -0.000378625 0.0131247)
(-0.000426248 -0.000377759 0.0132759)
(-0.000477361 -0.000564343 0.0137179)
(-0.000391167 -0.000576588 0.0139231)
(-0.000206565 -0.000635885 0.0142337)
(-6.84926e-06 -0.000584202 0.0140005)
(0.000257461 0.0003613 0.0126277)
(0.000278184 0.000371968 0.0125067)
(0.000221472 0.000360485 0.0123683)
(0.00015985 0.000323209 0.0123673)
(0.000185049 0.000384908 0.0122789)
(0.000100229 0.000332493 0.0120605)
(-0.000108615 0.000329552 0.012011)
(-0.000237188 0.000151228 0.0121636)
(0.000132589 0.0003364 0.0123373)
(0.000240726 0.000341276 0.0122391)
(0.000195609 0.000333369 0.0120496)
(0.00015703 0.000316032 0.0120898)
(0.000162441 0.000298692 0.0119157)
(3.92478e-05 0.000191579 0.011781)
(-0.00019792 0.000188391 0.0117907)
(-0.000330216 6.99931e-05 0.0121321)
(0.00015947 0.000152479 0.0122311)
(0.000238781 0.00015903 0.0120831)
(0.000183318 0.000139035 0.0119117)
(0.000122251 0.00015776 0.0119024)
(6.22706e-05 0.000117531 0.0118091)
(-4.42514e-06 2.3224e-05 0.0118432)
(-0.000207805 -1.85542e-05 0.0117156)
(-0.000376978 -7.73606e-05 0.0121184)
(0.000141452 9.08795e-06 0.0122284)
(0.000217033 1.14421e-05 0.012109)
(0.000186956 -3.87116e-05 0.0119444)
(0.000130075 -5.16434e-05 0.0118434)
(2.52051e-05 -0.000137606 0.0117097)
(-9.56814e-05 -0.000169145 0.0117717)
(-0.000290159 -0.000256005 0.0117988)
(-0.000365112 -0.000226784 0.0122416)
(0.000170116 -0.000100774 0.012279)
(0.000191641 -8.08075e-05 0.0120964)
(0.000116564 -0.000107295 0.0120352)
(1.54639e-05 -0.000157947 0.0119629)
(-6.58798e-05 -0.000272654 0.0120327)
(-0.000134432 -0.000306403 0.0120283)
(-0.000273827 -0.000371213 0.0121131)
(-0.000298901 -0.000305137 0.0123672)
(0.000163597 -0.000221098 0.0123831)
(0.000212644 -0.000212476 0.0121483)
(0.000106474 -0.000186087 0.0119986)
(-4.52449e-05 -0.000230611 0.011949)
(-0.000139755 -0.000296544 0.0120435)
(-0.000215242 -0.000350386 0.0120799)
(-0.00030901 -0.000390341 0.0122527)
(-0.00028416 -0.000342907 0.0124593)
(0.000110633 -0.00016021 0.0126616)
(0.000224858 -0.000221836 0.0123739)
(9.33106e-05 -0.000242482 0.012132)
(-0.000105545 -0.0003025 0.0121161)
(-0.000201749 -0.00038493 0.0122381)
(-0.000247439 -0.000438976 0.0123081)
(-0.000283435 -0.000456712 0.0124415)
(-0.000245955 -0.000403924 0.0125376)
(5.44545e-05 -5.72547e-05 0.0124924)
(0.000127274 -0.000191676 0.0123689)
(1.95521e-05 -0.000246692 0.0121892)
(-0.00019575 -0.000270434 0.0122349)
(-0.000286029 -0.000364034 0.0124377)
(-0.000295181 -0.000398741 0.0125543)
(-0.000274001 -0.000445546 0.0127012)
(-0.000203384 -0.000475694 0.012682)
(0.000126829 0.000212407 0.0127314)
(0.000148874 0.000221318 0.0126411)
(0.000134269 0.000217942 0.0125482)
(0.000101376 0.000205648 0.0125069)
(8.89315e-05 0.000211609 0.012461)
(3.78698e-05 0.000177847 0.0123914)
(-4.688e-05 0.000155814 0.012397)
(-0.000102889 6.48162e-05 0.0124732)
(9.12289e-05 0.000189251 0.0125589)
(0.000134986 0.000194915 0.0124919)
(0.000121483 0.000190012 0.0124002)
(9.11092e-05 0.000177744 0.0123709)
(6.52493e-05 0.000159423 0.0123091)
(-1.07792e-06 0.000110915 0.0122693)
(-9.84539e-05 8.13327e-05 0.0122925)
(-0.000151902 1.67855e-05 0.0124244)
(0.000110384 9.68636e-05 0.0124824)
(0.000137123 0.000101991 0.0124049)
(0.00011244 9.31051e-05 0.0123181)
(6.99621e-05 8.58545e-05 0.0122834)
(2.29462e-05 5.82821e-05 0.0122443)
(-3.80078e-05 1.17638e-05 0.0122524)
(-0.000130922 -2.374e-05 0.0122584)
(-0.000189109 -6.19637e-05 0.012412)
(0.000107382 1.44791e-05 0.0124644)
(0.000128642 1.23048e-05 0.0123909)
(0.000103435 -7.84098e-06 0.0123078)
(5.52441e-05 -2.66926e-05 0.0122545)
(-9.12871e-06 -6.78468e-05 0.0122153)
(-8.21432e-05 -0.000100744 0.0122404)
(-0.000168305 -0.00013766 0.0122884)
(-0.000201555 -0.000143766 0.0124518)
(0.000112536 -4.82719e-05 0.0124921)
(0.000115584 -5.35537e-05 0.012403)
(7.2867e-05 -7.26311e-05 0.0123424)
(8.07293e-06 -0.000103215 0.0123049)
(-5.407e-05 -0.000153569 0.0123197)
(-0.00011118 -0.000183672 0.0123424)
(-0.000176211 -0.000211368 0.0124056)
(-0.000191118 -0.000200024 0.0125261)
(9.39844e-05 -9.45912e-05 0.0125444)
(0.000105142 -0.000112433 0.0124411)
(5.30398e-05 -0.000124875 0.0123622)
(-2.85684e-05 -0.000154834 0.012333)
(-9.46365e-05 -0.00019522 0.0123673)
(-0.000146447 -0.000225481 0.0124074)
(-0.000190931 -0.000244267 0.0124956)
(-0.000186467 -0.000230401 0.0126021)
(5.77173e-05 -8.06375e-05 0.0126447)
(8.48081e-05 -0.000124531 0.0125352)
(2.89808e-05 -0.000154173 0.0124384)
(-6.54525e-05 -0.000190527 0.0124213)
(-0.000129588 -0.000235317 0.0124737)
(-0.000165968 -0.000262909 0.0125276)
(-0.000186207 -0.000273069 0.0126125)
(-0.000168284 -0.000255593 0.0126924)
(1.00348e-05 -4.68059e-05 0.0126311)
(3.08741e-05 -0.000113372 0.0125662)
(-1.46389e-05 -0.000154439 0.0124921)
(-0.000112058 -0.000181228 0.0124974)
(-0.000169609 -0.000228565 0.0125841)
(-0.000185908 -0.000248127 0.0126574)
(-0.000182527 -0.000262476 0.0127523)
(-0.000144561 -0.000266962 0.0128154)
(7.10151e-05 0.000128232 0.0126463)
(8.39105e-05 0.000128397 0.0126053)
(7.8401e-05 0.000124174 0.0125596)
(5.97602e-05 0.000116598 0.0125299)
(4.33421e-05 0.000111094 0.0125051)
(1.27118e-05 9.10337e-05 0.0124786)
(-2.59274e-05 7.46194e-05 0.0124823)
(-5.31269e-05 3.38426e-05 0.0125065)
(5.76239e-05 0.000110325 0.0125652)
(7.59571e-05 0.000110021 0.0125313)
(6.97387e-05 0.000104476 0.0124882)
(4.98025e-05 9.47268e-05 0.0124625)
(2.66519e-05 8.07772e-05 0.0124374)
(-9.84998e-06 5.57345e-05 0.0124243)
(-5.2427e-05 3.43679e-05 0.0124388)
(-7.57831e-05 2.52208e-06 0.012487)
(6.49505e-05 6.1608e-05 0.0125257)
(7.4675e-05 6.1306e-05 0.0124865)
(6.19503e-05 5.42373e-05 0.0124442)
(3.58801e-05 4.40777e-05 0.0124197)
(4.53042e-06 2.61923e-05 0.0124033)
(-3.31533e-05 1.13258e-06 0.0124065)
(-7.51711e-05 -2.11576e-05 0.0124262)
(-9.7697e-05 -4.36202e-05 0.0124878)
(6.2497e-05 1.41815e-05 0.0125127)
(6.83244e-05 9.91419e-06 0.0124731)
(5.22415e-05 -1.60787e-06 0.0124324)
(2.16809e-05 -1.61174e-05 0.0124063)
(-1.622e-05 -3.84844e-05 0.0123948)
(-5.67315e-05 -5.99604e-05 0.0124087)
(-9.54878e-05 -7.97967e-05 0.0124423)
(-0.000109974 -9.03315e-05 0.0125102)
(6.09854e-05 -2.31101e-05 0.0125248)