FoamFile
{version 2.0; format ascii;class vectorField; location 0;object  v;}
2498
(
( 0.00260251 0.00035661 0.0120976 )  
( 0.0060793 -0.00315366 0.010065 )  
( 3.36364e-05 0.000210159 0.000130114 )  
( -0.00110793 -7.11979e-05 0.00949514 )  
( -0.000238834 0.00042418 0.00815516 )  
( -0.000811774 0.000131959 0.00814552 )  
( 0.000540442 -0.000168877 0.0102533 )  
( 0.00304031 0.00230314 0.012597 )  
( -5.11169e-05 -0.000251505 -5.5266e-05 )  
( -0.000309541 -0.000389725 0.010594 )  
( 1.40602e-05 -0.00137353 0.0124347 )  
( -0.00011401 -0.00018281 -0.000132042 )  
( 0.000290082 3.12879e-05 0.00814525 )  
( 0.00182077 -8.20905e-05 0.0103008 )  
( -0.000413282 -0.00118145 0.0112025 )  
( 0.000415421 -0.000257461 0.00939808 )  
( 0.000552133 -0.00133219 0.010154 )  
( -0.000146834 0.000183324 0.0096586 )  
( 0.00757298 0.00434848 0.0131203 )  
( -0.000672491 -0.000191681 0.0109463 )  
( 0.00283739 -0.000793864 0.0144436 )  
( -0.000149211 -0.000140395 6.12986e-05 )  
( 0.000391462 -0.000922098 0.0076117 )  
( -0.00011977 0.00132716 0.0110004 )  
( -0.000744812 -0.00101509 0.0105326 )  
( -0.000237445 -0.000519504 0.00996442 )  
( -0.000194842 -0.000520641 -0.00294008 )  
( -0.000481659 -0.000855236 -4.58014e-06 )  
( -7.8512e-05 -0.000323141 0.000152919 )  
( 0.000487218 0.00196866 0.0101453 )  
( -0.000260121 -0.000176125 1.32777e-06 )  
( 0.000894577 0.000519499 0.0111114 )  
( 0.000944491 6.5792e-06 0.0102604 )  
( 0.000453495 0.000820344 0.00985334 )  
( 0.000233375 -9.44101e-05 9.20641e-05 )  
( -0.000271278 -0.00124211 0.0116412 )  
( 0.00114868 -0.000966777 -4.25586e-06 )  
( -0.000162712 -0.000126306 0.00654107 )  
( 0.000184187 -0.0013033 0.00887667 )  
( 0.000638594 -5.71725e-05 -0.000488728 )  
( 0.000533416 -0.000352158 0.000185485 )  
( 0.000690319 0.00093609 0.00869893 )  
( -0.00153421 -0.000174363 0.0108845 )  
( -0.000752869 -0.000912262 0.00934351 )  
( -0.000626632 -0.000872638 0.00946169 )  
( 0.00133621 0.000703676 0.0106146 )  
( 0.00120538 0.00069147 0.00555232 )  
( -0.00192191 -0.0016616 0.0102544 )  
( -0.00140448 -0.000669514 0.0099915 )  
( 0.00063053 0.00180494 0.00989891 )  
( -9.00879e-05 0.0017632 0.00932964 )  
( -0.000428648 9.03129e-05 0.0118758 )  
( -0.000961399 0.000179498 0.00936304 )  
( 0.000179264 -0.0016648 0.00855282 )  
( 8.16546e-05 0.000403683 0.0104875 )  
( -0.00142729 0.00121398 0.0121154 )  
( -0.000383388 -0.000570933 0.0100662 )  
( 0.00158396 -0.000290358 0.00980682 )  
( -2.56308e-05 -0.000456181 -0.00032565 )  
( -0.00080325 0.000334487 -3.00847e-07 )  
( -0.001171 0.000613311 0.010232 )  
( 0.000502246 0.000808371 0.0104631 )  
( 0.00150878 0.00301911 0.012272 )  
( 0.0010956 0.000787486 0.0104424 )  
( 0.00101477 0.00161648 0.00985328 )  
( 3.99919e-05 0.000193967 -0.000112086 )  
( -0.000278058 -0.000755979 0.0104059 )  
( 0.000292177 -0.000292675 -0.000269812 )  
( 0.000849823 0.000310338 0.0103859 )  
( 0.00127243 0.00129017 0.0104828 )  
( 0.0030956 0.0014727 0.0096142 )  
( 0.000304583 -0.000562182 -1.65523e-06 )  
( 0.000904141 -0.000458532 0.0096723 )  
( 0.000514103 -0.00178832 0.0104918 )  
( -0.00416729 0.00446504 -0.00137975 )  
( -0.00173534 0.00120671 -8.91926e-08 )  
( 0.000297572 -0.00110025 0.00905291 )  
( 0.00101893 -0.000398614 0.0123701 )  
( 0.00638078 -0.00326208 0.0144218 )  
( -0.000323243 -0.000363504 -0.000110962 )  
( -0.00269477 0.00220655 0.0175672 )  
( 0.000212259 -0.00036828 -0.000233825 )  
( -7.57026e-05 -7.28384e-05 6.49862e-06 )  
( 0.000300451 0.000252287 0.011055 )  
( -7.6644e-05 -3.45581e-05 2.50742e-05 )  
( 0.00080338 0.000710797 0.00946129 )  
( 0.00226962 -0.000800266 0.0106983 )  
( -0.00338768 -0.00482533 0.0151279 )  
( -0.000403485 -0.0017134 0.00937553 )  
( 0.00114862 -0.00182115 0.00850615 )  
( 6.01676e-06 -0.000573389 0.0130685 )  
( 2.77408e-05 -0.000957436 0.0119794 )  
( -0.000347314 -0.00136865 0.0104263 )  
( 0.00138464 0.00130174 0.0108235 )  
( -0.000376106 -0.000635952 -1.82353e-05 )  
( -0.000539545 0.000379191 0.0080229 )  
( -0.000650767 -0.00343376 -0.00124437 )  
( -0.000272406 0.000826475 0.00717489 )  
( -0.00026599 -0.00219389 0.0103777 )  
( -4.65801e-05 0.000538467 0.0099638 )  
( 0.000330622 0.00044844 0.00822285 )  
( 0.000320589 0.00068263 0.0074981 )  
( 0.00013724 -0.000589143 0.000211872 )  
( 0.0010258 -0.000182764 0.00993399 )  
( -0.000205377 1.91015e-05 -1.14254e-05 )  
( 0.00150825 0.00168251 0.011362 )  
( 0.000553071 -0.000390578 0.0101167 )  
( -7.73443e-05 -0.00365099 0.00989558 )  
( -2.87467e-05 -0.00108202 0.0117718 )  
( -0.00128106 -0.00141682 0.00928448 )  
( 0.000359158 0.00159002 0.00785944 )  
( 0.00175979 -0.000476423 0.00928346 )  
( 0.00133731 -0.0008579 0.0103696 )  
( 0.000132682 -0.00133242 0.00881222 )  
( -0.000136335 0.00153459 0.000417936 )  
( 0.000704492 0.00118699 0.0109712 )  
( -0.000202784 -0.00281203 0.012637 )  
( 0.00212877 -0.0030704 0.016155 )  
( 0.00101459 0.000360114 0.00913403 )  
( -0.0002526 0.000562832 0.00882849 )  
( -0.000143644 0.00114827 0.0105966 )  
( -8.8669e-05 0.00185287 0.00920555 )  
( 0.00166984 -0.000462874 0.0101542 )  
( -0.000284309 -6.67358e-05 -0.000122791 )  
( -0.00096747 0.00077672 0.00727099 )  
( -0.000143439 0.000140826 0.000109659 )  
( -0.000764209 0.00163971 0.0114492 )  
( -4.61622e-05 -0.000670294 -9.49305e-05 )  
( 5.57279e-05 0.000252899 4.68804e-05 )  
( 0.00121431 0.0010114 0.00806802 )  
( -0.000863615 8.04934e-05 0.00926988 )  
( -0.00177224 0.00044564 0.00961047 )  
( -0.000258512 0.00217328 0.0107051 )  
( 0.000602232 0.00273799 0.0155234 )  
( 0.00252161 -0.00188188 0.0105705 )  
( -0.000493976 -0.00114024 -0.00138844 )  
( 0.000257341 4.42003e-05 0.0105989 )  
( -0.000353096 -0.000400527 0.0100908 )  
( 7.36291e-05 -0.000164128 1.59561e-05 )  
( 0.000147156 7.43397e-05 -3.01607e-05 )  
( -0.000163243 -0.00160774 0.0107834 )  
( 0.00161691 0.00193812 0.0134149 )  
( 0.00135331 0.000235082 0.0119786 )  
( -0.00136329 -0.00194114 -4.96756e-05 )  
( -6.03731e-06 -9.48171e-05 -0.000315463 )  
( -0.00140935 -0.000828559 0.011779 )  
( -3.70642e-05 0.00106757 0.00974966 )  
( 0.000568984 -0.000647323 0.00951814 )  
( -0.00454965 0.00411319 -0.00186537 )  
( -0.000353396 -0.000116167 -1.58581e-06 )  
( -0.00142458 -0.00215015 -1.0847e-05 )  
( -0.000434459 -0.000172109 0.00912257 )  
( -0.00393473 0.000611373 0.0101898 )  
( 0.000437293 -0.000279332 0.0106439 )  
( -0.000451616 -0.000989428 0.0100763 )  
( 0.00100006 0.00213167 0.00912287 )  
( -0.00151411 -0.00119243 -0.00029932 )  
( 3.8426e-05 -0.000646955 -0.00135012 )  
( -0.00162537 0.000953426 0.0110529 )  
( -0.00272998 0.000780125 0.0135308 )  
( 0.000348677 -0.00198141 0.00863476 )  
( -0.00138059 -0.00327924 -5.16705e-05 )  
( 0.000956406 0.000261581 0.0107655 )  
( 0.000677969 0.000336063 0.00914013 )  
( 0.00343864 0.00172058 0.00889925 )  
( -0.00114219 0.00169838 0.00753143 )  
( -0.000573694 0.00101842 0.0102566 )  
( 0.000857854 6.04339e-05 0.00921423 )  
( 0.000575887 0.000308876 0.0103949 )  
( 0.000161194 7.93521e-06 0.00979415 )  
( -0.000484832 -0.000420486 0.0104396 )  
( -8.84045e-06 -0.00080533 0.00734334 )  
( -0.000976888 0.000919966 -1.28653e-08 )  
( 0.00229402 0.000228694 0.00920946 )  
( 7.18665e-06 4.30359e-05 -2.69709e-05 )  
( 0.00183399 0.00142654 0.010628 )  
( 0.00121678 0.00108624 0.00974876 )  
( -0.00306341 -0.00201055 0.0144594 )  
( -0.000500874 -0.00116156 0.00929473 )  
( 0.00118995 -0.000314611 0.00891703 )  
( 0.000994847 0.000775533 0.0102205 )  
( 0.00162957 0.000924511 0.00892836 )  
( 0.000584559 0.000578534 0.0101489 )  
( 0.00136471 0.00042425 0.00985171 )  
( 0.00197196 -0.0019322 0.011574 )  
( -1.09813e-06 -1.65565e-05 -3.93555e-05 )  
( 7.58878e-05 0.00115796 0.00985868 )  
( -8.08742e-05 0.000157199 0.000214705 )  
( -0.000739449 -0.00113901 0.0118494 )  
( -4.39954e-05 -3.17777e-05 1.34809e-05 )  
( 0.000819777 0.000385717 0.0101579 )  
( -0.00237739 0.000569179 0.00795788 )  
( -0.00016582 0.000127257 -1.07068e-05 )  
( -0.000687322 0.000723362 0.0105449 )  
( -0.000329092 3.11371e-05 -3.53014e-06 )  
( 0.0026653 0.000897295 0.0108016 )  
( -0.00170678 -0.00357786 0.0010267 )  
( 0.000624939 -0.00031149 0.00768046 )  
( 2.72657e-05 -4.16045e-05 1.68458e-05 )  
( 0.000875347 -0.000657934 0.00930381 )  
( -0.00179744 -0.00122059 0.0108379 )  
( -6.12433e-05 -0.000460284 0.00950127 )  
( -0.000570236 -0.00051199 0.00923445 )  
( 0.000294951 -2.95388e-05 7.92577e-06 )  
( -0.00549711 0.00460303 -0.00493791 )  
( 0.0014264 -0.000683012 -0.000516367 )  
( -0.00217153 8.27574e-05 0.0101652 )  
( 0.00170238 -0.000631621 0.0119333 )  
( -0.000642186 -0.000383001 0.00896907 )  
( -0.000933522 0.000714365 -2.98436e-07 )  
( -0.000885234 0.00170812 0.012592 )  
( -0.00228628 -0.00068298 0.00757616 )  
( 0.000338953 0.000762297 0.0105429 )  
( 0.000823931 0.000859873 0.0107268 )  
( 0.00081742 -0.000968542 0.0100847 )  
( -0.000347598 2.11734e-05 -5.80452e-05 )  
( -0.000827802 0.00314594 0.0124615 )  
( -0.000103175 1.53417e-05 5.05758e-05 )  
( 0.000167503 0.000357918 0.00956652 )  
( 0.00106082 0.000666317 0.0093861 )  
( -0.00034962 -0.000214666 4.67811e-07 )  
( 4.25574e-05 -0.00014017 -0.000426338 )  
( -0.00162182 -0.000433467 0.00997225 )  
( 2.26205e-05 -1.40813e-05 2.83882e-06 )  
( 0.000593103 -0.000370369 0.0107309 )  
( -0.000532751 0.000208406 0.00012011 )  
( 0.000604131 0.000359719 0.010287 )  
( 0.000361387 0.000801177 0.0109609 )  
( 0.00272242 0.000801771 0.00762228 )  
( 0.000954016 0.000556558 0.0105279 )  
( 0.00188488 -1.94776e-05 0.00997685 )  
( -0.000151157 9.19363e-05 -3.77795e-05 )  
( 5.13699e-05 0.000657369 0.0107272 )  
( 0.00197471 0.000115427 0.00814901 )  
( -9.53071e-05 -0.00366928 0.00938669 )  
( 0.000754155 8.77554e-05 0.0103782 )  
( -0.00177967 -0.00167158 0.0124535 )  
( 0.0040078 -0.00199756 0.0137434 )  
( -0.00122106 -0.00682563 -0.00124961 )  
( 0.00158089 -0.000974904 0.0165294 )  
( 0.000445842 0.00112642 0.009403 )  
( 0.00199819 -0.00179804 0.0105269 )  
( -0.00247518 -7.20875e-05 0.0101874 )  
( -0.000140671 -0.00331205 0.0089136 )  
( 0.000286377 3.22496e-05 0.00904704 )  
( -0.00040735 -0.0015702 0.00818653 )  
( 0.000397781 3.11549e-05 0.00795844 )  
( 0.00031986 0.00127482 0.0108107 )  
( 0.000145432 0.000644271 0.00970754 )  
( -8.52418e-05 9.21931e-05 -4.72216e-06 )  
( 0.000119814 0.00107182 0.00952282 )  
( 3.18324e-05 0.000352839 -7.53307e-05 )  
( -3.48847e-05 0.00939708 -0.00692135 )  
( -0.000713592 -0.000622608 0.0120606 )  
( 0.000711712 0.000308081 0.0105033 )  
( -0.000249282 -0.000748698 -6.05731e-05 )  
( 3.94404e-05 0.00240517 0.0103446 )  
( 9.3041e-05 -0.00025853 5.65088e-05 )  
( -0.000513713 0.00103334 0.0107652 )  
( -0.00143048 -0.000119141 0.0102177 )  
( -0.000335797 -0.00022485 -2.36122e-05 )  
( 0.00146848 0.0011132 0.00939641 )  
( -0.00042439 0.000740289 0.00692129 )  
( 0.00349626 0.00309031 -0.0017017 )  
( 0.00113598 -0.000605264 0.0115532 )  
( 0.000172052 -0.00103546 0.0114656 )  
( -0.00163545 -0.0026945 0.00948372 )  
( -0.00126411 -5.90328e-05 -0.00407862 )  
( 0.0012675 -0.000390894 0.0112382 )  
( 0.000971376 0.000184448 0.00811848 )  
( 0.00157476 -0.000334237 0.0103737 )  
( 0.000728363 -0.000271779 0.0103015 )  
( -7.13042e-05 -4.96553e-05 -2.09879e-05 )  
( -0.00213789 0.000869842 0.00854769 )  
( 0.00158468 7.37079e-05 0.00996622 )  
( -0.000582144 0.00138649 0.00831577 )  
( -0.00103937 -0.00145887 0.0108337 )  
( -0.000223291 -0.000321796 3.97738e-05 )  
( 2.73875e-05 5.0147e-05 -9.69128e-06 )  
( 0.00039571 -0.00356464 0.00990289 )  
( -0.00137414 0.00169986 0.0137141 )  
( 6.44069e-05 0.00183123 0.00979831 )  
( 0.00119513 0.000200751 0.0107519 )  
( -0.000181226 -0.000989546 0.0104664 )  
( 0.000662674 0.000807149 -0.000317027 )  
( 0.00249677 0.0011825 0.0150396 )  
( 6.17109e-05 0.000314895 0.00925011 )  
( 0.000397621 3.56885e-05 0.0102607 )  
( 0.000647015 0.000893477 -0.00018784 )  
( 0.00106617 -0.000166544 0.0105376 )  
( -0.000249692 -0.00323412 0.00892999 )  
( 0.000936122 -9.85429e-05 0.0101213 )  
( 7.9799e-05 -2.25466e-05 0.000361141 )  
( 0.000165921 0.000114101 -0.000329566 )  
( 0.000520098 -0.00283906 0.0119375 )  
( 0.00201702 0.000117071 0.00995505 )  
( -4.58922e-05 0.00055494 0.0107557 )  
( 0.00145636 0.000636749 0.0106012 )  
( -0.000425532 -0.0028157 -0.000117722 )  
( 0.000539479 0.00154369 0.0105153 )  
( 0.000477361 -0.00108155 -0.00108754 )  
( -0.00013092 0.000118965 -0.000317405 )  
( 0.000674055 0.000942358 0.0102374 )  
( 1.10156e-05 -0.00107932 0.0069799 )  
( 0.00307375 0.00280605 0.0129805 )  
( 0.000298127 -6.69333e-05 -9.36434e-06 )  
( 0.000833517 -0.000184438 0.00939842 )  
( 2.03385e-06 0.00110473 0.0110338 )  
( 0.000769517 9.37487e-05 0.0105133 )  
( 0.00253688 0.000761342 0.00920541 )  
( -6.87912e-05 -0.000222862 0.009001 )  
( -0.000273511 0.000290838 -0.000100363 )  
( 0.00141712 0.000434596 0.0134555 )  
( -1.225e-05 0.00147632 0.00891438 )  
( 0.000213382 -0.00164283 0.00910295 )  
( -0.000338973 -0.000667366 6.48671e-05 )  
( 0.000412218 -0.000612054 0.000145921 )  
( 0.00124957 0.000737934 0.00921629 )  
( 0.000137934 0.000341994 -4.27549e-05 )  
( 0.000813965 -0.000504529 0.0102339 )  
( 0.000891487 -0.000883104 0.0110599 )  
( 3.73153e-05 -0.000691367 -0.000653045 )  
( -0.000371262 4.91925e-05 5.60944e-05 )  
( 0.0006281 0.00157132 0.00965486 )  
( -0.000393208 4.9942e-06 -0.000451789 )  
( 0.00176334 0.00086653 0.00991773 )  
( 0.000922293 0.00111268 0.011447 )  
( -0.000474559 0.000244243 0.00874841 )  
( 0.00161224 0.00311315 0.0072476 )  
( -0.000725675 -0.00144735 0.0138278 )  
( -0.00218191 0.001115 0.0096815 )  
( 8.49003e-05 0.000524775 6.38551e-06 )  
( -0.00208481 0.000782271 0.0102424 )  
( 0.00183064 -7.17426e-05 0.0103637 )  
( -0.000204146 -5.72162e-05 -9.59113e-05 )  
( 7.70322e-05 3.86055e-05 2.74838e-05 )  
( 0.00064391 0.000243041 0.00932376 )  
( 0.000113335 -1.18518e-05 0.0104235 )  
( -0.00047236 0.00103827 0.00847772 )  
( -0.000867451 -0.00104144 0.0080235 )  
( -0.000304837 0.000210107 2.37888e-05 )  
( -0.000379148 -0.0022783 0.0110952 )  
( 0.00155893 0.000635931 0.01104 )  
( -0.000824142 -0.00118609 0.0145907 )  
( -0.000125977 0.000102469 0.00861482 )  
( 0.000119995 -0.00102649 0.00997532 )  
( 0.000385908 0.000167834 0.00997511 )  
( 0.00102472 -0.000273724 0.00746894 )  
( 7.70464e-05 0.000145751 -0.000335422 )  
( -0.00216735 -0.000161212 0.00888208 )  
( 0.000201895 0.000271077 0.0110191 )  
( 0.00032699 -0.00164946 0.00905 )  
( -1.73691e-05 -4.14428e-05 6.19361e-05 )  
( 0.000492113 0.0002347 -0.00027902 )  
( -0.00048803 0.0031095 0.00886854 )  
( -6.2495e-05 0.000324994 0.0108908 )  
( 0.000373672 -0.000723114 0.0099254 )  
( 8.29042e-05 -0.000301939 -9.83512e-06 )  
( 0.000897012 0.00119889 -0.000191888 )  
( -0.00081658 0.000161634 0.0100242 )  
( 0.000383158 0.00134111 0.0093897 )  
( 0.00149681 0.000890327 0.00997704 )  
( -0.00267783 0.00031946 0.0127785 )  
( 0.00089585 0.00105501 0.0148646 )  
( 0.000938064 -0.000279205 0.00954919 )  
( 0.000122594 -0.00107216 0.00957933 )  
( -0.000417107 -0.000221057 0.0100989 )  
( 0.000761825 -0.00155178 0.00679709 )  
( 0.0030384 -0.00165787 0.0101127 )  
( -0.00136567 -0.00153103 0.0139107 )  
( 3.16721e-05 2.51016e-06 1.75548e-05 )  
( 0.000525342 0.000312141 0.00954008 )  
( -0.00181973 0.00422889 0.00961687 )  
( 0.00133159 -0.000107794 0.00980496 )  
( -9.21613e-06 2.13297e-05 3.24921e-05 )  
( -0.00160179 0.00131971 0.00763196 )  
( -0.000572209 0.000672932 -6.87452e-05 )  
( -0.000529883 -1.89654e-05 -9.38042e-05 )  
( -0.000218711 0.000288389 0.0180542 )  
( -0.000260721 0.000219877 2.87528e-05 )  
( 0.000485934 0.00114677 0.0100522 )  
( -0.000491701 -0.00131349 0.0102529 )  
( -0.000312228 -0.00027093 -9.74042e-05 )  
( 0.00234891 -0.00105385 0.00976795 )  
( 0.000141676 -8.16961e-05 3.97324e-05 )  
( 0.00121547 0.000548629 0.0101442 )  
( 0.00313166 -0.000819757 0.00752407 )  
( 0.00486597 0.00154815 0.0103963 )  
( -4.94957e-05 -0.000483028 -0.000426161 )  
( 0.00173482 -0.00184433 0.0114246 )  
( 0.00244905 0.00212461 0.00984307 )  
( -3.49642e-06 1.18203e-05 -3.36193e-06 )  
( -0.00170944 0.000549131 -0.000631187 )  
( -4.89285e-05 0.000115147 1.01552e-05 )  
( -1.26878e-05 2.42328e-05 -8.26316e-05 )  
( -0.000245988 0.000234802 -0.000115505 )  
( 0.000829477 0.000379194 0.0107546 )  
( -0.000126501 -0.00167757 0.0138039 )  
( -0.000298471 0.000103759 6.4499e-05 )  
( 0.00108489 0.000718813 0.0123365 )  
( -0.00154443 0.00138956 0.00876098 )  
( 0.00162673 -0.000526079 0.0098372 )  
( -0.00101117 0.000719791 0.010991 )  
( -0.000692134 -0.000476411 1.30999e-05 )  
( 0.000182713 0.0001972 0.010073 )  
( 0.000191842 -0.00143549 0.00866129 )  
( 0.000228076 -4.17402e-05 -0.00016406 )  
( -0.00127898 -0.00145102 0.010039 )  
( 0.00205545 -0.00020614 0.00985101 )  
( 0.00037706 -0.000102516 -0.000170157 )  
( 0.000195536 -0.000268236 -0.000680758 )  
( 2.55978e-05 -0.000709596 0.0121773 )  
( -0.000357025 0.00205022 0.00973372 )  
( -0.000315655 -0.000769306 0.000151833 )  
( 0.00213753 0.00112697 0.00623559 )  
( -0.00199083 -0.00204203 0.00966699 )  
( -0.000520349 -4.83574e-05 -7.59005e-08 )  
( 0.000542591 0.00101549 0.0103291 )  
( -0.000535808 0.0014526 -0.0010206 )  
( 0.000684111 0.000443827 -0.00101691 )  
( -0.000630475 0.00561982 0.00587562 )  
( -0.000491287 -0.000871208 0.00984344 )  
( 0.000587727 0.00141396 0.0100413 )  
( 0.000542818 4.0656e-05 0.011205 )  
( 0.000245614 -0.000356115 -0.000576114 )  
( -0.00143072 0.00146639 0.0108452 )  
( 0.00204108 0.00169172 0.010939 )  
( -0.000324969 -0.00028683 -0.00013181 )  
( -0.000785616 -0.000867729 0.0100078 )  
( -4.8718e-05 0.000586668 0.00952767 )  
( 0.000929768 0.000634988 0.00919929 )  
( -0.00122968 0.000819413 0.0101311 )  
( -7.7642e-05 -0.000397951 -0.000108881 )  
( 0.00169477 -0.000283131 0.00968404 )  
( 1.91932e-05 -0.000135899 1.22555e-05 )  
( 0.00112086 -0.00129572 0.0074712 )  
( 0.000269402 -0.000543552 -9.87381e-06 )  
( 6.44186e-05 -0.00273364 0.00995271 )  
( 0.000229035 -0.000976121 0.0112421 )  
( -0.0001147 -6.77601e-05 4.88485e-05 )  
( 0.00230468 0.00197815 0.00889999 )  
( -0.00059017 -0.000666489 -0.000260373 )  
( 0.00125571 0.00152351 0.00605545 )  
( -0.00330641 0.000376647 -0.000810261 )  
( -0.00185392 -0.0020645 0.0110322 )  
( 0.00137173 0.000453421 0.00892954 )  
( -0.000918818 -0.000233498 0.00899973 )  
( -0.00188076 0.00239377 0.00679706 )  
( 0.000658941 0.00255201 0.00816451 )  
( -0.00017814 -8.06605e-05 2.81085e-05 )  
( 0.000107488 -0.000534861 0.000217661 )  
( -3.30107e-05 1.29294e-05 -6.02412e-06 )  
( 0.0021052 0.00332627 0.00963962 )  
( 0.000253371 -0.000148368 0.0140808 )  
( -0.00151904 -0.000477716 0.0107084 )  
( -7.9411e-06 0.00137552 0.011406 )  
( 0.000178621 0.00172309 0.0106733 )  
( 0.000817484 0.000288313 0.00995207 )  
( 0.000943451 -0.000788567 0.00900086 )  
( 0.00105024 0.000814039 0.00705135 )  
( 0.000241042 -0.00035408 0.00703159 )  
( -8.19912e-05 -0.00296375 0.0101784 )  
( 0.000663705 0.000184438 0.0104993 )  
( -0.000123452 -0.00120229 0.0108696 )  
( 0.000747455 0.000478809 0.0106338 )  
( 0.000576899 0.000326752 0.010178 )  
( 0.00128574 -5.82493e-05 0.00940525 )  
( -0.0002445 0.000849024 0.0108154 )  
( -0.0019911 -0.00158319 0.0134257 )  
( 0.000402379 -0.000104502 0.00967373 )  
( 0.000906858 2.34094e-05 0.010953 )  
( -0.00161524 0.00205801 0.00752774 )  
( 5.71453e-05 0.000213932 0.00990411 )  
( -0.00131753 -0.00351107 0.0116568 )  
( -0.000116334 0.000173664 0.0120463 )  
( -0.000315056 -0.000233632 0.00875651 )  
( -0.00219686 -0.000371157 0.0104795 )  
( 0.000733008 -6.7457e-05 0.010274 )  
( 0.0013939 0.000614249 0.0106744 )  
( 0.000129848 -1.42873e-05 -0.000688307 )  
( -0.000344905 -0.000301767 -0.000109085 )  
( -0.000107231 0.00178644 0.00634272 )  
( 0.00030603 0.000484016 0.0105537 )  
( 4.59913e-05 0.000989443 0.00987933 )  
( 0.00289548 0.00115496 0.00856342 )  
( -8.84422e-05 2.11335e-05 -0.00013351 )  
( -0.000384798 0.000136218 0.00965552 )  
( -0.00404294 0.00222591 0.0159718 )  
( 0.000250274 -0.00014124 0.0084235 )  
( -0.0010884 -0.00187951 0.0107096 )  
( 0.000983687 -0.00119253 0.0106938 )  
( -0.000854481 -0.00166843 0.0114878 )  
( 0.00044085 -0.00021832 -6.64513e-05 )  
( 0.0005258 -8.39015e-05 0.00983878 )  
( 0.000325527 0.00227839 0.00879068 )  
( 0.00244194 0.00238177 0.00907821 )  
( 0.000333092 0.0019382 0.00748397 )  
( 0.00133478 0.000572707 0.0116215 )  
( -0.000424036 0.000570205 0.0125466 )  
( -0.00107096 -0.00124084 0.0143815 )  
( -0.000328506 -6.96914e-05 8.19483e-06 )  
( 0.000377502 -0.0010615 0.0097825 )  
( -0.000152759 0.00013217 -9.36281e-06 )  
( -0.000953957 0.000369365 0.0134478 )  
( -0.00149996 -0.00169868 0.00848716 )  
( 0.0014471 -0.000213707 0.0100373 )  
( 0.000697185 -0.00142655 -0.000489508 )  
( 4.87373e-05 -0.000167024 -0.000281305 )  
( 0.000266828 0.000128147 0.0126328 )  
( 0.000792534 0.000232579 0.00755869 )  
( 6.84645e-05 -0.000115434 -4.14826e-05 )  
( 0.000260105 0.00117142 0.00864916 )  
( 0.00104788 9.46994e-05 0.00880665 )  
( -0.000134277 -7.44778e-05 -5.47891e-05 )  
( 0.00131595 -6.62091e-05 0.00911197 )  
( -0.000231199 -0.00021822 -1.37688e-05 )  
( -7.05195e-05 4.98548e-05 -3.69113e-06 )  
( 0.000127859 0.000680049 0.00883735 )  
( -0.000200489 -0.000158975 0.000178591 )  
( 0.000211654 0.000662815 4.64192e-05 )  
( 0.000939514 0.000663299 0.010237 )  
( -0.000103316 -0.000315782 -1.91032e-05 )  
( 0.00107058 -0.0015247 0.0103166 )  
( -0.000122594 -3.04103e-05 1.67294e-05 )  
( 0.000825459 -0.000450227 0.0109759 )  
( 0.0009041 0.000955912 0.0101154 )  
( -0.000606248 0.00325748 0.00479154 )  
( -0.00196196 0.00160666 0.0114209 )  
( 0.000462633 0.00111844 0.0106718 )  
( 0.000589078 -0.0019117 0.00926086 )  
( 0.000637946 0.000427859 0.0104108 )  
( -0.00195821 0.0010351 0.0105688 )  
( 0.00129598 0.000968872 0.00973359 )  
( -0.00112289 0.00279167 0.00809868 )  
( -0.000208822 -0.000136366 9.05537e-05 )  
( 0.000949116 0.000493921 0.0105766 )  
( -7.99676e-07 3.06625e-05 -4.17588e-06 )  
( 0.00291626 0.000465661 0.00755056 )  
( -6.82308e-05 -0.000191534 4.7108e-05 )  
( 0.00265948 0.00158688 0.00901938 )  
( 0.000619515 0.00161285 0.0102231 )  
( -0.00103262 0.000584804 2.35269e-06 )  
( -1.67466e-05 0.00026608 0.000121914 )  
( 1.08336e-06 -8.51924e-06 -7.69964e-06 )  
( 0.000813378 0.00025963 0.00874817 )  
( -0.00021495 5.74077e-05 -2.14044e-05 )  
( 0.000222119 -0.00040627 1.90255e-05 )  
( -0.00068964 0.000545554 -2.32327e-05 )  
( 0.000100868 -0.000816719 0.00877468 )  
( 0.00206952 -0.000231961 0.0101269 )  
( 0.000288667 -0.00096697 0.0104286 )  
( 0.000462356 -0.00100212 0.00945831 )  
( 0.00146532 -0.00646657 -0.00270593 )  
( -0.0011966 0.00090544 0.00913892 )  
( 0.000522308 0.00150151 0.00703152 )  
( -0.00381845 0.000143466 0.0125859 )  
( -0.000376639 0.000566583 0.00863582 )  
( -0.000118518 -0.000596064 0.0172878 )  
( -4.09346e-09 0.000115927 0.00967753 )  
( 0.00231261 0.000760284 0.0100985 )  
( -6.43747e-05 -0.000620149 0.0104215 )  
( 0.000780235 0.000727867 0.00883962 )  
( 0.00193919 0.00111656 0.0120007 )  
( 0.00117558 -0.000363114 0.0106816 )  
( -0.0011814 -0.00289999 0.0116153 )  
( 3.5214e-05 0.00015611 7.07317e-06 )  
( 0.000589438 -0.000790346 0.0115198 )  
( 0.000530949 -3.92427e-05 0.00987339 )  
( 0.000272622 0.000369615 2.20188e-05 )  
( 0.00129178 -0.00101412 0.00923839 )  
( -0.00113941 -0.00181688 0.00918409 )  
( -0.00127354 -0.000535914 0.011504 )  
( 0.000645236 0.000200919 0.0104533 )  
( -0.000284945 -0.00101935 0.0104919 )  
( -0.000438286 0.000109962 0.00797527 )  
( 0.000926604 -0.000675618 9.80088e-05 )  
( -0.000125233 -7.80037e-06 -5.12292e-05 )  
( -0.000944537 -0.000625534 -0.000942658 )  
( -0.000178669 0.00034531 0.0117863 )  
( 0.000524395 0.000321627 0.00943462 )  
( 0.000115159 0.00060121 0.000398411 )  
( 7.02456e-05 -7.70546e-05 0.0102341 )  
( -4.84852e-05 0.000103845 1.11428e-05 )  
( 0.00116921 0.000139013 0.0108378 )  
( 0.00040058 0.000311036 0.0103719 )  
( -0.000172944 -0.000100009 -0.000102938 )  
( -0.000668555 0.000102419 0.0081324 )  
( 0.00397023 0.00120922 0.0113401 )  
( 0.000689003 0.000397441 0.0101102 )  
( -0.000217376 -0.000248832 -0.000110116 )  
( 0.0021214 0.00185558 0.00921428 )  
( -0.000425005 8.14282e-05 0.000415723 )  
( -0.00327937 -0.000411288 0.0143879 )  
( 0.00115963 0.000361069 0.00783182 )  
( -0.000323517 -0.000120352 -3.55835e-05 )  
( -0.000937287 -0.00211831 0.0113728 )  
( 0.00135729 0.00147941 0.00733228 )  
( -0.00245767 -0.00346689 0.00811833 )  
( 0.00267952 0.000305736 -0.000785885 )  
( -0.000102604 -2.86716e-05 -6.11633e-05 )  
( -0.000406705 -0.000923207 0.0087271 )  
( -0.0013689 0.00204629 0.0139549 )  
( 0.00149662 -0.000155327 0.0105446 )  
( 0.000892899 -0.00059687 -0.000515498 )  
( -9.92427e-05 0.000179263 0.00932497 )  
( 0.000488522 0.0017474 0.00947631 )  
( 0.000863314 0.000565928 0.00963495 )  
( 0.00347692 0.00131638 0.0103252 )  
( 7.84758e-06 4.88274e-05 -1.08658e-05 )  
( -0.000292123 0.000610299 -0.00181584 )  
( -0.00023763 -0.000231057 6.19364e-05 )  
( 0.00192915 -0.000495227 0.00722728 )  
( -0.000124875 -1.80631e-05 0.00884445 )  
( -0.000240508 -0.000595457 0.0105703 )  
( 0.0011699 0.00103505 0.00871286 )  
( 0.000937553 0.000583783 0.0106361 )  
( -0.00135857 -0.00435019 -0.000361995 )  
( 0.00249139 -4.21621e-05 0.0106436 )  
( 0.000346181 0.00086341 0.0100234 )  
( 0.00160151 -0.00121004 0.0103081 )  
( 0.000608698 -0.00207829 0.0122318 )  
( 0.000835986 0.000188927 0.0103313 )  
( -0.000250667 -7.06571e-05 -0.000122619 )  
( 0.00420053 0.00242015 0.0122738 )  
( -0.000583973 7.39241e-06 -4.26064e-05 )  
( 0.000921709 -0.000878938 0.0205688 )  
( 0.00115392 0.00234826 0.00747664 )  
( 0.000967974 0.000968371 0.00991929 )  
( 0.00134537 0.0010283 0.0108335 )  
( 0.000280994 0.00134294 0.0100908 )  
( 9.18309e-05 -0.000239624 -1.55084e-05 )  
( 0.0037774 -0.000636943 0.0110056 )  
( 0.000424411 8.65271e-05 0.00945891 )  
( 0.000503033 -3.99983e-05 0.00866348 )  
( -0.000883184 -0.000126388 -1.22051e-06 )  
( 0.00040864 -0.00104846 0.0109441 )  
( -0.000302815 0.000318004 -0.00109537 )  
( -2.34456e-05 0.000599347 0.00925281 )  
( 0.00156199 0.00240899 0.010747 )  
( -0.000472455 -0.000348245 0.0130359 )  
( -0.000277023 0.00132587 0.00738468 )  
( -7.63208e-05 -0.00037017 0.000348055 )  
( 0.000160982 0.000143116 -0.000277848 )  
( 0.00139014 0.000961438 0.0103832 )  
( 0.0003287 -0.00039184 0.0103578 )  
( 0.000496006 0.000444612 0.0106166 )  
( -0.000914639 0.00026018 0.0131848 )  
( -0.00199967 6.69539e-05 0.0108112 )  
( -0.000209974 -0.00107179 0.00971696 )  
( -0.00021133 -0.000164594 -7.43387e-05 )  
( 0.000464502 -0.000973424 0.00944395 )  
( 0.0015199 -0.00269482 0.0108654 )  
( 0.000194571 0.000243071 0.0100569 )  
( -0.000478993 -0.000304344 -0.00010231 )  
( -0.000506455 -7.35637e-05 6.01917e-06 )  
( 0.00124227 -0.000443917 0.0102684 )  
( -0.000305034 0.000252844 -0.00021711 )  
( -0.000296759 8.05893e-05 0.00973149 )  
( -0.000812352 -0.00195712 0.00760461 )  
( 0.00164152 -0.000625041 0.00894245 )  
( 3.47885e-05 -0.000741629 3.55027e-06 )  
( -0.00080369 3.35635e-05 0.0104085 )  
( 0.000185483 -8.43637e-05 0.0106562 )  
( 0.00216203 4.60815e-05 0.00988161 )  
( 0.00111112 -0.00123163 0.00689813 )  
( -2.56426e-05 0.000190696 0.000242625 )  
( -0.00040855 -0.00042282 2.54826e-06 )  
( 0.00184146 -0.000297518 0.0102493 )  
( -0.00212355 0.000989902 0.0141184 )  
( 7.60195e-05 3.87615e-05 1.43278e-05 )  
( -0.000457044 0.00146962 0.0109622 )  
( 0.000926028 -0.000647377 0.00871886 )  
( 2.12218e-05 -3.10622e-05 -5.38187e-05 )  
( 0.00124784 -0.00180123 0.0113816 )  
( 0.000294789 -0.000136454 0.0100016 )  
( -7.06425e-05 -0.0015988 0.00934659 )  
( 0.00116902 -9.87081e-05 0.0111106 )  
( -0.000814682 -0.000274671 0.0108104 )  
( -5.68783e-05 0.00041341 0.0101129 )  
( 0.000502398 -0.00112028 0.0012455 )  
( -0.000442097 -0.000228935 -9.86258e-05 )  
( 0.000454159 0.000169982 0.00852965 )  
( -1.96097e-05 6.1569e-05 -0.000121276 )  
( -0.00115725 -0.00167743 0.0110113 )  
( 0.00150914 0.00110146 0.0119225 )  
( -0.000368663 -0.000314186 -3.7321e-05 )  
( -0.00263235 0.0052567 -0.000380748 )  
( 0.00100539 -9.53403e-05 0.00965904 )  
( -0.000254516 0.000276491 -1.37021e-05 )  
( -0.000273687 5.71408e-05 0.000104484 )  
( 0.000496418 0.00041246 0.00977543 )  
( 0.00038818 0.00102054 0.0106841 )  
( 0.00181903 -0.000742604 0.00771241 )  
( -0.0035656 0.000497426 0.0123176 )  
( 0.00335477 0.00118891 0.00673104 )  
( 0.000902428 -0.000613288 0.00976307 )  
( 0.00139658 -0.00141364 0.0099875 )  
( -2.71116e-05 2.31605e-05 7.00306e-05 )  
( -4.72807e-05 0.000186356 0.000503196 )  
( 0.000361731 -0.000376437 -0.000616905 )  
( 0.00110716 0.000915052 0.00992517 )  
( 2.9937e-05 2.13218e-05 8.74129e-05 )  
( -0.000155201 0.000279509 -6.85526e-05 )  
( -0.000655021 -0.000316743 -0.000182065 )  
( -0.00025372 0.0003097 0.000981411 )  
( -0.000253917 0.00010989 0.000141486 )  
( 0.00090557 0.00066378 0.00930593 )  
( -0.00106103 0.00135353 0.0100878 )  
( 0.00029054 -0.00130978 0.0110948 )  
( -0.000106476 0.00081501 0.0108987 )  
( -0.000160998 0.000829756 0.0103971 )  
( -0.000150465 0.000530272 4.04822e-05 )  
( 3.83417e-06 0.000163946 5.48981e-05 )  
( 0.00128122 -0.000468312 0.0117909 )  
( -1.5949e-05 0.000177588 0.000622712 )  
( 0.00234606 0.000711524 0.00690694 )  
( 0.000949864 0.000591675 0.0102484 )  
( -0.00041546 -0.000336193 -1.10275e-05 )  
( 0.00392964 0.0031777 0.0103355 )  
( -0.0018216 -0.00177741 0.0100088 )  
( 0.00170027 1.28242e-06 0.0108568 )  
( 0.00147916 0.000318012 0.0110764 )  
( -0.000675555 0.000775133 0.0103144 )  
( 0.000253083 -0.000530074 0.00959719 )  
( 0.00134252 0.00113047 0.0107649 )  
( 0.000305894 0.002893 0.00762404 )  
( -0.00105562 0.00079546 0.0172781 )  
( 0.00572256 -0.00299129 -0.00506945 )  
( -0.000477206 0.000805944 0.00732451 )  