/*--------------------------------*- C++ -*----------------------------------*\
| =========                 |                                                 |
| \\      /  F ield         | OpenFOAM: The Open Source CFD Toolbox           |
|  \\    /   O peration     | Version:  2506                                  |
|   \\  /    A nd           | Website:  www.openfoam.com                      |
|    \\/     M anipulation  |                                                 |
\*---------------------------------------------------------------------------*/
FoamFile
{
    version     2.0;
    format      ascii;
    arch        "LSB;label=32;scalar=64";
    class       volScalarField;
    location    "0.07";
    object      Ksl;
}
// * * * * * * * * * * * * * * * * * * * * * * * * * * * * * * * * * * * * * //

dimensions      [1 -3 -1 0 0 0 0];

internalField   nonuniform List<scalar> 
1152
(
52492.5
170280
136211
1.24887e+06
55128.6
136589
118217
142756
354922
121575
123005
93652.6
139789
159225
122517
88986.6
114997
271994
131494
167666
132592
190713
322604
231438
1.19701e+07
128513
336000
217626
141756
287837
107426
8.67422e+06
954722
271192
676476
169439
2.69179e+06
240360
220295
288196
203629
214307
222639
231876
224639
268605
298496
170225
858399
296919
151260
242631
146468
275718
285340
341382
271892
233517
313844
188119
162787
298188
167943
175133
7.7987e+06
102390
7.25427e+06
491548
410444
377157
134362
176346
325711
198425
216023
157911
186795
322933
360804
153923
127058
260922
162117
181286
106365
196449
250979
287700
490101
276447
339627
218163
126499
990495
134498
133208
315100
97541.5
149437
64705.6
98783.7
53260.2
37248.8
27971
85324.4
120356
68696
33771.2
510350
50432.4
138629
66481.4
0
0
0
0
0
0
0
0
0
0
0
0
0
0
0
0
0
0
0
0
0
0
0
0
0
0
0
0
0
0
0
0
0
0
0
0
0
0
0
0
0
0
0
0
0
0
0
0
0
0
0
0
0
0
0
0
0
0
0
0
0
0
0
0
0
0
0
0
0
0
0
0
0
0
0
0
0
0
0
0
0
0
0
0
0
0
0
0
0
0
0
0
0
0
0
0
0
0
0
0
0
0
0
0
0
0
0
0
0
0
0
0
0
0
0
0
0
0
0
0
0
0
0
0
0
0
0
0
0
0
0
0
0
0
0
0
0
0
0
0
0
0
0
0
0
0
0
0
0
0
0
0
0
0
0
0
0
0
0
0
0
0
0
0
0
0
0
0
0
0
0
0
0
0
0
0
0
0
0
0
0
0
0
0
0
0
0
0
0
0
0
0
0
0
0
0
0
0
0
0
0
0
0
0
0
0
0
0
0
0
0
0
0
0
0
0
0
0
0
0
0
0
0
0
0
0
0
0
0
0
0
0
0
0
0
0
0
0
0
0
0
0
0
0
0
0
0
0
0
0
0
0
0
0
0
0
0
0
0
0
0
0
0
0
0
0
0
0
0
0
0
0
76564.4
151949
75345.6
160123
155287
190950
93585.9
130629
89951.4
110687
102509
85000.9
1.34215e+06
231256
104806
120214
184105
293065
179055
127149
176932
232000
1.65278e+06
272844
248057
143096
165654
117286
109599
140669
365903
125888
498156
211082
222913
2.31215e+07
560666
163344
275702
137383
206571
638458
125025
332389
325300
172133
219494
138786
272757
201651
603177
207624
283964
242539
203975
162968
172269
199637
219210
291530
228572
274729
252157
165017
265760
128780
222575
320578
125954
459982
237664
205341
2.38167e+07
136977
136203
412936
283570
250964
308280
167821
99122
305470
211662
1.07714e+06
1.09604e+07
151341
354407
189933
124370
249853
220637
265762
258203
187322
171148
234044
535980
62608.4
61255.3
77312.9
137154
83214.5
52819.2
57831.3
21731.2
29778.3
43059.3
50273.7
30742.4
44821.7
49008.1
52204.2
0
0
0
0
0
0
0
0
0
0
0
0
0
0
0
0
0
0
0
0
0
0
0
0
0
0
0
0
0
0
0
0
0
0
0
0
0
0
0
0
0
0
0
0
0
0
0
0
0
0
0
0
0
0
0
0
0
0
0
0
0
0
0
0
0
0
0
0
0
0
0
0
0
0
0
0
0
0
0
0
0
0
0
0
0
0
0
0
0
0
0
0
0
0
0
0
0
0
0
0
0
0
0
0
0
0
0
0
0
0
0
0
0
0
0
0
0
0
0
0
0
0
0
0
0
0
0
0
0
0
0
0
0
0
0
0
0
0
0
0
0
0
0
0
0
0
0
0
0
0
0
0
0
0
0
0
0
0
0
0
0
0
0
0
0
0
0
0
0
0
0
0
0
0
0
0
0
0
0
0
0
0
0
0
0
0
0
0
0
0
0
0
0
0
0
0
0
0
0
0
0
0
0
0
0
0
0
0
0
0
0
0
0
0
0
0
0
0
0
0
0
0
0
0
0
0
0
0
0
0
0
0
0
0
0
0
0
0
0
0
0
0
0
0
0
0
0
0
0
0
0
0
0
0
0
0
0
0
0
0
0
0
0
0
0
0
0
0
0
0
0
0
85923.6
61789.9
201405
153388
113025
108325
171058
139747
688026
111911
100489
99490.4
65320
170373
88233.8
112034
275627
335270
120352
141621
463325
200614
151252
194410
189792
306806
535309
183673
200337
1.06317e+06
235568
145871
275771
766302
222709
182596
161019
206155
195668
305224
343282
154421
253514
187477
133065
424619
212103
190340
185353
196104
141571
168671
383512
227214
263821
158798
268968
140664
323397
146884
311640
610605
250248
272353
177330
301778
381476
248024
322841
177198
157477
395401
502623
195015
657990
157673
141718
152443
186775
302811
151976
174227
106752
175620
232911
231529
243266
160059
345159
101669
236539
179812
3.32371e+06
3.41668e+06
249603
169641
56117.1
54260.6
54007.1
84024.5
56517.8
63884.4
20809.1
55520.7
60742.9
69930.8
76147.5
84922.7
76772.2
111816
74354.7
127317
0
0
0
0
0
0
0
0
0
0
0
0
0
0
0
0
0
0
0
0
0
0
0
0
0
0
0
0
0
0
0
0
0
0
0
0
0
0
0
0
0
0
0
0
0
0
0
0
0
0
0
0
0
0
0
0
0
0
0
0
0
0
0
0
0
0
0
0
0
0
0
0
0
0
0
0
0
0
0
0
0
0
0
0
0
0
0
0
0
0
0
0
0
0
0
0
0
0
0
0
0
0
0
0
0
0
0
0
0
0
0
0
0
0
0
0
0
0
0
0
0
0
0
0
0
0
0
0
0
0
0
0
0
0
0
0
0
0
0
0
0
0
0
0
0
0
0
0
0
0
0
0
0
0
0
0
0
0
0
0
0
0
0
0
0
0
0
0
0
0
0
0
0
0
0
0
0
0
0
0
0
0
0
0
0
0
0
0
0
0
0
0
0
0
0
0
0
0
0
0
0
0
0
0
0
0
0
0
0
0
0
0
0
0
0
0
0
0
0
0
0
0
0
0
0
0
0
0
0
0
0
0
0
0
0
0
0
0
0
0
0
0
0
0
0
0
0
0
0
0
0
0
0
0
0
0
0
0
0
0
0
0
0
0
0
0
0
0
0
0
0
0
)
;

boundaryField
{
    inlet
    {
        type            zeroGradient;
    }
    outlet
    {
        type            zeroGradient;
    }
    wall
    {
        type            zeroGradient;
    }
    procBoundary3to1
    {
        type            processor;
        value           nonuniform List<scalar> 
192
(
193954
96224.3
67080.4
60647.5
237472
595667
1.53345e+07
223773
149392
151364
125490
229707
3.18192e+07
304220
209950
517847
125205
5.33742e+06
112389
191835
119809
327086
220138
154402
360644
65494.8
21350.9
36994
604.355
0
0
0
0
0
0
0
0
0
0
0
0
0
0
0
0
0
0
0
0
0
0
0
0
0
0
0
0
0
0
0
0
0
0
0
0
0
0
0
0
0
0
0
0
0
0
0
0
0
0
0
0
0
0
0
0
0
0
0
0
0
0
0
0
0
0
0
392192
146639
91633.1
98906.3
167835
1.15739e+06
167623
613014
189080
204994
283399
118529
216039
266022
2.02077e+06
1.67954e+07
270666
191546
162648
105372
271400
174417
375160
370412
65888.7
46640.8
20191.4
19092.7
0
0
0
0
0
0
0
0
0
0
0
0
0
0
0
0
0
0
0
0
0
0
0
0
0
0
0
0
0
0
0
0
0
0
0
0
0
0
0
0
0
0
0
0
0
0
0
0
0
0
0
0
0
0
0
0
0
0
0
0
0
0
0
0
0
0
0
0
)
;
    }
    procBoundary3to2
    {
        type            processor;
        value           nonuniform List<scalar> 
192
(
223925
1.42476e+06
64537
98892.6
2.45653e+07
179733
169045
312046
123485
136259
244478
389600
144881
215764
211717
921665
117564
401205
113330
2.23765e+06
5.47452e+06
162731
392000
5.43188e+06
16947.1
117442
64843.5
263811
0
0
0
0
0
0
0
0
0
0
0
0
0
0
0
0
0
0
0
0
0
0
0
0
0
0
0
0
0
0
0
0
0
0
0
0
0
0
0
0
0
0
0
0
0
0
0
0
0
0
0
0
0
0
0
0
0
0
0
0
0
0
0
0
0
0
0
0
162395
119980
116896
116095
797777
271108
221746
295678
136418
129410
294821
262844
166079
252246
376174
166787
190331
438168
155582
236981
1.18688e+06
83494.2
9.20922e+06
74312.3
54970.3
28279.9
11104.6
7171.46
0
0
0
0
0
0
0
0
0
0
0
0
0
0
0
0
0
0
0
0
0
0
0
0
0
0
0
0
0
0
0
0
0
0
0
0
0
0
0
0
0
0
0
0
0
0
0
0
0
0
0
0
0
0
0
0
0
0
0
0
0
0
0
0
0
0
0
0
)
;
    }
}


// ************************************************************************* //
