/*--------------------------------*- C++ -*----------------------------------*\
| =========                 |                                                 |
| \\      /  F ield         | OpenFOAM: The Open Source CFD Toolbox           |
|  \\    /   O peration     | Version:  2506                                  |
|   \\  /    A nd           | Website:  www.openfoam.com                      |
|    \\/     M anipulation  |                                                 |
\*---------------------------------------------------------------------------*/
FoamFile
{
    version     2.0;
    format      ascii;
    arch        "LSB;label=32;scalar=64";
    class       surfaceScalarField;
    location    "0.07";
    object      phi;
}
// * * * * * * * * * * * * * * * * * * * * * * * * * * * * * * * * * * * * * //

dimensions      [0 3 -1 0 0 0 0];

oriented        oriented;

internalField   nonuniform List<scalar> 
3120
(
-2.17892e-08
-1.27265e-08
1.19512e-07
-1.91534e-09
-1.56929e-09
2.70465e-08
-4.23384e-09
-7.36841e-09
4.55144e-08
-2.53077e-09
2.5724e-08
3.77477e-09
-1.71755e-08
-2.39301e-08
8.63951e-08
-7.65768e-09
-3.49901e-09
3.58159e-08
-3.5541e-09
-3.09504e-10
3.17678e-08
3.52558e-09
3.29961e-08
2.25888e-10
2.03315e-09
3.87548e-10
1.19111e-08
-4.31867e-09
-4.43157e-09
5.03035e-08
8.20834e-10
8.20838e-09
2.94208e-08
5.70462e-09
4.82107e-08
-6.2731e-09
-2.44703e-09
5.06381e-08
-1.22291e-09
6.816e-09
2.99752e-08
-4.25022e-10
-4.76883e-09
6.10478e-08
7.99985e-10
3.81924e-08
5.69105e-09
-1.62334e-09
-8.97525e-09
-2.18131e-08
4.72933e-08
-3.21389e-09
-5.42809e-09
2.5948e-08
3.65664e-09
-3.53257e-09
4.35564e-08
-4.03115e-09
4.88336e-08
-7.67986e-09
1.16155e-09
-1.05017e-08
5.26009e-08
-8.95787e-10
-1.7861e-09
3.42312e-08
6.21248e-10
1.51443e-10
2.65667e-08
-1.45823e-09
2.84073e-08
2.63715e-09
6.02391e-09
-4.11182e-08
5.38165e-08
1.3036e-09
3.49737e-09
4.97404e-08
-8.48468e-10
4.61578e-09
2.71086e-08
5.52317e-09
3.36365e-08
6.74436e-09
-4.24466e-09
4.11639e-08
-1.4858e-08
2.15992e-09
2.60987e-08
9.69287e-10
1.93447e-08
5.1013e-08
-2.53422e-09
4.66845e-08
2.38549e-08
-7.47906e-09
4.54261e-09
-1.41632e-09
9.02665e-09
-2.49119e-09
-6.78339e-09
2.70268e-08
-2.82664e-10
9.14507e-10
4.42003e-08
-6.66517e-11
4.37438e-08
6.74645e-09
4.42328e-09
-4.45293e-09
5.16552e-08
4.31496e-09
-2.28852e-09
2.98447e-08
2.83234e-10
-1.63486e-09
3.31478e-08
-7.87693e-10
2.51367e-08
4.27491e-09
1.53489e-09
5.69895e-09
3.77485e-08
5.68137e-09
4.14213e-09
3.91633e-08
1.83263e-09
-2.7483e-09
3.20708e-08
-8.43824e-09
4.23418e-08
7.7795e-10
-6.08725e-10
4.78733e-08
-4.21383e-10
-2.53239e-09
2.86151e-08
3.54944e-09
-1.96293e-09
4.17126e-08
5.98275e-09
5.62601e-08
-1.67826e-08
-3.19418e-09
4.62174e-09
-6.06354e-09
1.01873e-08
-4.81167e-09
-8.92541e-09
5.09909e-08
-1.18412e-08
-1.78267e-09
6.40529e-08
3.24071e-09
2.46566e-08
2.99692e-09
5.61017e-09
7.59161e-11
4.479e-08
5.59879e-09
-1.52845e-09
2.24591e-08
-2.26657e-09
-5.60585e-09
4.48364e-08
-3.1543e-09
3.3614e-08
-4.3488e-09
1.81714e-09
5.67045e-09
2.56731e-08
2.54993e-09
9.17409e-10
3.59847e-08
1.21008e-09
-3.41256e-09
3.12173e-08
-7.77457e-09
5.26772e-08
-4.50507e-09
-1.44267e-09
5.11592e-08
6.7052e-09
-2.08159e-09
2.36818e-08
6.48959e-09
-2.57975e-09
3.7871e-08
9.27222e-10
6.03507e-08
-1.47111e-08
2.66155e-10
-5.96394e-09
-2.9491e-09
7.64564e-08
-8.07205e-10
5.40034e-09
5.77455e-08
2.39003e-09
3.29765e-09
5.60557e-08
-9.43492e-10
2.8871e-08
-6.22668e-10
-6.99553e-10
-2.84765e-09
4.80271e-08
7.8536e-10
-2.32994e-09
2.87045e-08
1.30916e-09
-2.35391e-09
4.99641e-08
-4.53704e-09
3.83853e-08
1.31388e-10
2.21712e-10
4.85609e-09
1.7764e-08
1.7788e-09
1.92415e-09
3.01735e-08
-3.66663e-10
1.26083e-09
2.97481e-08
-8.8286e-10
4.92336e-08
-5.77293e-10
-2.41293e-09
5.01487e-08
1.02774e-08
7.23063e-10
1.52837e-08
7.18628e-09
-2.24391e-09
4.02533e-08
1.84545e-09
6.36398e-08
-5.04186e-09
-1.37396e-09
2.15657e-09
2.13182e-08
3.13406e-08
6.03315e-09
1.18364e-08
3.59584e-08
1.26045e-08
9.26958e-09
2.68297e-08
4.83935e-09
3.55895e-08
-1.24311e-09
1.09324e-08
8.48528e-09
4.47112e-08
2.85222e-09
-7.52276e-10
4.93734e-08
3.94172e-09
1.35901e-10
5.80083e-08
-2.26088e-09
5.08878e-08
-1.46059e-09
-1.45868e-11
-1.9066e-09
2.96429e-08
2.78908e-09
4.25153e-09
2.2366e-08
2.07334e-09
-3.29794e-09
3.38976e-08
-8.48785e-09
5.69432e-08
5.90749e-10
1.21984e-08
1.99157e-08
9.744e-09
-7.2357e-09
4.09037e-08
-1.9344e-09
-1.06117e-09
2.57924e-08
4.98849e-09
4.5088e-08
6.81754e-09
2.1852e-09
3.93128e-09
1.6808e-09
3.45028e-08
3.17696e-09
4.96429e-10
3.70374e-08
3.74529e-10
2.51986e-10
3.61319e-08
-8.8117e-10
3.87455e-08
-2.6734e-11
5.39173e-11
2.77245e-09
4.24502e-08
-2.4763e-10
3.47861e-09
4.66927e-08
2.19451e-09
2.78643e-09
5.3032e-08
-4.16314e-10
5.08645e-08
1.75298e-09
1.31745e-09
3.23418e-09
2.90473e-08
6.64054e-10
-1.80832e-10
2.66791e-08
-2.88344e-10
1.73703e-09
3.58995e-08
1.27097e-09
5.25759e-08
2.39166e-09
-1.36872e-09
2.43207e-08
9.74701e-10
1.69441e-09
3.55593e-08
2.10038e-09
-8.49177e-10
2.9366e-08
7.07047e-10
4.34037e-08
2.89629e-09
-7.90204e-10
5.0371e-09
4.02255e-09
3.51954e-08
1.31658e-10
2.27872e-10
4.38558e-08
-1.04601e-09
1.48318e-09
3.95821e-08
-3.42439e-10
4.14074e-08
-1.46864e-09
-2.01845e-09
-1.68941e-10
4.6667e-08
-3.3335e-09
3.40035e-10
4.78957e-08
-1.46934e-09
2.73612e-09
4.99145e-08
2.0608e-09
4.62815e-08
7.10233e-10
3.17897e-10
-3.17662e-09
3.20138e-08
-1.21186e-09
-1.27716e-09
2.98263e-08
-1.84273e-09
1.6006e-09
3.76658e-08
3.51985e-09
4.83916e-08
8.82332e-10
1.30392e-09
1.75563e-08
-5.04069e-10
2.35796e-09
3.24961e-08
7.32354e-10
1.11972e-09
3.20247e-08
1.80181e-10
4.53052e-08
1.43286e-09
1.30486e-09
3.87064e-09
7.31113e-10
4.15043e-08
1.40026e-09
2.74887e-09
4.39182e-08
-4.43612e-10
6.43217e-10
4.19562e-08
-8.16553e-10
4.27414e-08
-1.35177e-09
-1.82726e-09
5.48095e-09
4.28772e-08
-1.83507e-09
6.37825e-09
4.42741e-08
-2.64503e-10
3.95478e-09
4.50319e-08
4.45849e-10
4.46349e-08
1.19506e-10
-8.06218e-10
2.61838e-09
3.75404e-08
-3.74394e-09
1.35107e-09
3.77909e-08
-4.81226e-09
2.17649e-09
4.05121e-08
1.42653e-09
4.44081e-08
-1.80962e-09
-4.24943e-09
3.31368e-08
-8.9909e-09
-3.52277e-09
3.71943e-08
-4.0734e-09
-5.08847e-09
3.83001e-08
-2.53317e-09
4.25589e-08
5.28228e-10
-1.44443e-09
9.33798e-10
1.11195e-09
4.27582e-08
4.56146e-11
1.77101e-09
4.36316e-08
-8.50335e-10
7.77572e-10
4.27618e-08
2.86126e-10
4.29706e-08
-1.41741e-09
-1.38095e-09
2.31398e-09
4.24426e-08
-1.42394e-09
2.83536e-09
4.32523e-08
-1.14834e-09
2.08709e-09
4.34467e-08
1.23038e-09
4.35685e-08
-1.02621e-09
-9.63009e-10
4.30737e-10
4.05074e-08
-1.97266e-09
6.94461e-10
4.09413e-08
-2.38078e-09
1.24175e-09
4.17654e-08
1.57606e-09
4.30133e-08
-1.33178e-09
-1.51703e-09
3.91464e-08
-4.26568e-09
-1.57026e-09
4.02544e-08
-2.31234e-09
-1.79545e-09
4.08332e-08
-1.06599e-09
4.21103e-08
6.83477e-10
-4.54628e-10
-2.8331e-11
6.11791e-10
4.30058e-08
-2.03608e-10
7.42914e-10
4.33455e-08
-5.95424e-10
2.94754e-10
4.30329e-08
6.01432e-11
4.30908e-08
-8.14716e-10
-7.53863e-10
7.95116e-10
4.26934e-08
-8.19904e-10
9.83088e-10
4.30781e-08
-8.95886e-10
6.56759e-10
4.31606e-08
3.38306e-10
4.32549e-08
-8.60448e-10
-6.47155e-10
-1.05046e-10
4.19836e-08
-1.05989e-09
1.02199e-10
4.22349e-08
-1.34221e-09
1.90329e-10
4.25142e-08
2.1146e-10
4.28772e-08
-1.07922e-09
-6.87013e-10
4.157e-08
-1.92381e-09
-9.45485e-10
4.18882e-08
-1.27317e-09
-1.23052e-09
4.20903e-08
-7.81636e-10
4.23733e-08
-3.96736e-10
-8.85514e-10
-1.26888e-10
3.15918e-10
4.3074e-08
-1.63171e-10
3.19206e-10
4.32023e-08
-3.32517e-10
1.80297e-10
4.30998e-08
1.31517e-10
4.30915e-08
-4.61185e-10
-3.38112e-10
2.78269e-10
4.29067e-08
-3.85201e-10
3.7626e-10
4.3068e-08
-4.47208e-10
3.19474e-10
4.30833e-08
3.12094e-10
4.31003e-08
-4.73388e-10
-2.79297e-10
-1.57781e-10
4.26433e-08
-4.10313e-10
-6.48338e-12
4.27485e-08
-5.022e-10
1.18928e-10
4.28065e-08
2.70456e-10
4.28614e-08
-4.4488e-10
-1.84066e-10
4.25052e-08
-9.12625e-10
-2.63838e-10
4.2579e-08
-6.17491e-10
-3.05294e-10
4.25753e-08
-3.24605e-10
4.25598e-08
-3.2961e-11
-1.88567e-10
-7.43481e-11
1.32088e-10
4.31269e-08
-9.89371e-11
1.26093e-10
4.3172e-08
-1.70625e-10
7.69884e-11
4.31276e-08
7.42008e-11
4.30924e-08
-2.3176e-10
-1.42574e-10
7.04235e-11
4.30466e-08
-1.64854e-10
1.14503e-10
4.31017e-08
-2.11943e-10
1.14876e-10
4.30923e-08
1.40263e-10
4.30621e-08
-2.4001e-10
-1.03631e-10
-1.32322e-10
4.2939e-08
-1.53521e-10
-5.59978e-11
4.29688e-08
-2.02996e-10
1.63345e-11
4.29543e-08
8.83367e-11
4.29122e-08
-2.02098e-10
-3.43684e-11
4.28732e-08
-4.34871e-10
-6.80418e-11
4.28709e-08
-3.14283e-10
-1.01944e-10
4.28097e-08
-1.84236e-10
4.27094e-08
-7.48721e-11
-8.85839e-11
-3.16461e-11
4.80594e-11
4.31662e-08
-4.64804e-11
4.47792e-11
4.31745e-08
-7.99692e-11
3.48163e-11
4.31434e-08
4.11499e-11
4.30948e-08
-1.10382e-10
-4.49988e-11
3.6746e-12
4.31253e-08
-6.21799e-11
2.76533e-11
4.31359e-08
-8.77368e-11
4.24598e-11
4.311e-08
6.54588e-11
4.30561e-08
-1.06375e-10
-2.45027e-11
-9.01565e-11
4.30697e-08
-4.32417e-11
-5.03507e-11
4.30654e-08
-6.60592e-11
-6.87418e-12
4.30262e-08
3.51404e-11
4.29502e-08
-7.40069e-11
1.82906e-11
4.30147e-08
-2.12281e-10
1.13302e-11
4.29879e-08
-1.60448e-10
-4.7372e-12
4.29151e-08
-9.62273e-11
4.27913e-08
-4.08243e-11
-1.08759e-11
-7.50646e-12
1.41214e-11
4.3192e-08
-1.84744e-11
1.41895e-11
4.31857e-08
-3.69797e-11
1.46224e-11
4.31556e-08
2.14058e-11
4.30979e-08
-5.21466e-11
-9.68558e-12
-1.22601e-11
4.31677e-08
-1.96508e-11
-8.38109e-14
4.316e-08
-3.45039e-11
1.24573e-11
4.31268e-08
2.91398e-11
4.30607e-08
-4.71024e-11
3.61724e-12
-5.67564e-11
4.31284e-08
-5.494e-12
-3.66408e-11
4.31109e-08
-1.7861e-11
-1.22558e-11
4.30631e-08
1.24505e-11
4.29752e-08
-2.64172e-11
2.67302e-11
4.30711e-08
-1.07245e-10
2.38908e-11
4.30381e-08
-8.40135e-11
1.51421e-11
4.29639e-08
-5.2431e-11
4.28375e-08
-2.52111e-11
6.51652e-12
2.68745e-12
2.12933e-12
4.32082e-08
-5.34527e-12
3.03943e-12
4.31964e-08
-1.56538e-11
5.3576e-12
4.31643e-08
1.0063e-11
4.31013e-08
-2.40392e-11
3.23455e-12
-1.28808e-11
4.31904e-08
-3.64697e-12
-6.42509e-12
4.31762e-08
-1.2136e-11
1.58774e-12
4.31388e-08
1.14757e-11
4.30667e-08
-1.98174e-11
1.06661e-11
-3.41521e-11
4.31558e-08
5.2483e-12
-2.40737e-11
4.31339e-08
-1.86625e-12
-1.12731e-11
4.30828e-08
1.84708e-12
4.29906e-08
-7.81503e-12
2.2411e-11
4.30946e-08
-5.57861e-11
2.05936e-11
4.30607e-08
-4.49882e-11
1.49423e-11
4.29877e-08
-2.95169e-11
4.2862e-08
-1.61572e-11
8.12803e-12
5.89074e-12
-1.53198e-12
4.32181e-08
6.2781e-13
-6.93123e-13
4.32042e-08
-5.24667e-12
1.03285e-12
4.31705e-08
4.20252e-12
4.31044e-08
-1.02762e-11
6.75623e-12
-9.83053e-12
4.32028e-08
2.30247e-12
-6.40154e-12
4.31862e-08
-2.87365e-12
-1.87388e-12
4.31467e-08
3.5919e-12
4.30717e-08
-7.48672e-12
1.06553e-11
-2.01461e-11
4.3169e-08
7.28619e-12
-1.51427e-11
4.31458e-08
2.87907e-12
-8.54424e-12
4.30937e-08
-1.96922e-12
4.29998e-08
-1.01237e-12
1.64971e-11
4.31049e-08
-2.96336e-11
1.50382e-11
4.30715e-08
-2.46083e-11
1.13814e-11
4.29997e-08
-1.71046e-11
4.2875e-08
-1.0707e-11
6.92435e-12
6.33855e-12
-2.15355e-12
4.32239e-08
3.05481e-12
-1.59338e-12
4.32093e-08
-4.85865e-13
-5.18623e-13
4.31746e-08
1.15249e-12
4.31069e-08
-3.48663e-12
6.92158e-12
-6.64053e-12
4.32096e-08
4.1481e-12
-4.90281e-12
4.31922e-08
9.72055e-13
-2.50549e-12
4.31517e-08
3.43536e-13
4.30753e-08
-1.95624e-12
8.91368e-12
-1.16881e-11
4.31757e-08
6.78404e-12
-9.31285e-12
4.31522e-08
3.99849e-12
-6.02877e-12
4.30997e-08
-2.7563e-12
4.30052e-08
1.44394e-12
1.17039e-11
4.31095e-08
-1.59987e-11
1.0597e-11
4.30769e-08
-1.3722e-11
8.26011e-12
4.3006e-08
-1.01569e-11
4.28818e-08
-7.12077e-12
5.50349e-12
5.81144e-12
-1.71489e-12
4.32276e-08
3.76146e-12
-1.50281e-12
4.32127e-08
1.54791e-12
-9.42095e-13
4.31774e-08
-8.26339e-14
4.31087e-08
-3.88137e-13
6.06197e-12
-4.16232e-12
4.32134e-08
4.32754e-12
-3.3764e-12
4.31958e-08
2.3258e-12
-2.21252e-12
4.31549e-08
-8.0766e-13
4.30777e-08
4.5177e-13
6.97623e-12
-6.68734e-12
4.31792e-08
5.62668e-12
-5.64869e-12
4.31558e-08
3.84502e-12
-4.1146e-12
4.31032e-08
-2.58026e-12
4.30084e-08
2.1959e-12
8.18663e-12
4.31118e-08
-8.64954e-12
7.43348e-12
4.30797e-08
-7.83512e-12
5.93178e-12
4.30094e-08
-6.15897e-12
4.28856e-08
-4.75191e-12
4.18895e-12
4.81373e-12
-1.17573e-12
4.32299e-08
3.5439e-12
-1.14357e-12
4.32148e-08
2.14869e-12
-8.91933e-13
4.31792e-08
-4.8571e-13
4.31101e-08
8.82497e-13
4.86884e-12
-2.50791e-12
4.32157e-08
3.79793e-12
-2.2095e-12
4.31979e-08
2.52579e-12
-1.6852e-12
4.31569e-08
-1.03177e-12
4.30794e-08
1.30622e-12
5.24907e-12
-3.79912e-12
4.31811e-08
4.38808e-12
-3.38236e-12
4.31578e-08
3.25118e-12
-2.73316e-12
4.31053e-08
-2.06753e-12
4.30104e-08
2.19523e-12
5.73558e-12
4.3113e-08
-4.72822e-12
5.18768e-12
4.30812e-08
-4.39367e-12
4.21856e-12
4.30113e-08
-3.72692e-12
4.28878e-08
-3.18381e-12
3.14753e-12
3.59841e-12
-8.22482e-13
4.32312e-08
2.87911e-12
-7.99513e-13
4.32161e-08
2.04303e-12
-6.76084e-13
4.31804e-08
-4.86861e-13
4.31111e-08
1.2382e-12
3.6338e-12
-1.50591e-12
4.32169e-08
3.00444e-12
-1.39088e-12
4.31992e-08
2.22439e-12
-1.16429e-12
4.31581e-08
-8.72864e-13
4.30805e-08
1.43897e-12
3.79125e-12
-2.15661e-12
4.31821e-08
3.26658e-12
-2.01806e-12
4.31589e-08
2.55175e-12
-1.75194e-12
4.31065e-08
-1.50419e-12
4.30116e-08
1.88843e-12
3.97415e-12
4.31135e-08
-2.59305e-12
3.61156e-12
4.30821e-08
-2.50765e-12
2.96239e-12
4.30124e-08
-2.19375e-12
4.28891e-08
-2.12628e-12
2.33414e-12
2.51435e-12
-5.67797e-13
4.32317e-08
2.15416e-12
-5.03335e-13
4.32168e-08
1.67797e-12
-4.19859e-13
4.31811e-08
-3.30036e-13
4.31117e-08
1.20013e-12
2.58366e-12
-8.81579e-13
4.32175e-08
2.24029e-12
-8.20733e-13
4.31999e-08
1.77876e-12
-7.17965e-13
4.31588e-08
-5.95168e-13
4.30812e-08
1.28801e-12
2.66643e-12
-1.19688e-12
4.31825e-08
2.36288e-12
-1.16186e-12
4.31595e-08
1.92896e-12
-1.06892e-12
4.31072e-08
-9.91706e-13
4.30123e-08
1.51363e-12
2.73487e-12
4.31138e-08
-1.40102e-12
2.50787e-12
4.30825e-08
-1.40834e-12
2.09305e-12
4.3013e-08
-1.28789e-12
4.28898e-08
-1.34063e-12
1.70635e-12
1.88565e-12
-2.98875e-13
4.32319e-08
1.70527e-12
-2.31152e-13
4.32171e-08
1.42947e-12
-1.80592e-13
4.31816e-08
-1.34524e-13
4.31122e-08
1.1204e-12
1.94722e-12
-4.38732e-13
4.32177e-08
1.7578e-12
-4.04944e-13
4.32003e-08
1.47113e-12
-3.64888e-13
4.31593e-08
-3.21713e-13
4.30816e-08
1.15167e-12
1.99087e-12
-5.94073e-13
4.31827e-08
1.80946e-12
-5.9221e-13
4.31599e-08
1.52999e-12
-5.81083e-13
4.31076e-08
-5.7623e-13
4.30128e-08
1.25291e-12
2.00284e-12
4.31139e-08
-6.98168e-13
1.85865e-12
4.30828e-08
-7.3736e-13
1.58674e-12
4.30134e-08
-7.22668e-13
4.28902e-08
-7.86646e-13
1.31446e-12
1.97578e-12
6.42353e-14
1.81485e-12
8.90069e-14
1.5757e-12
1.04063e-13
1.10294e-13
1.28902e-12
1.98497e-12
-2.43626e-14
1.82092e-12
-3.62174e-14
1.57504e-12
-4.51467e-14
-5.92364e-14
1.27972e-12
1.97976e-12
-1.28692e-13
1.81742e-12
-1.74252e-13
1.56744e-12
-2.0973e-13
-2.52293e-13
1.2766e-12
1.94871e-12
-2.10795e-13
1.79601e-12
-2.8856e-13
1.55435e-12
-3.54972e-13
-4.25162e-13
1.26608e-12
-2.26296e-09
-3.25074e-09
5.67708e-08
1.21388e-08
3.51579e-10
2.48064e-08
3.42599e-10
-6.22618e-09
5.12803e-08
2.3865e-09
3.09721e-08
-3.39143e-09
-3.58425e-10
9.46039e-09
4.14897e-08
5.97966e-09
9.90954e-09
3.10661e-08
2.54311e-09
8.69915e-09
2.67365e-08
1.47182e-08
2.28505e-08
-2.13553e-09
2.13569e-09
3.63939e-09
6.672e-08
3.80301e-09
-7.04394e-10
6.26317e-08
4.15117e-09
-1.74673e-09
5.36497e-08
4.76756e-09
5.62237e-08
-5.58057e-09
2.40476e-10
6.70019e-08
2.99123e-09
5.65537e-08
5.6503e-09
4.55936e-08
5.52272e-08
-3.11695e-09
4.9287e-09
3.03919e-09
3.03726e-08
-6.12411e-10
3.14533e-09
2.81715e-08
1.37463e-08
2.41365e-09
3.19737e-08
-7.42391e-09
8.65838e-08
-1.05866e-08
5.10111e-09
-7.91167e-10
3.77111e-08
-5.93765e-10
-4.43841e-09
4.43448e-08
2.72403e-09
8.55526e-09
1.72771e-08
-1.19082e-08
3.15731e-08
-1.51436e-09
5.05038e-09
1.15779e-08
5.10137e-08
2.60756e-09
1.00749e-08
5.05612e-08
-6.01821e-10
-2.53897e-09
6.79533e-08
5.41408e-09
4.1563e-08
-3.26333e-09
5.57498e-09
7.83393e-08
-2.62866e-09
7.33186e-08
2.87023e-09
3.65853e-08
6.50309e-08
-2.72987e-09
2.74376e-09
-1.03637e-09
2.50712e-08
-3.44305e-09
-3.461e-09
4.13688e-08
1.13061e-08
4.29344e-09
1.89139e-08
-1.01866e-08
5.2667e-08
3.86269e-08
1.84622e-09
5.12085e-10
3.08205e-08
3.06004e-10
-7.62294e-09
5.0047e-08
-1.1207e-09
-9.02558e-09
3.20228e-08
-1.64919e-08
4.01725e-08
-3.41476e-09
-5.67795e-09
-1.70433e-08
7.2582e-08
5.66299e-10
-7.33754e-09
4.40316e-08
-2.96208e-09
-2.4202e-09
6.48763e-08
-8.90968e-10
2.20779e-08
9.22002e-10
-2.18107e-10
5.61962e-08
3.96788e-09
6.29257e-08
-2.95044e-09
4.20076e-08
6.17113e-08
9.20675e-11
-1.63977e-09
8.70968e-09
3.37514e-08
-4.82544e-09
-5.05163e-09
5.60957e-08
-5.1362e-09
-4.83965e-10
2.06358e-08
7.91286e-09
1.96044e-08
5.30245e-09
-1.00678e-08
-1.1694e-10
6.22026e-08
-3.4206e-09
8.57068e-09
2.97775e-08
-6.28179e-09
-1.57019e-09
3.59702e-08
-1.13194e-09
3.71477e-08
5.78784e-09
-9.90901e-09
-1.67376e-08
1.04683e-07
-9.29805e-09
-1.56234e-08
6.76147e-08
-2.76023e-09
-6.39974e-09
6.31681e-08
-4.00159e-09
1.98065e-08
2.3808e-09
-7.15952e-09
4.57065e-08
-2.7034e-09
4.31074e-08
-2.32172e-09
3.68347e-08
5.47559e-08
1.5949e-09
-1.31982e-08
1.16263e-08
5.51913e-08
-3.43227e-09
8.81186e-09
4.47041e-08
-3.99149e-09
-4.25872e-09
2.72992e-08
-1.53283e-09
9.42295e-09
2.68092e-09
-1.13769e-08
-2.76317e-09
8.95627e-08
-5.34286e-09
-2.27737e-09
3.48327e-08
-2.72021e-09
3.1216e-09
2.59673e-08
9.22951e-11
2.9629e-08
3.1733e-09
-1.17726e-08
-1.83157e-08
1.24894e-07
-8.84369e-09
3.0863e-09
5.93221e-08
-2.99924e-09
2.79024e-09
5.7655e-08
-4.6812e-09
1.99348e-08
1.64592e-09
-4.34317e-09
2.97225e-08
-2.98898e-09
4.44389e-08
-5.08986e-09
4.19779e-08
4.32523e-08
2.26705e-09
4.38114e-10
2.46948e-08
2.70287e-08
9.43858e-10
5.55138e-09
3.67125e-08
2.98195e-10
3.77166e-09
2.91617e-08
-7.4083e-10
1.76602e-08
-3.80679e-10
-4.40208e-09
1.42842e-08
9.29023e-08
7.87191e-10
4.95323e-09
3.02416e-08
-1.33895e-09
-1.86936e-09
3.37344e-08
3.3092e-09
2.56932e-08
-1.45324e-09
3.72089e-09
1.47542e-08
1.08873e-07
-1.6099e-09
1.659e-09
6.79471e-08
6.5946e-10
2.89214e-09
5.06242e-08
-4.71783e-09
3.14454e-08
-2.82408e-09
-1.21099e-09
4.47488e-08
-1.39234e-09
4.65135e-08
-1.88099e-09
4.5151e-08
3.99309e-08
-3.22464e-09
-2.18705e-09
5.90879e-11
3.51609e-08
-1.86917e-10
2.73522e-09
3.40775e-08
-2.37903e-10
1.40314e-09
2.85164e-08
1.19151e-09
2.07259e-08
-1.59881e-09
8.34545e-10
-4.66724e-09
1.00085e-07
-6.33107e-10
-3.76047e-09
3.82042e-08
1.05507e-10
-7.06481e-10
3.51052e-08
1.35128e-09
2.57945e-08
-1.5573e-10
8.24024e-09
1.52139e-08
9.90064e-08
1.59071e-09
4.22559e-09
6.66111e-08
9.33688e-10
1.92215e-09
4.86525e-08
1.02927e-09
3.28149e-08
-1.13982e-10
3.62876e-09
6.31364e-08
2.5096e-10
5.3151e-08
-3.19185e-10
4.78242e-08
3.93136e-08
1.70081e-10
1.81518e-09
-2.0453e-09
3.37919e-08
1.06554e-09
-5.05454e-10
3.60643e-08
7.29866e-10
-1.13791e-09
3.017e-08
1.41294e-10
2.29918e-08
-2.44343e-10
2.92652e-09
-2.39501e-09
9.35666e-08
1.71162e-09
-6.07092e-09
4.49846e-08
1.32142e-09
-1.54879e-09
3.59056e-08
4.05242e-11
2.6941e-08
2.74822e-10
2.2328e-09
-7.37197e-10
7.95192e-08
3.43125e-09
-7.18837e-10
6.00606e-08
1.87206e-09
1.24996e-09
4.74128e-08
1.0548e-09
3.30736e-08
5.98684e-10
4.34092e-09
5.66673e-08
2.95317e-09
5.38199e-08
1.55101e-09
5.04762e-08
4.11659e-08
7.53388e-10
8.9109e-10
-1.75913e-08
4.14867e-08
3.06313e-10
-6.28215e-09
3.88577e-08
-9.27995e-10
-3.68998e-09
3.25609e-08
-7.36615e-10
2.39871e-08
-6.58853e-10
7.61607e-09
-1.79056e-10
6.43325e-08
3.24776e-09
-4.43943e-09
4.7511e-08
3.1718e-10
-3.66357e-09
3.88096e-08
-1.83369e-09
2.88246e-08
-4.70073e-10
4.39685e-09
7.76677e-09
6.67383e-08
2.26478e-09
1.05236e-09
5.67008e-08
6.74137e-10
-8.2253e-10
4.61626e-08
-2.24581e-09
3.42665e-08
-1.07031e-10
2.80751e-09
6.30311e-08
2.27268e-10
5.7453e-08
-1.76372e-11
4.98987e-08
3.89292e-08
-2.68225e-11
8.90053e-10
-7.49367e-09
4.38321e-08
7.82742e-10
-3.78937e-09
4.04423e-08
1.88731e-10
-1.99455e-09
3.40835e-08
-7.84416e-12
2.5242e-08
-3.75069e-10
3.27851e-09
-1.9193e-09
5.476e-08
2.1723e-09
-2.71163e-09
4.75397e-08
8.81252e-10
-1.64088e-09
3.9747e-08
-1.63678e-10
3.01248e-08
-2.63688e-10
2.84504e-09
2.08024e-09
6.0484e-08
2.27679e-09
3.88613e-10
5.41696e-08
1.18771e-09
1.53715e-10
4.54572e-08
3.66802e-10
3.50291e-08
-1.05662e-10
2.57435e-09
6.38458e-08
1.68339e-09
5.87327e-08
1.00828e-09
5.07276e-08
4.03603e-08
-5.61797e-11
2.40057e-10
-2.97941e-09
4.47159e-08
1.14977e-11
-1.85426e-09
4.12522e-08
-2.27522e-10
-1.06853e-09
3.46095e-08
-4.5705e-10
2.52547e-08
-1.7998e-10
1.05763e-09
-1.52026e-09
5.22705e-08
6.17598e-10
-1.50149e-09
4.76272e-08
9.3821e-11
-9.7795e-10
4.01803e-08
-4.79305e-10
3.0363e-08
-1.22519e-10
1.18031e-09
-2.20091e-10
5.84985e-08
7.84872e-10
-6.12843e-10
5.36766e-08
2.39306e-10
-6.13618e-10
4.56386e-08
-5.41592e-10
3.53917e-08
-6.12575e-11
1.16224e-09
6.32572e-08
6.52882e-10
5.86293e-08
2.51589e-10
5.05153e-08
4.01067e-08
-3.64927e-11
2.48944e-10
-1.33792e-09
4.49973e-08
2.41567e-10
-9.17406e-10
4.15595e-08
1.01291e-10
-4.86327e-10
3.49115e-08
-1.00045e-10
2.54847e-08
-6.16288e-11
5.87817e-10
-9.06043e-10
5.14342e-08
5.30933e-10
-7.36297e-10
4.75031e-08
2.59407e-10
-3.82309e-10
4.03478e-08
-5.88073e-11
3.06114e-08
-3.05314e-11
7.30329e-10
-2.05408e-10
5.74219e-08
6.67992e-10
-2.26745e-10
5.32295e-08
3.58749e-10
-7.77543e-11
4.56433e-08
5.88593e-11
3.56302e-08
2.4006e-12
7.86305e-10
6.27502e-08
6.78568e-10
5.85104e-08
4.02113e-10
5.0714e-08
4.05515e-08
1.60206e-11
1.56082e-10
-6.12085e-10
4.51152e-08
1.5277e-10
-4.44422e-10
4.16929e-08
7.50111e-11
-2.40586e-10
3.50456e-08
-7.9928e-11
2.55699e-08
-5.16224e-12
3.01332e-10
-4.88777e-10
5.11644e-08
2.85849e-10
-3.86488e-10
4.74607e-08
1.44236e-10
-1.99844e-10
4.04487e-08
-6.42949e-11
3.07285e-08
1.13899e-11
3.86981e-10
-2.00284e-10
5.69742e-08
3.65028e-10
-1.90386e-10
5.30554e-08
1.94491e-10
-9.92523e-11
4.57133e-08
-4.35194e-11
3.57804e-08
2.33642e-11
4.26879e-10
6.24043e-08
3.83395e-10
5.83636e-08
2.19174e-10
5.0779e-08
4.06919e-08
3.52208e-11
1.0585e-10
-2.87224e-10
4.51572e-08
1.08662e-10
-2.13935e-10
4.17434e-08
6.53176e-11
-1.14197e-10
3.51068e-08
-3.61015e-11
2.56201e-08
1.04265e-11
1.69851e-10
-2.47681e-10
5.10608e-08
1.71772e-10
-1.91507e-10
4.74364e-08
1.01815e-10
-9.25011e-11
4.04969e-08
-2.15865e-11
3.07951e-08
2.07209e-11
2.12905e-10
-1.23812e-10
5.6775e-08
2.14453e-10
-1.05934e-10
5.29683e-08
1.27591e-10
-4.40124e-11
4.57517e-08
-5.27591e-12
3.58645e-08
2.71311e-11
2.38381e-10
6.2203e-08
2.32635e-10
5.82634e-08
1.4452e-10
5.08231e-08
4.07993e-08
3.18122e-11
6.76211e-11
-1.39659e-10
4.51717e-08
6.88937e-11
-1.06211e-10
4.17643e-08
4.46561e-11
-5.78471e-11
3.51364e-08
-2.1296e-11
2.56474e-08
1.34924e-11
9.65601e-11
-1.24899e-10
5.10161e-08
9.85555e-11
-9.64679e-11
4.74247e-08
6.18416e-11
-4.66299e-11
4.05223e-08
-1.26444e-11
3.08311e-08
1.70827e-11
1.16983e-10
-6.83625e-11
5.66829e-08
1.19288e-10
-5.68426e-11
5.29264e-08
7.35039e-11
-2.34449e-11
4.57742e-08
-4.8123e-12
3.59103e-08
1.97652e-11
1.30678e-10
6.20964e-08
1.29655e-10
5.82077e-08
8.17841e-11
5.08475e-08
4.08539e-08
2.21687e-11
4.19892e-11
-7.00893e-11
4.51766e-08
4.17374e-11
-5.41217e-11
4.17736e-08
2.80629e-11
-3.06917e-11
3.51511e-08
-1.29256e-11
2.56619e-08
1.02964e-11
5.55024e-11
-6.37397e-11
5.09953e-08
5.59638e-11
-4.92726e-11
4.74193e-08
3.63562e-11
-2.44914e-11
4.05355e-08
-7.49705e-12
3.08499e-08
1.18532e-11
6.52457e-11
-3.68196e-11
5.66388e-08
6.60875e-11
-3.00051e-11
5.29063e-08
4.17508e-11
-1.25632e-11
4.57864e-08
-2.83622e-12
3.5934e-08
1.3118e-11
7.26337e-11
6.20408e-08
7.19894e-11
5.81783e-08
4.62599e-11
5.08605e-08
4.08827e-08
1.44396e-11
2.59698e-11
-3.61128e-11
4.51781e-08
2.51024e-11
-2.8279e-11
4.17779e-08
1.74345e-11
-1.70693e-11
3.51585e-08
-8.37836e-12
2.56693e-08
7.46819e-12
3.24594e-11
-3.30282e-11
5.0985e-08
3.20508e-11
-2.56184e-11
4.74169e-08
2.13513e-11
-1.34757e-11
4.05424e-08
-5.00076e-12
3.08596e-08
8.00137e-12
3.71565e-11
-1.97051e-11
5.6617e-08
3.69734e-11
-1.5858e-11
5.28965e-08
2.38495e-11
-6.9768e-12
4.57928e-08
-2.12647e-12
3.5946e-08
8.61703e-12
4.12201e-11
6.20118e-08
4.03233e-11
5.81632e-08
2.63894e-11
5.08673e-08
4.08973e-08
9.42614e-12
1.63236e-11
-1.89163e-11
4.51785e-08
1.53809e-11
-1.51488e-11
4.17801e-08
1.10645e-11
-9.94664e-12
3.51624e-08
-5.44247e-12
2.56732e-08
5.34276e-12
1.94774e-11
-1.73471e-11
5.09796e-08
1.88262e-11
-1.35501e-11
4.74157e-08
1.28439e-11
-7.70748e-12
4.0546e-08
-3.34637e-12
3.08646e-08
5.52405e-12
2.1762e-11
-1.05378e-11
5.66058e-08
2.11899e-11
-8.38428e-12
5.28918e-08
1.40033e-11
-4.06208e-12
4.57962e-08
-1.50128e-12
3.59522e-08
5.76678e-12
2.40617e-11
6.19966e-08
2.318e-11
5.81555e-08
1.54941e-11
5.08707e-08
4.09048e-08
6.27612e-12
1.06043e-11
-1.01083e-11
4.51784e-08
9.72655e-12
-8.31347e-12
4.17813e-08
7.16178e-12
-5.78199e-12
3.51645e-08
-3.49639e-12
2.56753e-08
3.77179e-12
1.1974e-11
-9.22092e-12
5.09767e-08
1.13266e-11
-7.27222e-12
4.74152e-08
7.94276e-12
-4.45375e-12
4.05479e-08
-2.16923e-12
3.08672e-08
3.82887e-12
1.31048e-11
-5.65664e-12
5.65999e-08
1.24657e-11
-4.38687e-12
5.28894e-08
8.47458e-12
-2.38106e-12
4.57979e-08
-9.95845e-13
3.59554e-08
3.91846e-12
1.44344e-11
6.19885e-08
1.37101e-11
5.81518e-08
9.35649e-12
5.08726e-08
4.09089e-08
4.25182e-12
6.79292e-12
-5.39525e-12
4.51784e-08
6.23345e-12
-4.52375e-12
4.17819e-08
4.71375e-12
-3.37428e-12
3.51656e-08
-2.24313e-12
2.56765e-08
2.654e-12
7.51279e-12
-4.91887e-12
5.09752e-08
7.00871e-12
-3.9284e-12
4.7415e-08
5.04247e-12
-2.57384e-12
4.0549e-08
-1.36558e-12
3.08687e-08
2.66058e-12
8.05591e-12
-2.99386e-12
5.65968e-08
7.54923e-12
-2.37649e-12
5.28883e-08
5.26916e-12
-1.37162e-12
4.5799e-08
-6.28613e-13
3.59572e-08
2.68712e-12
8.88727e-12
6.19843e-08
8.30889e-12
5.815e-08
5.80742e-12
5.08737e-08
4.09111e-08
2.90892e-12
4.42363e-12
-2.89579e-12
4.51784e-08
4.03315e-12
-2.5346e-12
4.17823e-08
3.13243e-12
-1.96962e-12
3.51663e-08
-1.41895e-12
2.56772e-08
1.84323e-12
4.80941e-12
-2.64637e-12
5.09745e-08
4.41608e-12
-2.14125e-12
4.7415e-08
3.24562e-12
-1.48663e-12
4.05497e-08
-8.3733e-13
3.08696e-08
1.83279e-12
5.03926e-12
-1.62261e-12
5.65952e-08
4.66311e-12
-1.27415e-12
5.28878e-08
3.33261e-12
-7.83658e-13
4.57996e-08
-3.84361e-13
3.59582e-08
1.83396e-12
5.54663e-12
6.19821e-08
5.12483e-12
5.81491e-08
3.66354e-12
5.08744e-08
4.09123e-08
1.98045e-12
2.9132e-12
-1.54144e-12
4.51784e-08
2.63375e-12
-1.38618e-12
4.17825e-08
2.06586e-12
-1.11678e-12
3.51667e-08
-8.6313e-13
2.56776e-08
1.26146e-12
3.09802e-12
-1.40026e-12
5.0974e-08
2.81736e-12
-1.1485e-12
4.7415e-08
2.09939e-12
-8.39052e-13
4.055e-08
-4.92173e-13
3.087e-08
1.24354e-12
3.19078e-12
-8.46018e-13
5.65944e-08
2.92333e-12
-6.71528e-13
5.28875e-08
2.12556e-12
-4.34271e-13
4.57999e-08
-2.25349e-13
3.59588e-08
1.23351e-12
3.49292e-12
6.19809e-08
3.1904e-12
5.81487e-08
2.32113e-12
5.08748e-08
4.0913e-08
1.32508e-12
2.04648e-12
-7.5846e-13
4.51784e-08
1.81011e-12
-6.84992e-13
4.17826e-08
1.38588e-12
-5.71438e-13
3.51669e-08
-4.90937e-13
2.56778e-08
8.72606e-13
2.09808e-12
-6.79171e-13
5.09739e-08
1.88857e-12
-5.6016e-13
4.74151e-08
1.41422e-12
-4.16019e-13
4.05503e-08
-2.52374e-13
3.08703e-08
8.58124e-13
2.14276e-12
-3.94192e-13
5.65941e-08
1.92549e-12
-3.16328e-13
5.28875e-08
1.41442e-12
-2.03365e-13
4.58002e-08
-9.64173e-14
3.59591e-08
8.4467e-13
2.29132e-12
6.19804e-08
2.0563e-12
5.81486e-08
1.51275e-12
5.08751e-08
4.09135e-08
8.97308e-13
1.87258e-12
-2.25871e-13
1.57947e-12
-2.11929e-13
1.14197e-12
-1.92063e-13
-2.10174e-13
7.11149e-13
1.8516e-12
-2.02034e-13
1.57474e-12
-1.51825e-13
1.14392e-12
-1.01846e-13
-6.30483e-14
6.97669e-13
1.83058e-12
-1.22668e-13
1.55813e-12
-8.70005e-14
1.12446e-12
-4.9436e-14
-1.88121e-14
6.83812e-13
1.84589e-12
1.57561e-12
1.13928e-12
6.90428e-13
1.06398e-08
-7.24207e-09
4.78569e-08
1.06974e-08
-5.56076e-09
6.31325e-08
5.28612e-09
-1.72213e-09
6.27305e-08
-4.07016e-09
7.2359e-08
6.82743e-09
-2.79498e-09
3.08411e-08
3.1999e-09
-2.61944e-09
4.70367e-08
6.08497e-10
-1.8002e-09
5.1996e-08
6.85725e-10
5.29688e-08
2.98484e-10
9.38138e-09
1.62232e-08
2.88272e-09
1.02417e-09
3.30942e-08
9.5064e-09
4.47734e-09
3.26638e-08
3.92263e-09
5.8666e-08
-9.79185e-09
4.04941e-08
9.02364e-09
1.18975e-08
8.41857e-09
3.6571e-08
5.08541e-08
-1.61447e-09
1.80064e-09
3.00094e-08
3.12494e-08
5.50585e-09
2.03593e-08
1.68721e-08
-1.8816e-09
8.14277e-08
-7.86802e-09
9.01129e-08
2.18866e-09
1.85164e-10
3.29051e-08
9.16829e-09
9.55226e-10
4.46078e-08
1.65971e-09
-4.80621e-09
6.24292e-08
-4.60719e-09
4.95547e-08
9.92955e-10
-8.63973e-10
2.30237e-08
-2.3306e-09
-1.28247e-09
3.86555e-08
2.86741e-09
-2.21186e-10
2.28808e-08
-6.65224e-10
5.70203e-08
-3.68823e-09
2.52528e-08
-1.57395e-09
6.9864e-09
3.57709e-09
2.79355e-08
5.01598e-08
3.80205e-09
-4.44986e-09
3.82791e-08
-3.04174e-09
-4.96031e-09
3.16834e-08
8.72553e-09
-4.46443e-09
6.71733e-08
-5.88234e-09
6.83587e-08
3.5126e-09
-4.79391e-09
3.40115e-08
-9.81753e-10
3.30096e-10
4.38117e-08
8.34224e-09
2.42824e-10
4.8398e-08
-3.03519e-09
5.45551e-08
1.10347e-08
-1.297e-08
2.0943e-08
5.15839e-11
-7.79184e-09
5.77605e-08
1.12994e-09
-5.18344e-09
2.72287e-08
-8.87373e-09
6.42624e-08
1.62729e-08
3.14426e-08
1.36601e-09
1.06867e-08
-4.2692e-09
2.93093e-08
3.77462e-08
4.95914e-10
-6.27043e-09
4.96446e-08
-5.88423e-09
-3.40025e-09
4.09031e-08
-4.76633e-09
-7.40824e-10
5.90646e-08
-4.73594e-10
5.63074e-08
3.58267e-09
-3.37685e-10
2.01472e-08
-5.63171e-10
-4.20447e-09
4.87618e-08
-3.40256e-09
-2.32166e-09
5.28182e-08
-1.42093e-09
5.19096e-08
7.50654e-10
-2.59456e-09
1.79442e-08
-2.79686e-09
2.70818e-10
5.68327e-08
3.32534e-09
-1.44533e-09
2.02302e-08
-5.32361e-09
7.10387e-08
5.5478e-09
2.88689e-08
-4.00195e-09
2.62952e-08
-5.77403e-09
3.20168e-08
2.85277e-08
-1.67606e-09
-2.59705e-10
5.38798e-08
-1.85375e-09
-1.70936e-09
4.5182e-08
-1.01974e-08
-3.0505e-10
7.56485e-08
3.53737e-09
6.20991e-08
-3.21527e-09
-1.6501e-09
2.48843e-08
-1.87761e-09
-7.09194e-10
4.6424e-08
-5.54016e-09
-2.41789e-09
5.85936e-08
-1.64786e-09
5.18063e-08
1.93323e-09
-8.93869e-10
1.46774e-08
-2.94466e-09
-2.80769e-09
6.3809e-08
-6.34663e-09
-1.54867e-09
2.27629e-08
1.65271e-09
6.071e-08
1.15673e-09
2.81253e-08
-2.03442e-09
2.98519e-08
5.69964e-10
2.95097e-08
3.33559e-08
1.93266e-09