/*--------------------------------*- C++ -*----------------------------------*\
| =========                 |                                                 |
| \\      /  F ield         | OpenFOAM: The Open Source CFD Toolbox           |
|  \\    /   O peration     | Version:  2506                                  |
|   \\  /    A nd           | Website:  www.openfoam.com                      |
|    \\/     M anipulation  |                                                 |
\*---------------------------------------------------------------------------*/
FoamFile
{
    version     2.0;
    format      ascii;
    arch        "LSB;label=32;scalar=64";
    class       volVectorField;
    location    "0.07";
    object      stored_U;
}
// * * * * * * * * * * * * * * * * * * * * * * * * * * * * * * * * * * * * * //

dimensions      [0 1 -1 0 0 0 0];

internalField   nonuniform List<vector> 
1152
(
(0.00347764 0.00874091 0.0456256)
(-0.00140388 0.000870424 0.012631)
(-7.65739e-05 -0.00252083 0.0156055)
(5.42299e-05 -0.000310647 0.00147633)
(0.00258902 -0.00875547 0.0403381)
(-0.00270509 0.000442598 0.0158148)
(-0.00098512 -0.000522731 0.0193356)
(0.000964154 0.000254496 0.016525)
(0.00037176 -0.000610495 0.00610963)
(0.00142971 -0.000666441 0.0186507)
(0.000147345 0.00346718 0.017614)
(-6.68662e-05 0.00341243 0.0260019)
(0.000320078 0.00183922 0.0178213)
(0.00192743 -0.000258231 0.014768)
(0.00213668 0.00388987 0.0187529)
(0.000125572 0.0051313 0.0289551)
(-0.00819124 -0.00399108 0.0465154)
(0.00041203 -0.000879667 0.0197189)
(0.00429552 0.000372079 0.0457935)
(-8.77433e-06 0.0019977 0.0362338)
(-0.00543562 0.00375224 0.0425253)
(0.00180573 7.337e-05 0.0289904)
(0.000633112 0.000174478 0.016464)
(0.00226476 -0.00128155 0.024068)
(0.000230978 -0.000712284 0.0016362)
(-0.000167222 0.00263895 0.044994)
(-2.45269e-06 0.000999004 0.0163531)
(0.00243087 0.002573 0.0234213)
(0.00398759 -0.00359438 0.0408736)
(0.000315321 0.00117111 0.0203938)
(0.00594819 0.0034087 0.0530478)
(0.000319471 0.000579084 0.00116122)
(0.000445178 -0.00107367 0.0105339)
(0.00379294 -0.00176772 0.0251859)
(-0.00049277 0.00045127 0.0118447)
(0.00394566 0.000813631 0.041777)
(0.00040545 -0.000831718 0.00596547)
(0.00222481 -0.000763895 0.0282112)
(0.00193956 0.000554675 0.0322231)
(0.00136564 -0.000635672 0.0245121)
(-0.00143274 0.00124139 0.0300173)
(0.000218974 0.0014679 0.0321899)
(0.00227346 -0.00157387 0.0296845)
(0.000435407 -0.00213327 0.0287934)
(-0.000569475 -0.000170769 0.0304338)
(-0.00151486 0.00195024 0.024557)
(-0.00115837 0.000968935 0.0220436)
(-0.00364389 -0.00474894 0.0366734)
(0.00083208 -0.00132761 0.0101364)
(0.00114595 0.000491222 0.0229795)
(-0.00728968 0.00323996 0.0473643)
(-0.00151413 0.000689213 0.028077)
(0.00277617 -0.00246739 0.0545603)
(0.00192706 -0.00363493 0.0251523)
(0.000568663 -0.00212722 0.0241337)
(-0.00226613 0.000455938 0.0197057)
(-0.0014541 0.000887515 0.0268999)
(0.000338928 -0.000599612 0.0296372)
(0.000948713 -0.00294673 0.0225845)
(-0.00148063 -0.00405614 0.0369204)
(0.000350838 0.00316023 0.0448493)
(-0.00100123 0.0013922 0.0231415)
(-0.00267206 -0.00172795 0.0430806)
(-0.00169272 -0.00959635 0.0414589)
(0.000205512 0.000148192 0.00320637)
(-0.0223928 -0.000506282 0.0572902)
(0.000624902 -7.30094e-05 0.00334229)
(0.000677379 -7.33771e-06 0.0141109)
(0.000175078 -0.00379244 0.0148751)
(-0.000594809 -0.00147081 0.0170001)
(-0.00215792 0.000616636 0.0495834)
(-0.000252232 -0.00154782 0.0376929)
(-0.00030407 -0.000362469 0.0197482)
(5.8209e-05 -0.00141918 0.0314379)
(-0.000166999 -0.000512467 0.0306769)
(-0.00100062 -0.00203013 0.044936)
(-0.00065641 0.00556022 0.0337252)
(-0.000502306 0.00117144 0.0194878)
(-0.000244832 0.000601094 0.0179004)
(-0.00224274 -0.00351167 0.0465496)
(-0.0170742 0.00199047 0.0200116)
(-0.000267124 0.000146239 0.0158578)
(0.00383086 -0.00116903 0.0248658)
(0.00252009 0.00111128 0.0217051)
(0.00343983 0.00431296 0.0385571)
(0.00191652 0.00209171 0.0193898)
(0.00158457 0.00228376 0.0160924)
(0.000533612 0.00054872 0.0141061)
(0.000516453 0.000585813 0.00872516)
(0.000604713 0.00160302 0.0140341)
(0.00107528 -0.000475105 0.0122843)
(0.000702961 -0.00276267 0.0188382)
(-0.000495395 0.00268173 0.0313988)
(0.000332346 0.000495126 0.00516031)
(-0.00490776 0.000216335 0.0308624)
(-0.000203373 0.000996155 0.0329579)
(0.00134252 0.000456719 0.00568461)
(0.00179121 -0.000316019 0.016641)
(-0.000250314 0.00040384 0.011166)
(-0.000824222 0.000163732 0.0170039)
(0.000141219 0.000379759 0.0153816)
(-0.000492101 0.000735528 0.0224177)
(-0.000458209 0.00019717 0.0286252)
(7.64914e-06 -0.000408608 0.0248746)
(0.000628801 0.00092092 0.0145807)
(0.000269662 0.000568883 0.011349)
(-0.000411813 0.00073204 0.0168719)
(-1.59865e-05 0.000342075 0.0287619)
(0.000244511 0.000545921 0.00415524)
(-0.000372797 -0.000131211 0.0159394)
(-0.000290043 0.000582617 0.010358)
(-0.00040842 0.000968398 0.0211032)
(0.00295007 0.000733209 0.0177082)
(0.000416182 -0.000191329 0.02904)
(-0.00101589 0.000602376 0.0251126)
(-0.000996362 0.000165254 0.0273731)
(0.000137546 0.000393787 0.0318632)
(-0.000884718 -0.000288376 0.0320312)
(-0.0012564 -9.34296e-05 0.0336612)
(-0.00039846 -0.000249296 0.0305249)
(0.000306984 -0.000732439 0.0215035)
(-0.000260934 -0.000438531 0.0193543)
(-0.000966811 0.000601176 0.0251906)
(-0.00034094 0.000936147 0.0327085)
(-0.00024779 -0.000745992 0.00975807)
(0.000411933 -0.000478872 0.0228999)
(0.000140948 -3.30158e-05 0.0211861)
(0.000116844 0.000643213 0.0313992)
(0.00279379 -0.000918049 0.00663953)
(-9.64883e-05 1.11798e-05 0.00713217)
(4.48458e-05 0.000280408 0.00691467)
(-0.000706117 2.33215e-05 0.0074186)
(0.000135176 0.000664936 0.0074123)
(-0.000743011 0.00111252 0.00772275)
(-0.000524874 9.44988e-05 0.00825692)
(-0.000106881 -0.000310598 0.00829356)
(0.000479863 0.00142321 0.00537523)
(-0.000753035 0.00119 0.00529599)
(-0.00146842 0.00108413 0.00653771)
(-0.000872035 0.000378538 0.00828743)
(-0.000495994 -0.000848231 0.00392568)
(-0.00105211 -0.000682703 0.00538137)
(-0.00129914 -0.000291129 0.00576193)
(-0.000910349 0.00025113 0.00751161)
(0.000659411 -0.000125943 0.0163525)
(-0.000237694 0.000137177 0.0168864)
(-0.000179016 0.000173391 0.0163899)
(-0.000506412 7.0559e-05 0.0166253)
(-0.000129366 0.000357189 0.0164555)
(-0.0005166 0.000528178 0.0168259)
(-0.000459705 0.000167533 0.0169206)
(-0.000348294 4.49201e-05 0.0169843)
(2.39486e-05 0.000475669 0.0154621)
(-0.000478572 0.000530525 0.0156346)
(-0.000726986 0.000532959 0.0161034)
(-0.00051071 0.000426135 0.0168395)
(-0.000183647 -0.000541019 0.0146992)
(-0.000448681 -0.000337112 0.0153733)
(-0.000550271 -6.45089e-05 0.015698)
(-0.00030752 0.000306483 0.0164954)
(9.53559e-05 -1.29046e-05 0.0137683)
(-0.000178303 4.58854e-05 0.0139878)
(-0.000166328 2.82238e-05 0.0138301)
(-0.000300234 -5.29521e-06 0.0139273)
(-0.000116388 0.000114402 0.013688)
(-0.00029173 0.000169189 0.0138878)
(-0.00029588 3.99674e-05 0.0139489)
(-0.000301513 -1.13904e-05 0.014024)
(-6.12405e-05 9.25705e-05 0.0133429)
(-0.000281547 0.000141731 0.0134561)
(-0.00038723 0.000130739 0.013608)
(-0.000372497 9.49884e-05 0.0138353)
(-8.87111e-05 -0.000316667 0.013132)
(-0.00025055 -0.000222803 0.0133089)
(-0.000339123 -0.000133573 0.0133932)
(-0.000323075 -5.80973e-05 0.0135654)
(-2.2883e-05 2.10253e-06 0.0143657)
(-0.00011062 1.05328e-05 0.0144562)
(-0.000112705 5.95626e-07 0.0144102)
(-0.000168498 -1.97651e-06 0.0144463)
(-7.61318e-05 2.80733e-05 0.0143193)
(-0.000145901 4.99168e-05 0.0144106)
(-0.000152152 2.14343e-05 0.0144395)
(-0.000169806 2.07396e-05 0.0144801)
(-4.95007e-05 -9.41493e-06 0.0142097)
(-0.000129975 3.03794e-05 0.0142683)
(-0.000160186 4.94048e-05 0.0143225)
(-0.000161646 7.34692e-05 0.0143976)
(-3.08648e-05 -0.000180996 0.0141566)
(-8.64812e-05 -0.0001209 0.0142136)
(-0.000106993 -5.76347e-05 0.0142463)
(-9.36989e-05 1.17305e-05 0.0143001)
(-3.27764e-05 -8.98594e-06 0.0143811)
(-6.39287e-05 -7.81975e-06 0.0144184)
(-7.01828e-05 -1.14475e-05 0.0144069)
(-9.42171e-05 -7.46186e-06 0.0144149)
(-4.3654e-05 -9.37167e-06 0.0143583)
(-7.28127e-05 1.36398e-06 0.0143964)
(-8.01615e-05 -1.56058e-06 0.0144038)
(-9.28619e-05 4.98727e-06 0.0144115)
(-2.99406e-05 -3.54104e-05 0.0143199)
(-6.00584e-05 -1.35492e-05 0.0143421)
(-7.27051e-05 2.94667e-06 0.014348)
(-8.0725e-05 2.17659e-05 0.0143507)
(-1.16774e-05 -0.000104473 0.0143024)
(-3.26943e-05 -7.54073e-05 0.0143103)
(-4.28558e-05 -4.45941e-05 0.014295)
(-4.76778e-05 -1.44103e-05 0.0142695)
(-2.35635e-05 -1.48824e-05 0.0144011)
(-3.56657e-05 -1.44518e-05 0.0144156)
(-4.17427e-05 -1.37193e-05 0.0144113)
(-5.21067e-05 -9.13568e-06 0.0144065)
(-2.45322e-05 -1.9056e-05 0.0143915)
(-3.59642e-05 -1.31171e-05 0.0144055)
(-4.12441e-05 -9.57841e-06 0.0144047)
(-4.86269e-05 -2.32454e-06 0.0143974)
(-1.59804e-05 -3.34019e-05 0.0143759)
(-2.69476e-05 -2.12787e-05 0.0143821)
(-3.26366e-05 -9.6769e-06 0.0143758)
(-3.78951e-05 3.82067e-06 0.0143598)
(-3.97957e-06 -6.11906e-05 0.0143639)
(-1.09384e-05 -4.6891e-05 0.0143599)
(-1.45235e-05 -3.00773e-05 0.0143392)
(-1.78557e-05 -1.284e-05 0.0143044)
(-1.50367e-05 -1.53337e-05 0.0144171)
(-2.08395e-05 -1.44468e-05 0.0144212)
(-2.50367e-05 -1.29491e-05 0.0144162)
(-2.96574e-05 -9.50854e-06 0.0144041)
(-1.39399e-05 -1.86465e-05 0.0144125)
(-1.91724e-05 -1.50318e-05 0.0144157)
(-2.26208e-05 -1.12453e-05 0.0144096)
(-2.65651e-05 -6.00322e-06 0.014394)
(-8.91338e-06 -2.57765e-05 0.0144031)
(-1.33892e-05 -1.92606e-05 0.0144014)
(-1.63029e-05 -1.18975e-05 0.0143895)
(-1.95499e-05 -3.63179e-06 0.0143653)
(-2.08181e-06 -3.69658e-05 0.014389)
(-4.44905e-06 -2.98617e-05 0.0143805)
(-5.91915e-06 -2.08078e-05 0.014358)
(-8.16586e-06 -1.14406e-05 0.0143189)
(-9.53738e-06 -1.3261e-05 0.0144262)
(-1.26897e-05 -1.23906e-05 0.0144259)
(-1.52028e-05 -1.1049e-05 0.0144189)
(-1.74069e-05 -8.77171e-06 0.0144024)
(-8.38708e-06 -1.53109e-05 0.0144232)
(-1.1083e-05 -1.3056e-05 0.0144218)
(-1.30877e-05 -1.03417e-05 0.0144127)
(-1.52073e-05 -6.94751e-06 0.0143926)
(-5.51067e-06 -1.86222e-05 0.0144148)
(-7.57584e-06 -1.50231e-05 0.01441)
(-9.08426e-06 -1.06703e-05 0.0143957)
(-1.09899e-05 -5.90481e-06 0.014368)
(-1.78029e-06 -2.30089e-05 0.0143981)
(-2.65171e-06 -1.93834e-05 0.0143884)
(-3.35789e-06 -1.45528e-05 0.0143656)
(-4.71374e-06 -9.41061e-06 0.0143254)
(-6.22822e-06 -1.06207e-05 0.0144311)
(-8.03e-06 -9.93088e-06 0.0144288)
(-9.41888e-06 -8.935e-06 0.0144202)
(-1.04898e-05 -7.4996e-06 0.014401)
(-5.38422e-06 -1.17551e-05 0.0144284)
(-6.84577e-06 -1.03478e-05 0.0144249)
(-7.94966e-06 -8.59349e-06 0.0144141)
(-9.09401e-06 -6.51745e-06 0.0143916)
(-3.74519e-06 -1.3158e-05 0.0144195)
(-4.76901e-06 -1.11343e-05 0.0144135)
(-5.54786e-06 -8.6361e-06 0.0143979)
(-6.63845e-06 -5.90877e-06 0.0143685)
(-1.71316e-06 -1.4727e-05 0.0144007)
(-2.06714e-06 -1.28537e-05 0.0143908)
(-2.39366e-06 -1.02754e-05 0.014368)
(-3.13546e-06 -7.39728e-06 0.0143275)
(-4.21691e-06 -8.17161e-06 0.0144338)
(-5.23878e-06 -7.67041e-06 0.0144306)
(-5.98713e-06 -6.98702e-06 0.0144208)
(-6.48604e-06 -6.08185e-06 0.0144001)
(-3.64644e-06 -8.73042e-06 0.0144308)
(-4.44693e-06 -7.86532e-06 0.0144265)
(-5.01649e-06 -6.77065e-06 0.0144146)
(-5.62681e-06 -5.49837e-06 0.0143908)
(-2.70395e-06 -9.23457e-06 0.0144214)
(-3.22404e-06 -8.08432e-06 0.0144148)
(-3.59365e-06 -6.64782e-06 0.0143986)
(-4.19796e-06 -5.07306e-06 0.0143683)
(-1.586e-06 -9.66269e-06 0.0144012)
(-1.72376e-06 -8.68281e-06 0.0143912)
(-1.82646e-06 -7.28529e-06 0.0143684)
(-2.18128e-06 -5.62059e-06 0.0143278)
(-2.93001e-06 -6.12183e-06 0.0144353)
(-3.49729e-06 -5.78068e-06 0.0144315)
(-3.88524e-06 -5.32323e-06 0.014421)
(-4.10343e-06 -4.74626e-06 0.0143994)
(-2.55566e-06 -6.36108e-06 0.014432)
(-2.98812e-06 -5.83221e-06 0.0144272)
(-3.26271e-06 -5.15467e-06 0.0144147)
(-3.57301e-06 -4.37231e-06 0.0143901)
(-2.00114e-06 -6.47214e-06 0.0144219)
(-2.26198e-06 -5.80951e-06 0.0144151)
(-2.41131e-06 -4.96847e-06 0.0143985)
(-2.73036e-06 -4.03873e-06 0.0143677)
(-1.37457e-06 -6.46086e-06 0.0144008)
(-1.41047e-06 -5.93833e-06 0.0143909)
(-1.39285e-06 -5.14832e-06 0.0143681)
(-1.53817e-06 -4.16765e-06 0.0143274)
(-2.03635e-06 -4.47987e-06 0.0144361)
(-2.36378e-06 -4.25424e-06 0.0144319)
(-2.55306e-06 -3.95133e-06 0.0144211)
(-2.63247e-06 -3.58001e-06 0.014399)
(-1.7994e-06 -4.57242e-06 0.0144324)
(-2.03239e-06 -4.23825e-06 0.0144274)
(-2.15287e-06 -3.8137e-06 0.0144145)
(-2.30442e-06 -3.32681e-06 0.0143895)
(-1.46492e-06 -4.52181e-06 0.014422)
(-1.58969e-06 -4.12355e-06 0.0144149)
(-1.63445e-06 -3.62126e-06 0.0143982)
(-1.79783e-06 -3.06256e-06 0.0143672)
(-1.09907e-06 -4.36032e-06 0.0144003)
(-1.09025e-06 -4.07093e-06 0.0143903)
(-1.0348e-06 -3.61274e-06 0.0143675)
(-1.07667e-06 -3.02365e-06 0.0143267)
(-1.36645e-06 -3.16658e-06 0.0144365)
(-1.57781e-06 -3.02402e-06 0.0144322)
(-1.66286e-06 -2.82726e-06 0.014421)
(-1.68052e-06 -2.58904e-06 0.0143987)
(-1.22292e-06 -3.21665e-06 0.0144326)
(-1.35421e-06 -2.99547e-06 0.0144274)
(-1.4027e-06 -2.72371e-06 0.0144144)
(-1.47586e-06 -2.41796e-06 0.0143891)
(-1.02144e-06 -3.11025e-06 0.0144218)
(-1.07647e-06 -2.86192e-06 0.0144147)
(-1.08164e-06 -2.55411e-06 0.0143978)
(-1.16713e-06 -2.217e-06 0.0143667)
(-8.02605e-07 -2.91833e-06 0.0143998)
(-7.73825e-07 -2.75491e-06 0.0143898)
(-7.2378e-07 -2.48957e-06 0.014367)
(-7.27998e-07 -2.12643e-06 0.0143261)
(-8.28512e-07 -2.09666e-06 0.0144367)
(-9.71722e-07 -2.01054e-06 0.0144323)
(-1.00815e-06 -1.88815e-06 0.014421)
(-1.00746e-06 -1.73957e-06 0.0143985)
(-7.44563e-07 -2.1365e-06 0.0144326)
(-8.23842e-07 -1.99173e-06 0.0144273)
(-8.42726e-07 -1.8212e-06 0.0144142)
(-8.81624e-07 -1.63349e-06 0.0143888)
(-6.26893e-07 -2.03174e-06 0.0144217)
(-6.5179e-07 -1.87791e-06 0.0144145)
(-6.48118e-07 -1.69273e-06 0.0143976)
(-6.97041e-07 -1.49373e-06 0.0143663)
(-4.98495e-07 -1.8664e-06 0.0143995)
(-4.70439e-07 -1.77487e-06 0.0143894)
(-4.38258e-07 -1.62419e-06 0.0143666)
(-4.36489e-07 -1.41e-06 0.0143257)
(-3.34309e-07 -1.18474e-06 0.0144368)
(-4.22143e-07 -1.13756e-06 0.0144323)
(-4.45128e-07 -1.07025e-06 0.014421)
(-4.53526e-07 -9.87098e-07 0.0143984)
(-2.87919e-07 -1.21566e-06 0.0144327)
(-3.37675e-07 -1.13334e-06 0.0144273)
(-3.52122e-07 -1.03965e-06 0.0144141)
(-3.83769e-07 -9.36823e-07 0.0143887)
(-2.26804e-07 -1.14684e-06 0.0144216)
(-2.43667e-07 -1.06422e-06 0.0144144)
(-2.48023e-07 -9.66467e-07 0.0143974)
(-2.85386e-07 -8.62407e-07 0.0143661)
(-1.62955e-07 -1.04099e-06 0.0143993)
(-1.48679e-07 -9.976e-07 0.0143892)
(-1.38739e-07 -9.22795e-07 0.0143664)
(-1.47182e-07 -8.13046e-07 0.0143255)
(2.48079e-07 -3.3702e-07 0.0144368)
(2.00827e-07 -3.20195e-07 0.0144324)
(1.59822e-07 -2.98179e-07 0.0144211)
(1.13114e-07 -2.71099e-07 0.0143984)
(2.63112e-07 -3.58387e-07 0.0144327)
(2.25546e-07 -3.35734e-07 0.0144274)
(1.8724e-07 -3.09136e-07 0.0144142)
(1.31949e-07 -2.79721e-07 0.0143887)
(2.76508e-07 -3.50663e-07 0.0144216)
(2.51381e-07 -3.32071e-07 0.0144144)
(2.15746e-07 -3.08508e-07 0.0143974)
(1.5683e-07 -2.83194e-07 0.0143661)
(2.87578e-07 -3.27905e-07 0.0143992)
(2.73343e-07 -3.27247e-07 0.0143892)
(2.42411e-07 -3.16425e-07 0.0143664)
(1.93282e-07 -2.95154e-07 0.0143254)
(0.00235923 0.000333437 0.0287265)
(0.00226969 0.000241744 0.0141365)
(0.00700741 -0.00172849 0.0308969)
(0.000472181 0.00205478 0.0145497)
(0.000500253 0.00135186 0.0133162)
(0.00183105 0.00195963 0.012034)
(0.00575398 0.000132785 0.0221206)
(0.00193802 0.00358785 0.0174068)
(0.00314274 0.00307154 0.0262581)
(0.00242605 0.00249679 0.0199867)
(0.00429098 0.000518961 0.0223403)
(0.00259261 0.00535547 0.0262914)
(0.000157639 0.000231678 0.000933426)
(0.000776292 -0.00017363 0.00974033)
(0.00340919 -0.00183561 0.0216467)
(0.00183057 0.000324513 0.0191265)
(-0.000110175 -0.00134832 0.029411)
(0.00173158 0.00134085 0.0177748)
(0.00569108 -0.0023189 0.0304419)
(0.00269351 0.00255418 0.0401623)
(0.000839493 0.00109622 0.0328243)
(0.00111788 0.000381177 0.0238962)
(0.000762311 0.000720444 0.00318447)
(-0.000184966 -0.00360899 0.0186704)
(0.00210324 0.00098044 0.024434)
(0.00352293 -9.27844e-05 0.040273)
(0.00154433 0.000236018 0.0334983)
(-0.00336366 -0.00329137 0.0464453)
(0.00549032 0.00319805 0.0528255)
(0.000471491 0.00220932 0.0422786)
(0.000299974 -0.000470026 0.0145136)
(0.00127749 0.000660695 0.0443979)
(0.000420153 -0.000777512 0.0138227)
(0.000207191 9.59217e-05 0.0319132)
(-0.00307507 0.00553156 0.0268097)
(0.000737874 -0.00041738 0.00260364)
(0.000148649 -0.000396867 0.0149161)
(0.00117893 -0.00368216 0.0404213)
(-0.000178099 -0.000593171 0.023262)
(-0.00181268 0.00855866 0.0432508)
(-0.00352639 -0.00386064 0.0353236)
(-0.00144071 -0.00170913 0.0136904)
(-0.000745791 -0.0027326 0.0549855)
(-0.00132674 -0.00288659 0.0200549)
(-0.00322423 -0.00308688 0.0221417)
(0.00167464 -0.00250949 0.0398996)
(0.00148071 -0.000899534 0.0325407)
(-0.00148623 5.94154e-05 0.044883)
(0.000964405 0.00351656 0.0275886)
(-0.0034808 0.000658012 0.0351389)
(-0.00207835 0.000817959 0.0117509)
(-0.00175798 -0.00160118 0.0320639)
(0.000919745 -0.000202986 0.0261561)
(-0.00417326 0.000222395 0.0289164)
(-0.00338581 0.000518744 0.0322436)
(0.00118385 0.00376287 0.0407753)
(-0.00183602 -0.00476454 0.043877)
(-0.00418079 -0.00133447 0.037139)
(-0.00420066 -0.000323799 0.031731)
(-0.000285322 -0.000568869 0.0231339)
(-0.00327316 -0.00133378 0.0337329)
(-0.0031499 -0.00160517 0.0264859)
(-0.00142568 -0.0010258 0.0265839)
(-0.000300391 -0.00101 0.0434277)
(0.000538176 0.00462822 0.0238666)
(-0.0073067 0.00640387 0.0525639)
(-0.00364935 0.000258643 0.0293858)
(-0.00136798 -0.00114743 0.0210768)
(-0.00595601 0.00411126 0.0531698)
(-0.00292424 0.000960048 0.0141662)
(-0.0042204 0.000185997 0.0285284)
(-0.000527932 -0.000412846 0.0337018)
(-0.000493381 -0.000359904 0.00163812)
(-0.00900884 0.000652547 0.0499513)
(-0.00391702 0.00319521 0.0539039)
(-0.000328439 -0.000608968 0.0163327)
(-0.00277999 -0.00218408 0.0207388)
(-0.00170948 0.000959772 0.0257905)
(-0.00187515 0.00129215 0.0213282)
(-0.00200367 -0.00106167 0.0417118)
(-0.00592842 0.0146163 0.0369298)
(-0.000498732 0.000173499 0.0131048)
(0.000722839 0.00234371 0.0183108)
(-0.000411927 0.00046757 0.00500637)
(4.22229e-05 0.000407487 0.00196714)
(-0.00390734 0.00330829 0.0236135)
(-0.00026701 0.000431145 0.0113971)
(-0.00201703 0.001957 0.021806)
(-0.0138595 -0.0022654 0.0207696)
(-0.00116992 0.00118145 0.0149834)
(-0.000336763 -5.44001e-05 0.0182139)
(-0.00120784 0.000516381 0.0151726)
(-0.00112841 9.03988e-05 0.0115767)
(-0.00124234 0.000360213 0.0188387)
(-0.00100328 0.0012359 0.0224473)
(-0.00219879 0.00021191 0.0177288)
(7.1191e-05 -4.5466e-05 0.0037983)
(-0.000387245 0.000718002 0.0180949)
(-0.000166988 0.000295504 0.0180618)
(-0.000132913 0.000836364 0.0129447)
(0.000365079 -0.00129714 0.00235869)
(0.00135743 7.74058e-05 0.0119227)
(-0.000216536 0.000185463 0.0174035)
(0.000117558 0.000182359 0.0184134)
(0.00437748 0.00557351 0.022242)
(0.000522925 0.000285548 0.0261111)
(0.000287971 9.60588e-06 0.0239008)
(3.48158e-05 0.000328473 0.0186933)
(0.00105613 0.00139418 0.0109751)
(-6.26609e-05 0.000615087 0.0165097)
(-0.000252172 0.000349811 0.0187522)
(4.38528e-05 0.000249347 0.0215563)
(8.35961e-05 -0.00104329 0.0189279)
(0.000506592 2.25871e-06 0.0254232)
(0.000172806 -0.000242755 0.024958)
(0.000184656 4.17994e-05 0.0250051)
(0.000387213 -0.00100029 0.0587314)
(0.00111301 -0.000929701 0.0266555)
(0.000137432 -0.000470918 0.0253229)
(0.000235095 -0.000241353 0.0249553)
(0.00103308 0.000996211 0.0394761)
(0.000846132 -0.000528352 0.0318379)
(0.00068172 -0.000181975 0.0299116)
(0.000374629 -9.26827e-05 0.0264107)
(0.00122298 0.00046904 0.0229374)
(0.000740783 0.000183566 0.0249574)
(0.000542281 2.07326e-05 0.0274722)
(0.000362434 -0.000119581 0.0282726)
(2.83515e-05 -0.00404613 0.00619455)
(-7.84252e-05 -0.0015107 0.00638839)
(-0.000496324 -0.00084254 0.00639944)
(-0.000478746 9.73919e-06 0.00663035)
(0.00068952 -0.00207897 0.0116995)
(0.00171887 -0.00151227 0.00729562)
(-5.16584e-05 -0.000862598 0.00671173)
(-0.000313526 -0.000256175 0.00640738)
(0.00139672 0.00167787 0.0101427)
(0.000958923 -0.00029731 0.00853348)
(0.000171314 -0.00050381 0.00748706)
(-0.000224178 -0.000456714 0.00658755)
(0.00144274 0.000889575 0.00733219)
(0.000220627 0.000331764 0.00704138)
(-0.000105696 6.34642e-05 0.00715011)
(-9.02013e-05 -0.000254642 0.00681318)
(7.93137e-05 -0.00174747 0.0161093)
(5.49508e-05 -0.000912882 0.0160746)
(-6.60649e-05 -0.000464646 0.0160609)
(-5.1954e-05 4.25113e-05 0.0162725)
(0.000402685 -0.0011864 0.0185761)
(0.000717263 -0.00091017 0.0167258)
(0.000250862 -0.00052939 0.0162831)
(6.81577e-05 -8.57638e-05 0.0161779)
(0.000765137 0.000241945 0.0180308)
(0.000686314 -0.00026149 0.0170797)
(0.000466139 -0.000278356 0.016517)
(0.000199267 -9.80333e-05 0.0161845)
(0.000948748 0.000242863 0.0167613)
(0.000501077 4.26013e-05 0.016458)
(0.000403726 -9.27763e-05 0.0163601)
(0.00022017 -0.000101144 0.0162147)
(2.43605e-05 -0.00071828 0.0136633)
(-6.46459e-05 -0.000457698 0.0135799)
(-0.000177241 -0.000251436 0.0134737)
(-0.00017775 -0.000104715 0.0134122)
(0.000176278 -0.000567624 0.0144549)
(0.000163013 -0.000436954 0.0138552)
(-3.12445e-05 -0.0002468 0.0135135)
(-0.000100404 -9.36684e-05 0.0132889)
(0.000340452 -0.000142101 0.0144314)
(0.000220042 -0.000245602 0.0139688)
(6.65536e-05 -0.000195556 0.0135162)
(-4.84052e-05 -0.000110866 0.0131766)
(0.000442919 -1.6077e-05 0.0139504)
(0.000194102 -8.18911e-05 0.0136508)
(9.63999e-05 -9.6425e-05 0.0133144)
(7.41635e-06 -7.47841e-05 0.013016)
(3.19938e-05 -0.000332609 0.0143437)
(8.254e-06 -0.000231807 0.0143157)
(-1.14122e-05 -0.000126418 0.0142757)
(-1.62294e-05 -3.11654e-05 0.0142656)
(0.00010917 -0.00028555 0.0145672)
(0.000107114 -0.000224586 0.0143971)
(6.90104e-05 -0.000131858 0.014264)
(2.36982e-05 -3.88601e-05 0.0142009)
(0.000188974 -0.00011119 0.0145677)
(0.000163153 -0.000130577 0.0144007)
(0.00013196 -9.71916e-05 0.0142162)
(5.88852e-05 -3.49746e-05 0.0141177)
(0.000243523 -2.46451e-05 0.0143896)
(0.000175124 -6.01878e-05 0.0142743)
(0.000155777 -7.56569e-05 0.0141129)
(7.32487e-05 -4.35954e-05 0.0140211)
(2.00774e-05 -0.000158504 0.0143568)
(8.44541e-06 -0.000117163 0.0143273)
(-1.3842e-06 -6.77033e-05 0.0142711)
(-5.05932e-06 -2.85381e-05 0.0142075)
(5.80512e-05 -0.000143944 0.0144054)
(5.21397e-05 -0.000116435 0.014326)
(3.68694e-05 -7.034e-05 0.0142207)
(1.31316e-05 -3.07468e-05 0.0141298)
(9.56272e-05 -7.81956e-05 0.0143677)
(8.28013e-05 -8.15515e-05 0.0142744)
(6.67609e-05 -6.06828e-05 0.014138)
(2.59129e-05 -3.24887e-05 0.0140315)
(0.00012206 -2.63559e-05 0.0142227)
(9.63411e-05 -4.4031e-05 0.0141434)
(8.26533e-05 -4.93543e-05 0.0140067)
(3.6095e-05 -3.29872e-05 0.0139036)
(1.20424e-05 -8.0008e-05 0.0143658)
(8.91849e-06 -6.14201e-05 0.0143449)
(6.66885e-06 -3.68482e-05 0.0143037)
(5.64129e-06 -1.74809e-05 0.0142504)
(3.05254e-05 -7.31227e-05 0.0143487)
(2.9391e-05 -6.04433e-05 0.0143082)
(2.583e-05 -3.82955e-05 0.0142438)
(1.42258e-05 -1.88867e-05 0.0141805)
(4.79527e-05 -4.53691e-05 0.0142836)
(4.5457e-05 -4.54788e-05 0.014235)
(4.13879e-05 -3.42048e-05 0.0141559)
(2.06013e-05 -1.89086e-05 0.0140898)
(6.12821e-05 -1.72596e-05 0.0141568)
(5.55912e-05 -2.6743e-05 0.0141133)
(5.16222e-05 -3.02895e-05 0.0140334)
(2.55421e-05 -2.06076e-05 0.013974)
(6.03454e-06 -4.28587e-05 0.0143685)
(5.50474e-06 -3.37661e-05 0.0143508)
(4.9273e-06 -2.12369e-05 0.0143152)
(5.12247e-06 -1.19841e-05 0.0142637)
(1.50717e-05 -3.86976e-05 0.0143255)
(1.55183e-05 -3.26793e-05 0.0142982)
(1.44591e-05 -2.18815e-05 0.01425)
(8.79739e-06 -1.27718e-05 0.0141947)
(2.34175e-05 -2.54075e-05 0.0142457)
(2.37655e-05 -2.5207e-05 0.0142139)
(2.22064e-05 -1.94989e-05 0.0141587)
(1.15289e-05 -1.2197e-05 0.0141048)
(3.035e-05 -1.00912e-05 0.0141197)
(2.99914e-05 -1.52056e-05 0.0140902)
(2.79199e-05 -1.7101e-05 0.0140355)
(1.43605e-05 -1.24055e-05 0.0139892)
(2.40743e-06 -2.4219e-05 0.0143676)
(2.53743e-06 -1.94339e-05 0.0143517)
(2.43646e-06 -1.28579e-05 0.0143194)
(3.25722e-06 -8.33718e-06 0.0142698)
(6.96676e-06 -2.14145e-05 0.0143134)
(7.71328e-06 -1.8377e-05 0.0142919)
(7.40581e-06 -1.30271e-05 0.0142521)
(4.89396e-06 -8.67028e-06 0.0142016)
(1.11258e-05 -1.43707e-05 0.0142261)
(1.21076e-05 -1.41499e-05 0.0142023)
(1.14774e-05 -1.13168e-05 0.0141594)
(6.25448e-06 -7.74962e-06 0.0141126)
(1.49588e-05 -5.79636e-06 0.0140985)
(1.59167e-05 -8.55877e-06 0.0140766)
(1.49079e-05 -9.66432e-06 0.0140364)
(8.07279e-06 -7.37563e-06 0.0139982)
(5.01767e-07 -1.4347e-05 0.0143655)
(7.40301e-07 -1.16837e-05 0.0143507)
(8.23875e-07 -8.11941e-06 0.0143201)
(1.86062e-06 -5.95803e-06 0.0142715)
(2.90469e-06 -1.23749e-05 0.0143062)
(3.55639e-06 -1.07596e-05 0.0142875)
(3.52188e-06 -8.06907e-06 0.0142517)
(2.58478e-06 -6.05643e-06 0.0142035)
(5.08816e-06 -8.32981e-06 0.0142151)
(5.99655e-06 -8.14742e-06 0.014195)
(5.75775e-06 -6.78372e-06 0.0141582)
(3.31811e-06 -5.10007e-06 0.0141147)
(7.34443e-06 -3.36242e-06 0.0140862)
(8.36233e-06 -4.86641e-06 0.0140682)
(7.90343e-06 -5.55419e-06 0.0140352)
(4.5751e-06 -4.51789e-06 0.014001)
(-3.70409e-07 -8.85027e-06 0.0143635)
(-1.41723e-07 -7.28841e-06 0.0143493)
(4.50426e-08 -5.28091e-06 0.0143195)
(1.07087e-06 -4.28497e-06 0.0142715)
(9.69168e-07 -7.44436e-06 0.0143017)
(1.47554e-06 -6.54339e-06 0.0142843)
(1.57035e-06 -5.16268e-06 0.0142505)
(1.37583e-06 -4.27661e-06 0.0142035)
(2.18205e-06 -4.97289e-06 0.0142086)
(2.88476e-06 -4.83701e-06 0.0141904)
(2.86908e-06 -4.19066e-06 0.0141567)
(1.80773e-06 -3.43193e-06 0.0141148)
(3.58659e-06 -1.99138e-06 0.014079)
(4.40457e-06 -2.82934e-06 0.014063)
(4.26181e-06 -3.26749e-06 0.0140338)
(2.6822e-06 -2.85766e-06 0.0140015)
(-6.77956e-07 -5.63852e-06 0.0143618)
(-4.70203e-07 -4.68257e-06 0.014348)
(-2.63931e-07 -3.51922e-06 0.0143186)
(6.20979e-07 -3.07788e-06 0.0142708)
(1.12851e-07 -4.63363e-06 0.0142987)
(4.82863e-07 -4.10861e-06 0.014282)
(6.26823e-07 -3.40245e-06 0.0142492)
(7.53287e-07 -3.03888e-06 0.0142028)
(8.22875e-07 -3.05886e-06 0.0142046)
(1.32886e-06 -2.96809e-06 0.0141874)
(1.42209e-06 -2.65791e-06 0.0141551)
(1.02087e-06 -2.34558e-06 0.014114)
(1.72832e-06 -1.211e-06 0.0140745)
(2.32883e-06 -1.69515e-06 0.0140596)
(2.35265e-06 -1.98115e-06 0.0140323)
(1.63126e-06 -1.86155e-06 0.0140011)
(-6.84743e-07 -3.66519e-06 0.0143605)
(-5.14681e-07 -3.07552e-06 0.0143468)
(-3.35013e-07 -2.37305e-06 0.0143177)
(3.75573e-07 -2.18579e-06 0.0142699)
(-2.13936e-07 -2.94511e-06 0.0142967)
(5.90343e-08 -2.64348e-06 0.0142804)
(2.12849e-07 -2.27489e-06 0.014248)
(4.34706e-07 -2.14305e-06 0.0142019)
(2.1999e-07 -1.91564e-06 0.014202)
(5.83201e-07 -1.848e-06 0.0141853)
(7.12496e-07 -1.71166e-06 0.0141538)
(6.02935e-07 -1.60838e-06 0.0141131)
(8.21449e-07 -7.51003e-07 0.0140717)
(1.24783e-06 -1.02858e-06 0.0140574)
(1.33184e-06 -1.22735e-06 0.014031)
(1.02444e-06 -1.23221e-06 0.0140004)
(-5.55806e-07 -2.37771e-06 0.0143596)
(-4.24796e-07 -2.01152e-06 0.014346)
(-2.83712e-07 -1.58686e-06 0.0143169)
(2.48674e-07 -1.51609e-06 0.0142692)
(-2.69943e-07 -1.87188e-06 0.0142954)
(-7.4177e-08 -1.69788e-06 0.0142793)
(5.43483e-08 -1.50087e-06 0.0142471)
(2.69283e-07 -1.47386e-06 0.0142012)
(-3.4778e-09 -1.19528e-06 0.0142004)
(2.50902e-07 -1.15493e-06 0.014184)
(3.69007e-07 -1.10041e-06 0.0141528)
(3.75066e-07 -1.08488e-06 0.0141123)
(3.92195e-07 -4.62147e-07 0.01407)
(6.83739e-07 -6.28728e-07 0.014056)
(7.7526e-07 -7.67436e-07 0.0140301)
(6.57484e-07 -8.13926e-07 0.0139998)
(-3.5663e-07 -1.48307e-06 0.014359)
(-2.64818e-07 -1.26499e-06 0.0143454)
(-1.72882e-07 -1.01502e-06 0.0143164)
(1.88814e-07 -9.97796e-07 0.0142687)
(-1.89197e-07 -1.14685e-06 0.0142946)
(-5.88402e-08 -1.05316e-06 0.0142785)
(2.87953e-08 -9.51127e-07 0.0142465)
(1.91959e-07 -9.60844e-07 0.0142006)
(-3.18185e-08 -7.21219e-07 0.0141994)
(1.34772e-07 -7.02758e-07 0.0141831)
(2.19232e-07 -6.87217e-07 0.0141521)
(2.5379e-07 -7.01876e-07 0.0141118)
(2.1659e-07 -2.7808e-07 0.014069)
(4.02755e-07 -3.80927e-07 0.0140551)
(4.70877e-07 -4.75958e-07 0.0140294)
(4.29129e-07 -5.26714e-07 0.0139993)
(-9.19205e-08 -8.1536e-07 0.0143587)
(-4.22585e-08 -7.0487e-07 0.0143451)
(-1.65631e-10 -5.77805e-07 0.0143161)
(1.96337e-07 -5.82787e-07 0.0142684)
(-8.56865e-09 -6.24379e-07 0.0142941)
(6.17068e-08 -5.87537e-07 0.0142781)
(1.01919e-07 -5.45771e-07 0.0142462)
(1.8766e-07 -5.63975e-07 0.0142003)
(7.14882e-08 -3.908e-07 0.0141988)
(1.60796e-07 -3.94981e-07 0.0141826)
(1.99412e-07 -4.01571e-07 0.0141517)
(2.13307e-07 -4.21904e-07 0.0141114)
(2.05822e-07 -1.5609e-07 0.0140684)
(3.03505e-07 -2.27368e-07 0.0140546)
(3.30779e-07 -2.93284e-07 0.014029)
(3.00361e-07 -3.33147e-07 0.013999)
(2.99004e-07 -2.64375e-07 0.0143586)
(2.95423e-07 -2.46796e-07 0.014345)
(2.72787e-07 -2.2185e-07 0.014316)
(2.93713e-07 -2.40933e-07 0.0142684)
(3.14108e-07 -2.1172e-07 0.0142939)
(3.15086e-07 -2.26318e-07 0.014278)
(2.87874e-07 -2.33513e-07 0.0142461)
(2.67722e-07 -2.53309e-07 0.0142002)
(3.2913e-07 -1.44332e-07 0.0141986)
(3.33884e-07 -1.82864e-07 0.0141824)
(3.00986e-07 -2.11139e-07 0.0141516)
(2.51793e-07 -2.29906e-07 0.0141114)
(3.6257e-07 -7.5635e-08 0.0140682)
(3.6763e-07 -1.45451e-07 0.0140545)
(3.26725e-07 -1.98117e-07 0.0140289)
(2.58318e-07 -2.22431e-07 0.013999)
(0.00716607 0.000350587 0.0262203)
(0.00880544 -0.00028624 0.0316349)
(0.00325547 -0.000951085 0.0120784)
(0.00163038 -0.00201527 0.0168294)
(0.00417846 -0.00274215 0.021022)
(0.00443092 -0.00155696 0.0215413)
(0.00136972 -0.00154378 0.0130476)
(0.000961809 -0.00182446 0.0169161)
(-0.000643603 -0.000321535 0.00279076)
(0.00248487 0.000110897 0.0205052)
(0.00281166 0.00121682 0.0214324)
(0.0016155 0.00137563 0.0237973)
(-0.00480212 0.00673517 0.0377803)
(0.000811077 0.00096893 0.0123156)
(0.00294249 0.00559433 0.0239848)
(-5.9466e-05 0.00287656 0.0201856)
(-0.000958289 -0.00177671 0.0199917)
(0.00414295 -0.0011784 0.0159764)
(0.0153582 -0.000829316 0.0534992)
(0.00364447 -0.00811868 0.0466027)
(0.00196773 0.00081266 0.0108768)
(0.00300161 0.00300875 0.0281192)
(0.00426448 -0.00313321 0.039436)
(0.00163505 -0.00418595 0.0306485)
(0.00302567 0.000360199 0.0286549)
(-0.000150431 -0.000787376 0.016623)
(0.000499241 -0.00109218 0.00883779)