/*--------------------------------*- C++ -*----------------------------------*\
| =========                 |                                                 |
| \\      /  F ield         | OpenFOAM: The Open Source CFD Toolbox           |
|  \\    /   O peration     | Version:  2506                                  |
|   \\  /    A nd           | Website:  www.openfoam.com                      |
|    \\/     M anipulation  |                                                 |
\*---------------------------------------------------------------------------*/
FoamFile
{
    version     2.0;
    format      ascii;
    arch        "LSB;label=32;scalar=64";
    class       volVectorField;
    location    "0.07";
    object      Us;
}
// * * * * * * * * * * * * * * * * * * * * * * * * * * * * * * * * * * * * * //

dimensions      [0 1 -1 0 0 0 0];

internalField   nonuniform List<vector> 
1152
(
(-1.23708e-05 0.000475298 -0.000344076)
(-0.000313635 -6.30539e-05 -9.3597e-05)
(-0.000587667 -0.000995401 8.03283e-06)
(-9.0784e-06 -0.000140458 -0.000322467)
(-0.000757527 -0.000157653 -0.000213787)
(-0.000427958 -0.000480272 -1.4517e-05)
(-0.000777394 -0.000324551 -0.000187563)
(-0.000651753 -0.000574927 -0.000220255)
(0.000361805 -0.000304644 -3.31307e-05)
(0.000133356 -0.000587224 -0.000155074)
(-0.000351229 9.29597e-05 -0.000132737)
(-0.000283331 -0.000387469 -5.5861e-05)
(0.000215413 -0.000332224 -0.000221074)
(9.6707e-05 -0.000284314 -7.12319e-05)
(-0.000545184 -9.31087e-05 -0.000508986)
(-0.000437703 8.7075e-05 -0.000800961)
(-0.00148743 -0.000113649 0.00236555)
(-0.000469394 -0.000832953 0.0016153)
(0.000759679 -0.00025935 0.00273435)
(-5.21127e-05 0.000484351 0.00337725)
(-0.000702592 -0.000347051 0.00303593)
(-0.000132339 -0.000750409 0.00214327)
(0.00010844 -0.00020414 0.001102)
(0.000402167 -0.000227989 0.00243942)
(0.000261393 -0.000846446 0.00127757)
(0.000604302 -0.000227128 0.00331718)
(3.46418e-05 -0.000300171 0.00164145)
(0.000671433 -0.000211076 0.00135742)
(0.000993103 -0.00159353 0.00245978)
(-5.27475e-06 -2.28825e-06 0.00289036)
(0.000609585 0.000384004 0.00370579)
(0.00032571 0.000393998 0.000725304)
(8.87135e-05 -0.000182516 0.00442037)
(-7.1732e-05 -0.000716139 0.00318224)
(-0.000578758 0.000212503 0.00316348)
(0.000547744 0.000339964 0.00436906)
(0.000558706 -0.00117209 0.00394928)
(0.000491791 -0.000234565 0.00392154)
(0.000294421 0.000520663 0.00365985)
(0.000734902 -0.000501036 0.00461872)
(-0.000521006 -0.000625602 0.00350812)
(0.00036169 5.54235e-05 0.00328529)
(0.000930499 3.63894e-05 0.00310695)
(0.000385403 0.000230447 0.00332562)
(-0.000468604 -0.000562503 0.00393338)
(-0.000244471 -0.000299024 0.00312522)
(0.000542145 0.000253572 0.00272624)
(0.000834189 -0.000147213 0.00313912)
(0.00010607 -0.000399344 0.00359236)
(-0.000261678 -0.000263543 0.00312805)
(-0.000122071 -4.59505e-05 0.00271294)
(-7.56657e-05 0.000234825 0.00341301)
(0.000255788 -0.000902604 0.00326814)
(-0.000130868 -0.000555391 0.00305335)
(3.79595e-05 -0.000378392 0.00292078)
(-0.000139679 0.000299919 0.00303686)
(-0.000420134 -0.000653183 0.00284486)
(0.000220813 -0.000456809 0.0023886)
(0.000945004 -0.000707845 0.0035491)
(0.000256413 -0.000360759 0.00248642)
(0.000157378 -0.000632374 0.00266007)
(0.00020172 -0.000380973 0.00261985)
(0.000254595 -0.00027691 0.00249756)
(0.000516996 -0.000474351 0.0024733)
(8.25066e-05 -0.000470389 0.0028592)
(-6.38749e-05 -0.000467832 0.00301073)
(0.000131964 -0.000294733 0.00292021)
(0.000263757 0.000274423 0.00283528)
(0.000187956 -0.000507492 0.00277264)
(6.33948e-05 -0.000395071 0.00281849)
(-5.0599e-05 0.000172159 0.00263667)
(-0.000111124 0.000141978 0.00269954)
(8.78582e-05 -0.000269434 0.00250954)
(0.000137199 -0.000101491 0.00253224)
(8.98899e-05 -9.80202e-05 0.00242552)
(0.000191541 -1.85821e-05 0.00260991)
(0.000138524 -0.000184146 0.00225579)
(0.000242008 0.000113728 0.00234827)
(0.000226699 7.72629e-05 0.00246925)
(0.000282522 -0.000130144 0.00240266)
(-4.05025e-05 2.84281e-05 0.00254224)
(-0.00027896 2.10937e-05 0.00252213)
(0.000117337 -0.000385245 0.00263868)
(-3.75339e-05 5.04405e-05 0.0022592)
(0.000226807 0.000310919 0.0027134)
(-0.000173864 0.000297606 0.00240144)
(-0.000110967 0.000219945 0.00237006)
(6.82374e-05 0.00031424 0.00210233)
(0.000177138 0.000503364 0.00240839)
(0.000284793 0.000417756 0.00238506)
(0.000142002 0.000401867 0.00245285)
(0.000114396 0.000345706 0.00236156)
(0.000346621 0.000429704 0.00237636)
(0.000154645 0.000466577 0.00229167)
(9.79674e-05 8.27189e-05 0.00243413)
(7.59746e-05 0.00025448 0.0023049)
(0.000553965 0.000614706 0.00230887)
(0.00261077 -0.000254068 0.00163587)
(0.00010997 0.000362522 0.00218558)
(-8.30055e-05 0.000104524 0.00232762)
(9.76642e-05 0.00088826 0.00227043)
(5.3725e-05 0.000735595 0.00237521)
(0.00022839 0.000254234 0.00219948)
(-1.86182e-06 -7.70111e-06 0.00185975)
(0.000285624 0.000647909 0.00265873)
(0.000743159 0.00060276 0.00255292)
(0.000321619 0.000324026 0.00252737)
(0.000420587 0.000488151 0.00235586)
(0.000173618 0.000438527 0.00247358)
(0.000419061 0.000312772 0.00240171)
(-0.000110272 0.000512318 0.00233946)
(0.000341408 0.00048851 0.00221777)
(0 0 0)
(0 0 0)
(0 0 0)
(0 0 0)
(0 0 0)
(0 0 0)
(0 0 0)
(0 0 0)
(0 0 0)
(0 0 0)
(0 0 0)
(0 0 0)
(0 0 0)
(0 0 0)
(0 0 0)
(0 0 0)
(0 0 0)
(0 0 0)
(0 0 0)
(0 0 0)
(0 0 0)
(0 0 0)
(0 0 0)
(0 0 0)
(0 0 0)
(0 0 0)
(0 0 0)
(0 0 0)
(0 0 0)
(0 0 0)
(0 0 0)
(0 0 0)
(0 0 0)
(0 0 0)
(0 0 0)
(0 0 0)
(0 0 0)
(0 0 0)
(0 0 0)
(0 0 0)
(0 0 0)
(0 0 0)
(0 0 0)
(0 0 0)
(0 0 0)
(0 0 0)
(0 0 0)
(0 0 0)
(0 0 0)
(0 0 0)
(0 0 0)
(0 0 0)
(0 0 0)
(0 0 0)
(0 0 0)
(0 0 0)
(0 0 0)
(0 0 0)
(0 0 0)
(0 0 0)
(0 0 0)
(0 0 0)
(0 0 0)
(0 0 0)
(0 0 0)
(0 0 0)
(0 0 0)
(0 0 0)
(0 0 0)
(0 0 0)
(0 0 0)
(0 0 0)
(0 0 0)
(0 0 0)
(0 0 0)
(0 0 0)
(0 0 0)
(0 0 0)
(0 0 0)
(0 0 0)
(0 0 0)
(0 0 0)
(0 0 0)
(0 0 0)
(0 0 0)
(0 0 0)
(0 0 0)
(0 0 0)
(0 0 0)
(0 0 0)
(0 0 0)
(0 0 0)
(0 0 0)
(0 0 0)
(0 0 0)
(0 0 0)
(0 0 0)
(0 0 0)
(0 0 0)
(0 0 0)
(0 0 0)
(0 0 0)
(0 0 0)
(0 0 0)
(0 0 0)
(0 0 0)
(0 0 0)
(0 0 0)
(0 0 0)
(0 0 0)
(0 0 0)
(0 0 0)
(0 0 0)
(0 0 0)
(0 0 0)
(0 0 0)
(0 0 0)
(0 0 0)
(0 0 0)
(0 0 0)
(0 0 0)
(0 0 0)
(0 0 0)
(0 0 0)
(0 0 0)
(0 0 0)
(0 0 0)
(0 0 0)
(0 0 0)
(0 0 0)
(0 0 0)
(0 0 0)
(0 0 0)
(0 0 0)
(0 0 0)
(0 0 0)
(0 0 0)
(0 0 0)
(0 0 0)
(0 0 0)
(0 0 0)
(0 0 0)
(0 0 0)
(0 0 0)
(0 0 0)
(0 0 0)
(0 0 0)
(0 0 0)
(0 0 0)
(0 0 0)
(0 0 0)
(0 0 0)
(0 0 0)
(0 0 0)
(0 0 0)
(0 0 0)
(0 0 0)
(0 0 0)
(0 0 0)
(0 0 0)
(0 0 0)
(0 0 0)
(0 0 0)
(0 0 0)
(0 0 0)
(0 0 0)
(0 0 0)
(0 0 0)
(0 0 0)
(0 0 0)
(0 0 0)
(0 0 0)
(0 0 0)
(0 0 0)
(0 0 0)
(0 0 0)
(0 0 0)
(0 0 0)
(0 0 0)
(0 0 0)
(0 0 0)
(0 0 0)
(0 0 0)
(0 0 0)
(0 0 0)
(0 0 0)
(0 0 0)
(0 0 0)
(0 0 0)
(0 0 0)
(0 0 0)
(0 0 0)
(0 0 0)
(0 0 0)
(0 0 0)
(0 0 0)
(0 0 0)
(0 0 0)
(0 0 0)
(0 0 0)
(0 0 0)
(0 0 0)
(0 0 0)
(0 0 0)
(0 0 0)
(0 0 0)
(0 0 0)
(0 0 0)
(0 0 0)
(0 0 0)
(0 0 0)
(0 0 0)
(0 0 0)
(0 0 0)
(0 0 0)
(0 0 0)
(0 0 0)
(0 0 0)
(0 0 0)
(0 0 0)
(0 0 0)
(0 0 0)
(0 0 0)
(0 0 0)
(0 0 0)
(0 0 0)
(0 0 0)
(0 0 0)
(0 0 0)
(0 0 0)
(0 0 0)
(0 0 0)
(0 0 0)
(0 0 0)
(0 0 0)
(0 0 0)
(0 0 0)
(0 0 0)
(0 0 0)
(0 0 0)
(0 0 0)
(0 0 0)
(0 0 0)
(0 0 0)
(0 0 0)
(0 0 0)
(0 0 0)
(0 0 0)
(0 0 0)
(0 0 0)
(0 0 0)
(0 0 0)
(0 0 0)
(0 0 0)
(0 0 0)
(0 0 0)
(0 0 0)
(0 0 0)
(0 0 0)
(0 0 0)
(0 0 0)
(0 0 0)
(0 0 0)
(0 0 0)
(0 0 0)
(0 0 0)
(0 0 0)
(0 0 0)
(0 0 0)
(0 0 0)
(0 0 0)
(0 0 0)
(0.000259258 0.000106869 -0.000467018)
(0.000479541 0.000333589 -0.000836105)
(0.000647975 5.36104e-05 -0.00151152)
(0.000351944 -0.000128264 -0.00130141)
(-1.96401e-05 0.000352713 -5.96509e-05)
(0.000215392 0.000570473 -0.00038912)
(0.00105538 -5.43768e-05 -0.0012095)
(0.000689837 0.000258491 -0.000519883)
(0.000377004 0.000247839 -0.000450535)
(5.41657e-05 0.000297857 -0.000124974)
(0.000993343 0.000131912 -0.00117229)
(-3.54719e-05 0.000406459 -0.000194973)
(2.94599e-06 0.000214378 -0.000727443)
(0.000236991 3.47246e-05 5.65616e-05)
(0.000756082 -4.22568e-05 -0.000544533)
(0.00034643 -9.3232e-06 -5.05862e-05)
(0.000369113 -0.000881844 0.0010078)
(0.000210767 0.000408739 0.000555097)
(0.000633601 0.000526614 0.0016209)
(0.000666358 0.00070627 0.0020262)
(0.000435502 0.00027163 0.00259452)
(0.000531538 0.000503466 0.00139747)
(0.000610137 0.000786858 0.000561924)
(0.000656254 0.000403779 0.00161629)
(0.00128302 0.000266353 0.00347368)
(0.00125724 0.000512864 0.0034797)
(0.000690004 0.000832541 0.00216723)
(-0.000261325 0.000456152 0.00295354)
(0.00220552 0.000782989 0.00460782)
(0.000210681 0.000516111 0.00448178)
(0.000476529 0.000191251 0.00149573)
(0.000441182 0.000197927 0.00300824)
(0.000493029 -0.000759653 0.00218686)
(-0.000122449 -0.000994129 0.00225417)
(0.000300857 0.000584669 0.003007)
(0.000869287 -0.000540564 0.00269913)
(0.000203533 -0.000801469 0.00423806)
(-0.00018768 -0.000697043 0.00268143)
(-0.000743871 -0.000509438 0.00245767)
(0.00065655 -0.000660454 0.00342215)
(-0.00217686 -0.00160115 0.00452298)
(-0.00124456 -0.000976631 0.00517972)
(-0.000102487 -0.00125245 0.0030904)
(0.000442344 -0.000806874 0.00373654)
(-0.00100206 -0.00114152 0.00442629)
(-0.000946272 -0.000164222 0.00521101)
(0.000852077 -0.000878859 0.00618973)
(0.00046755 -0.00066794 0.00231581)
(-0.000461763 0.000535223 0.00439682)
(5.3304e-05 -0.000243311 0.00280925)
(0.000230512 -0.00020251 0.00291807)
(0.000237399 -0.00114472 0.00210795)
(0.000182003 -0.00083194 0.00220422)
(0.00036772 -0.000613474 0.00237567)
(0.000289831 -0.000640071 0.0024491)
(0.000189034 -0.000839346 0.00258929)
(2.53746e-05 -0.000287302 0.00131053)
(-0.000143115 -0.000570295 0.00295737)
(0.000273556 -0.000904708 0.00196001)
(0.000154864 -0.000900887 0.00306069)
(-0.0003892 -0.00053444 0.00299411)
(-0.0007922 0.000122112 0.00316001)
(0.00023785 -0.000863496 0.00197384)
(0.000539974 -0.000920884 0.00403983)
(0.000158991 -4.26867e-06 0.00316373)
(-3.01391e-05 0.000249921 0.00253429)
(-0.000223873 -5.56188e-05 0.00326985)
(7.82333e-06 -0.000455608 0.00192069)
(0.000499703 7.73193e-05 0.00214378)
(-8.56904e-05 9.00158e-05 0.00178908)
(-0.000185218 -0.000177594 0.00269378)
(0.000183592 -0.000469937 0.00192625)
(-0.000387129 -0.000396268 0.00145744)
(0.000378988 -0.000203177 0.00169044)
(0.000223595 -0.0010766 0.00268446)
(0.000517675 -0.000635294 0.00190382)
(-0.000229535 -0.000218902 0.00113963)
(-0.000233295 0.000253503 0.00211852)
(-2.69029e-05 -0.000109083 0.00132246)
(0.000229238 -0.000463954 0.00137491)
(-0.000135422 0.00057354 0.00267407)
(-0.000142115 0.000564129 0.00224535)
(6.29232e-06 0.00021942 0.00222779)
(-5.15911e-05 0.000170619 0.00210044)
(-0.000177065 0.000338977 0.00186768)
(-0.000232637 0.00035603 0.00185407)
(7.87237e-05 4.0688e-05 0.00213675)
(-1.46798e-05 -0.000154968 0.00166347)
(-0.000243447 0.000291056 0.0016265)
(-9.79522e-05 0.00031319 0.00178613)
(0.000246519 -7.1432e-06 0.00170172)
(-6.21875e-05 1.50024e-05 0.00142433)
(-5.7153e-05 -5.69771e-05 0.000633329)
(0.000185525 -0.000154551 0.00136248)
(9.60921e-05 4.22023e-05 0.00108518)
(-0.000114007 6.50837e-05 0.000788236)
(0.000106974 0.000393726 0.00241613)
(9.76151e-05 0.000427001 0.00209467)
(-6.86683e-05 0.00039697 0.00237047)
(0.000264912 0.000479011 0.00193752)
(1.21038e-05 0.000571547 0.00211433)
(0.000114019 0.000366029 0.00211229)
(0.000140566 0.000498985 0.00211918)
(0.000580803 0.000298024 0.00143514)
(-0.000217602 0.000564437 0.00191411)
(2.09827e-05 0.000396818 0.00183945)
(0.000425765 -2.45065e-05 0.00167461)
(0.000298631 0.000286527 0.00105634)
(0.000541995 0.000348357 0.000760949)
(3.02069e-05 0.000296503 0.00128571)
(-0.000154288 1.94629e-05 0.00121038)
(0.000186 0.000317248 0.000677928)
(0 0 0)
(0 0 0)
(0 0 0)
(0 0 0)
(0 0 0)
(0 0 0)
(0 0 0)
(0 0 0)
(0 0 0)
(0 0 0)
(0 0 0)
(0 0 0)
(0 0 0)
(0 0 0)
(0 0 0)
(0 0 0)
(0 0 0)
(0 0 0)
(0 0 0)
(0 0 0)
(0 0 0)
(0 0 0)
(0 0 0)
(0 0 0)
(0 0 0)
(0 0 0)
(0 0 0)
(0 0 0)
(0 0 0)
(0 0 0)
(0 0 0)
(0 0 0)
(0 0 0)
(0 0 0)
(0 0 0)
(0 0 0)
(0 0 0)
(0 0 0)
(0 0 0)
(0 0 0)
(0 0 0)
(0 0 0)
(0 0 0)
(0 0 0)
(0 0 0)
(0 0 0)
(0 0 0)
(0 0 0)
(0 0 0)
(0 0 0)
(0 0 0)
(0 0 0)
(0 0 0)
(0 0 0)
(0 0 0)
(0 0 0)
(0 0 0)
(0 0 0)
(0 0 0)
(0 0 0)
(0 0 0)
(0 0 0)
(0 0 0)
(0 0 0)
(0 0 0)
(0 0 0)
(0 0 0)
(0 0 0)
(0 0 0)
(0 0 0)
(0 0 0)
(0 0 0)
(0 0 0)
(0 0 0)
(0 0 0)
(0 0 0)
(0 0 0)
(0 0 0)
(0 0 0)
(0 0 0)
(0 0 0)
(0 0 0)
(0 0 0)
(0 0 0)
(0 0 0)
(0 0 0)
(0 0 0)
(0 0 0)
(0 0 0)
(0 0 0)
(0 0 0)
(0 0 0)
(0 0 0)
(0 0 0)
(0 0 0)
(0 0 0)
(0 0 0)
(0 0 0)
(0 0 0)
(0 0 0)
(0 0 0)
(0 0 0)
(0 0 0)
(0 0 0)
(0 0 0)
(0 0 0)
(0 0 0)
(0 0 0)
(0 0 0)
(0 0 0)
(0 0 0)
(0 0 0)
(0 0 0)
(0 0 0)
(0 0 0)
(0 0 0)
(0 0 0)
(0 0 0)
(0 0 0)
(0 0 0)
(0 0 0)
(0 0 0)
(0 0 0)
(0 0 0)
(0 0 0)
(0 0 0)
(0 0 0)
(0 0 0)
(0 0 0)
(0 0 0)
(0 0 0)
(0 0 0)
(0 0 0)
(0 0 0)
(0 0 0)
(0 0 0)
(0 0 0)
(0 0 0)
(0 0 0)
(0 0 0)
(0 0 0)
(0 0 0)
(0 0 0)
(0 0 0)
(0 0 0)
(0 0 0)
(0 0 0)
(0 0 0)
(0 0 0)
(0 0 0)
(0 0 0)
(0 0 0)
(0 0 0)
(0 0 0)
(0 0 0)
(0 0 0)
(0 0 0)
(0 0 0)
(0 0 0)
(0 0 0)
(0 0 0)
(0 0 0)
(0 0 0)
(0 0 0)
(0 0 0)
(0 0 0)
(0 0 0)
(0 0 0)
(0 0 0)
(0 0 0)
(0 0 0)
(0 0 0)
(0 0 0)
(0 0 0)
(0 0 0)
(0 0 0)
(0 0 0)
(0 0 0)
(0 0 0)
(0 0 0)
(0 0 0)
(0 0 0)
(0 0 0)
(0 0 0)
(0 0 0)
(0 0 0)
(0 0 0)
(0 0 0)
(0 0 0)
(0 0 0)
(0 0 0)
(0 0 0)
(0 0 0)
(0 0 0)
(0 0 0)
(0 0 0)
(0 0 0)
(0 0 0)
(0 0 0)
(0 0 0)
(0 0 0)
(0 0 0)
(0 0 0)
(0 0 0)
(0 0 0)
(0 0 0)
(0 0 0)
(0 0 0)
(0 0 0)
(0 0 0)
(0 0 0)
(0 0 0)
(0 0 0)
(0 0 0)
(0 0 0)
(0 0 0)
(0 0 0)
(0 0 0)
(0 0 0)
(0 0 0)
(0 0 0)
(0 0 0)
(0 0 0)
(0 0 0)
(0 0 0)
(0 0 0)
(0 0 0)
(0 0 0)
(0 0 0)
(0 0 0)
(0 0 0)
(0 0 0)
(0 0 0)
(0 0 0)
(0 0 0)
(0 0 0)
(0 0 0)
(0 0 0)
(0 0 0)
(0 0 0)
(0 0 0)
(0 0 0)
(0 0 0)
(0 0 0)
(0 0 0)
(0 0 0)
(0 0 0)
(0 0 0)
(0 0 0)
(0 0 0)
(0 0 0)
(0 0 0)
(0 0 0)
(0 0 0)
(0 0 0)
(0 0 0)
(0 0 0)
(0 0 0)
(0 0 0)
(0 0 0)
(0 0 0)
(0 0 0)
(0 0 0)
(0 0 0)
(0 0 0)
(0 0 0)
(0 0 0)
(0 0 0)
(0 0 0)
(0 0 0)
(0 0 0)
(0 0 0)
(0.000439165 -0.000493739 -0.000340151)
(0.00112962 -0.000203011 -0.000165201)
(0.00121823 0.000348984 -4.12444e-05)
(0.000157521 -0.000265708 -0.000186361)
(0.00014479 -0.000808583 -0.000140902)
(0.000156126 0.000129467 -0.000610278)
(-0.000138484 -6.38079e-05 -0.00136728)
(0.000232446 7.24004e-05 -0.000602737)
(-0.000606528 -0.000622809 -0.000279201)
(-0.000718685 -0.000153911 -0.00076403)
(4.7766e-05 8.22489e-05 -0.000478402)
(2.6551e-05 0.000107191 -8.13787e-06)
(-0.000190839 -0.000193687 0.000147278)
(0.000626697 -0.000762389 0.000137265)
(0.000504671 -1.41284e-05 4.17679e-05)
(-4.91905e-05 0.000294683 -0.00014114)
(0.000401974 -0.000792246 0.0014496)
(0.00145636 -0.000349237 0.00105219)
(0.00208957 0.000672711 0.00286386)
(0.0004574 -0.000886556 0.00302796)
(0.00152585 -0.000136699 0.000928476)
(0.00130133 0.000302808 0.00226367)
(0.000998318 0.000251683 0.0020232)
(0.00103068 -0.000948881 0.00249698)
(0.000743371 -0.000286704 0.00205058)
(0.000589474 -0.000489588 0.00091041)
(0.000655976 -0.000577826 0.000341396)
(0.000660577 -0.00075895 0.00179054)
(-0.000394619 3.13131e-05 0.00146534)
(-7.60419e-05 -0.000337385 0.000468098)
(-1.44348e-05 -1.49452e-05 0.00137632)
(0.000582695 -0.000206794 0.00204566)
(0.000705554 -0.000408037 0.00238742)
(0.00020313 -8.65866e-05 0.00289602)
(-0.000308585 0.000357679 0.00332589)
(-0.000554193 -0.00127349 0.00320408)
(0.000908003 -0.00033125 0.00266935)
(0.000899837 -0.000475772 0.00311924)
(0.000251768 -0.000538561 0.00360411)
(0.000495351 -0.000927643 0.00323434)
(0.000194385 -0.000749457 0.00269262)
(0.000957274 1.96168e-05 0.00350552)
(0.000205522 -0.000652405 0.00369784)
(0.000260468 -0.000713334 0.00182391)
(0.00119606 -0.000510082 0.00290116)
(0.000744674 -0.000455189 0.00246212)
(0.000343474 -0.000614154 0.00310956)
(0.000607223 -0.00112131 0.00416927)
(-0.000165 -0.000288446 0.00401653)
(-0.000487129 -5.95797e-05 0.00295282)
(-0.000114862 5.33707e-05 0.00329335)
(-5.55921e-05 -0.000145056 0.00248189)
(-0.000294663 -0.000673704 0.00305728)
(-0.000146725 -0.000615247 0.00462707)
(-0.000411754 -6.61225e-05 0.00267751)
(-3.75948e-05 0.000368554 0.00218077)
(-0.000444353 -0.000883529 0.00297521)
(-0.000236385 -0.000627019 0.00309235)
(6.07528e-05 -0.000421315 0.00248625)
(0.000373315 -0.000351918 0.00109954)
(0.000436048 -0.000871721 0.0022501)
(0.000430721 -0.000840772 0.00266064)
(0.000737981 -0.000976862 0.00289913)
(0.000208907 -0.00044561 0.00235854)
(-0.000101167 7.28604e-05 0.00287037)
(-5.46419e-05 -0.00010526 0.00262708)
(5.28767e-05 -7.6462e-05 0.00282784)
(0.000108018 6.55123e-05 0.00229816)
(-0.000269726 -0.000242391 0.0024731)
(-0.000426545 -0.000740152 0.00294386)
(9.36338e-06 -0.000586866 0.00207062)
(-0.000181012 0.00021764 0.0013172)
(-0.000143846 -0.000249206 0.00237652)
(2.81451e-05 -0.000435614 0.00227005)
(6.65946e-05 -0.000765028 0.00249352)
(0.000324273 -4.31278e-05 0.00245256)
(0.000132301 -0.000278199 0.00240327)
(3.45588e-05 -0.000278709 0.00228904)
(0.000341374 -0.0006055 0.00265509)
(9.96571e-06 -0.000226792 0.00156793)
(6.83e-05 0.000415087 0.00263405)
(-0.000125424 0.000138779 0.0026706)
(3.3941e-05 -0.000246132 0.00233546)
(5.37683e-05 -2.10531e-05 0.0012598)
(0.000134109 0.000262036 0.00246128)
(0.000357865 -1.53166e-05 0.00223085)
(0.000276004 -0.0002156 0.00150068)
(-3.56834e-05 9.7879e-06 0.000883703)
(0.000148632 0.000121716 0.00220912)
(0.000230828 -0.000392477 0.00190258)
(-0.000155252 -0.000358214 0.00125884)
(-0.000138094 -0.000265092 0.000919431)
(0.000185054 0.000191216 0.00211989)
(0.00011608 -0.00010202 0.00174132)
(-5.11326e-05 6.93123e-05 0.0015273)
(-9.85773e-05 5.99981e-05 0.00110451)
(0.000301992 0.000269016 0.00220236)
(0.000385135 0.000242736 0.00241019)
(-4.07552e-05 0.000275225 0.00198409)
(-0.00010847 0.000371813 0.00132117)
(-2.68906e-05 0.000350721 0.00238892)
(0.000234533 0.000144029 0.00207383)
(0.0010561 -0.000309234 0.0016875)
(0.000228687 -0.000408831 0.000815843)
(0.000163768 0.000483629 0.00220335)
(0.000411942 8.2452e-05 0.00134308)
(0.000435986 4.04135e-05 0.00116738)
(0.00017521 -0.000663053 0.000722629)
(0.000157102 0.000527585 0.00205731)
(0.000164191 8.87306e-05 0.00162255)
(1.58258e-06 4.13149e-05 0.000970641)
(-5.59054e-05 7.00169e-05 0.000481797)
(0 0 0)
(0 0 0)
(0 0 0)
(0 0 0)
(0 0 0)
(0 0 0)
(0 0 0)
(0 0 0)
(0 0 0)
(0 0 0)
(0 0 0)
(0 0 0)
(0 0 0)
(0 0 0)
(0 0 0)
(0 0 0)
(0 0 0)
(0 0 0)
(0 0 0)
(0 0 0)
(0 0 0)
(0 0 0)
(0 0 0)
(0 0 0)
(0 0 0)
(0 0 0)
(0 0 0)
(0 0 0)
(0 0 0)
(0 0 0)
(0 0 0)
(0 0 0)
(0 0 0)
(0 0 0)
(0 0 0)
(0 0 0)
(0 0 0)
(0 0 0)
(0 0 0)
(0 0 0)
(0 0 0)
(0 0 0)
(0 0 0)
(0 0 0)
(0 0 0)
(0 0 0)
(0 0 0)
(0 0 0)
(0 0 0)
(0 0 0)
(0 0 0)
(0 0 0)
(0 0 0)
(0 0 0)
(0 0 0)
(0 0 0)
(0 0 0)
(0 0 0)
(0 0 0)
(0 0 0)
(0 0 0)
(0 0 0)
(0 0 0)
(0 0 0)
(0 0 0)
(0 0 0)
(0 0 0)
(0 0 0)
(0 0 0)
(0 0 0)
(0 0 0)
(0 0 0)
(0 0 0)
(0 0 0)
(0 0 0)
(0 0 0)
(0 0 0)
(0 0 0)
(0 0 0)
(0 0 0)
(0 0 0)
(0 0 0)
(0 0 0)
(0 0 0)
(0 0 0)
(0 0 0)
(0 0 0)
(0 0 0)
(0 0 0)
(0 0 0)
(0 0 0)
(0 0 0)
(0 0 0)
(0 0 0)
(0 0 0)
(0 0 0)
(0 0 0)
(0 0 0)
(0 0 0)
(0 0 0)
(0 0 0)
(0 0 0)
(0 0 0)
(0 0 0)
(0 0 0)
(0 0 0)
(0 0 0)
(0 0 0)
(0 0 0)
(0 0 0)
(0 0 0)
(0 0 0)
(0 0 0)
(0 0 0)
(0 0 0)
(0 0 0)
(0 0 0)
(0 0 0)
(0 0 0)
(0 0 0)
(0 0 0)
(0 0 0)
(0 0 0)
(0 0 0)
(0 0 0)
(0 0 0)
(0 0 0)
(0 0 0)
(0 0 0)
(0 0 0)
(0 0 0)
(0 0 0)
(0 0 0)
(0 0 0)
(0 0 0)
(0 0 0)
(0 0 0)
(0 0 0)
(0 0 0)
(0 0 0)
(0 0 0)
(0 0 0)
(0 0 0)
(0 0 0)
(0 0 0)
(0 0 0)
(0 0 0)
(0 0 0)
(0 0 0)
(0 0 0)
(0 0 0)
(0 0 0)
(0 0 0)
(0 0 0)
(0 0 0)
(0 0 0)
(0 0 0)
(0 0 0)
(0 0 0)
(0 0 0)
(0 0 0)
(0 0 0)
(0 0 0)
(0 0 0)
(0 0 0)
(0 0 0)
(0 0 0)
(0 0 0)
(0 0 0)
(0 0 0)
(0 0 0)
(0 0 0)
(0 0 0)
(0 0 0)
(0 0 0)
(0 0 0)
(0 0 0)
(0 0 0)
(0 0 0)
(0 0 0)
(0 0 0)
(0 0 0)
(0 0 0)
(0 0 0)
(0 0 0)
(0 0 0)
(0 0 0)
(0 0 0)
(0 0 0)
(0 0 0)
(0 0 0)
(0 0 0)
(0 0 0)
(0 0 0)
(0 0 0)
(0 0 0)
(0 0 0)
(0 0 0)
(0 0 0)
(0 0 0)
(0 0 0)
(0 0 0)
(0 0 0)
(0 0 0)
(0 0 0)
(0 0 0)
(0 0 0)
(0 0 0)
(0 0 0)
(0 0 0)
(0 0 0)
(0 0 0)
(0 0 0)
(0 0 0)
(0 0 0)
(0 0 0)
(0 0 0)
(0 0 0)
(0 0 0)
(0 0 0)
(0 0 0)
(0 0 0)
(0 0 0)
(0 0 0)
(0 0 0)
(0 0 0)
(0 0 0)
(0 0 0)
(0 0 0)
(0 0 0)
(0 0 0)
(0 0 0)
(0 0 0)
(0 0 0)
(0 0 0)
(0 0 0)
(0 0 0)
(0 0 0)
(0 0 0)
(0 0 0)
(0 0 0)
(0 0 0)
(0 0 0)
(0 0 0)
(0 0 0)
(0 0 0)
(0 0 0)
(0 0 0)
(0 0 0)
(0 0 0)
(0 0 0)
(0 0 0)
(0 0 0)
(0 0 0)
(0 0 0)
(0 0 0)
(0 0 0)
(0 0 0)
(0 0 0)
(0 0 0)
(0 0 0)
(0 0 0)
(0 0 0)
(0 0 0)
(0 0 0)
(0 0 0)
(0 0 0)
(0 0 0)
(0 0 0)
(0 0 0)
(0 0 0)
(0 0 0)
)
;

boundaryField
{
    inlet
    {
        type            zeroGradient;
    }
    outlet
    {
        type            zeroGradient;
    }
    wall
    {
        type            zeroGradient;
    }
    procBoundary3to1
    {
        type            processor;
        value           nonuniform List<vector> 
192
(
(-0.000268363 0.000240862 -0.000487003)
(-0.000100092 0.000470786 -0.000312552)
(-0.00053991 0.000787815 -0.000294006)
(-0.000349228 -0.00013114 0.000247028)
(-0.000807056 0.00022203 0.00256156)
(-0.00129187 -1.52431e-05 0.000690382)
(-0.0011889 0.000401585 0.00141079)
(-0.000351169 0.00129831 0.0017725)
(-0.000312043 4.35494e-05 0.00430526)
(-0.000235943 2.25202e-05 0.00365896)
(-0.000516925 7.04206e-05 0.00315877)
(-0.000103633 -6.53261e-05 0.00346227)
(-0.000228039 -0.000205286 0.00373899)
(-0.000156307 0.00012106 0.00353668)
(0.000176607 0.000171802 0.00338694)
(-0.000259788 1.18159e-05 0.00307202)
(0.000120529 -0.00014252 0.00322823)
(0.000259648 0.000319053 0.00320714)
(0.000112872 0.000214945 0.00290274)
(-0.000134879 -0.000103071 0.00280911)
(0.000574656 -0.000510734 0.00337182)
(0.000242316 -0.000222007 0.00273016)
(-8.92981e-06 -0.000159668 0.00291069)
(-5.49457e-05 0.000102517 0.00267338)
(7.5196e-05 0.000131715 0.00254449)
(0.000174774 0.000262151 0.00247525)
(-0.000180879 0.00141173 0.00203899)
(-1.97578e-06 0.000231006 0.00253451)
(0.000858952 -9.42842e-05 0.00248963)
(0 0 0)
(0 0 0)
(0 0 0)
(0 0 0)
(0 0 0)
(0 0 0)
(0 0 0)
(0 0 0)
(0 0 0)
(0 0 0)
(0 0 0)
(0 0 0)
(0 0 0)
(0 0 0)
(0 0 0)
(0 0 0)
(0 0 0)
(0 0 0)
(0 0 0)
(0 0 0)
(0 0 0)
(0 0 0)
(0 0 0)
(0 0 0)
(0 0 0)
(0 0 0)
(0 0 0)
(0 0 0)
(0 0 0)
(0 0 0)
(0 0 0)
(0 0 0)
(0 0 0)
(0 0 0)
(0 0 0)
(0 0 0)
(0 0 0)
(0 0 0)
(0 0 0)
(0 0 0)
(0 0 0)
(0 0 0)
(0 0 0)
(0 0 0)
(0 0 0)
(0 0 0)
(0 0 0)
(0 0 0)
(0 0 0)
(0 0 0)
(0 0 0)
(0 0 0)
(0 0 0)
(0 0 0)
(0 0 0)
(0 0 0)
(0 0 0)
(0 0 0)
(0 0 0)
(0 0 0)
(0 0 0)
(0 0 0)
(0 0 0)
(0 0 0)
(0 0 0)
(0 0 0)
(0 0 0)
(1.95732e-05 1.09309e-05 -0.000454367)
(0.000373306 -0.000587031 -0.000626018)
(0.000127928 -0.000572346 -0.000259672)
(0.000112127 -5.41667e-05 9.54561e-05)
(0.00127386 -6.38179e-05 0.00238564)
(0.0013132 -0.000526741 0.0004643)
(0.0010168 0.000276526 0.00255734)
(7.99828e-05 0.000468586 0.00181581)
(0.00105672 -0.000160249 0.00362222)
(0.000443127 -0.000275893 0.00220224)
(-6.58717e-05 -0.000334044 0.00343233)
(0.000159582 2.76108e-05 0.00318366)
(-8.32573e-05 -0.000289669 0.00273554)
(-0.000191092 -0.000272966 0.00217102)
(0.000291856 -0.000419167 0.00273613)
(-7.6536e-05 -0.000175899 0.00282254)
(-2.20785e-05 -1.21086e-05 0.00299723)
(-0.000555106 -1.10679e-05 0.00225)
(-0.000363398 0.000103691 0.00210539)
(-0.000144908 0.000112309 0.00226201)
(-4.50107e-05 0.00023096 0.00289521)
(-9.4561e-05 -7.8694e-06 0.00261359)
(-0.000340821 1.75186e-05 0.0022275)
(-0.000173776 3.48568e-06 0.00148826)
(0.000720667 0.000481755 0.00190165)
(6.88352e-05 -1.1164e-05 0.00257969)
(-0.000635981 -0.000258374 0.0020955)
(-0.000846883 -0.00095664 0.000171473)
(0 0 0)
(0 0 0)
(0 0 0)
(0 0 0)
(0 0 0)
(0 0 0)
(0 0 0)
(0 0 0)
(0 0 0)
(0 0 0)
(0 0 0)
(0 0 0)
(0 0 0)
(0 0 0)
(0 0 0)
(0 0 0)
(0 0 0)
(0 0 0)
(0 0 0)
(0 0 0)
(0 0 0)
(0 0 0)
(0 0 0)
(0 0 0)
(0 0 0)
(0 0 0)
(0 0 0)
(0 0 0)
(0 0 0)
(0 0 0)
(0 0 0)
(0 0 0)
(0 0 0)
(0 0 0)
(0 0 0)
(0 0 0)
(0 0 0)
(0 0 0)
(0 0 0)
(0 0 0)
(0 0 0)
(0 0 0)
(0 0 0)
(0 0 0)
(0 0 0)
(0 0 0)
(0 0 0)
(0 0 0)
(0 0 0)
(0 0 0)
(0 0 0)
(0 0 0)
(0 0 0)
(0 0 0)
(0 0 0)
(0 0 0)
(0 0 0)
(0 0 0)
(0 0 0)
(0 0 0)
(0 0 0)
(0 0 0)
(0 0 0)
(0 0 0)
(0 0 0)
(0 0 0)
(0 0 0)
(0 0 0)
)
;
    }
    procBoundary3to2
    {
        type            processor;
        value           nonuniform List<vector> 
192
(
(0.000218038 0.000237819 -0.000215138)
(0.00011759 -0.000220085 -0.000199759)
(-6.48777e-06 0.000363282 -0.000258177)
(0.0006668 -0.000703416 -0.000334304)
(-0.000529388 -9.65011e-05 0.00203996)
(0.00040753 -0.00124074 0.00247343)
(0.000504569 -0.00124864 0.00251587)
(0.000788554 0.000145044 0.000730542)
(-0.000639043 -0.000871685 0.00446496)
(-0.000178491 -0.000968141 0.0041139)
(-0.000791393 -0.00117807 0.00339288)
(-1.73219e-05 -0.000174011 0.00274673)
(-0.000419446 -0.000643325 0.00411702)
(-0.00114386 -0.00156603 0.00650394)
(-0.000624099 -0.000611301 0.00289736)
(-0.000224045 -0.000371339 0.00229037)
(-3.73675e-05 -0.000540001 0.00350359)
(-5.70531e-05 -0.000437615 0.00320235)
(-0.000294121 -0.000444501 0.00287272)
(3.11704e-05 2.72795e-05 0.00245724)
(7.95823e-05 -1.19021e-05 0.00267506)
(0.000195817 8.91472e-06 0.00255953)
(5.28669e-05 4.43942e-05 0.00259212)
(0.000260538 0.000217494 0.00248838)
(0.000330291 0.000657348 0.00258105)
(2.11987e-05 0.000619513 0.00247996)
(-0.000143143 0.000461067 0.00274705)
(0.000268425 0.000601293 0.00229409)
(0 0 0)
(0 0 0)
(0 0 0)
(0 0 0)
(0 0 0)
(0 0 0)
(0 0 0)
(0 0 0)
(0 0 0)
(0 0 0)
(0 0 0)
(0 0 0)
(0 0 0)
(0 0 0)
(0 0 0)
(0 0 0)
(0 0 0)
(0 0 0)
(0 0 0)
(0 0 0)
(0 0 0)
(0 0 0)
(0 0 0)
(0 0 0)
(0 0 0)
(0 0 0)
(0 0 0)
(0 0 0)
(0 0 0)
(0 0 0)
(0 0 0)
(0 0 0)
(0 0 0)
(0 0 0)
(0 0 0)
(0 0 0)
(0 0 0)
(0 0 0)
(0 0 0)
(0 0 0)
(0 0 0)
(0 0 0)
(0 0 0)
(0 0 0)
(0 0 0)
(0 0 0)
(0 0 0)
(0 0 0)
(0 0 0)
(0 0 0)
(0 0 0)
(0 0 0)
(0 0 0)
(0 0 0)
(0 0 0)
(0 0 0)
(0 0 0)
(0 0 0)
(0 0 0)
(0 0 0)
(0 0 0)
(0 0 0)
(0 0 0)
(0 0 0)
(0 0 0)
(0 0 0)
(0 0 0)
(0 0 0)
(0.000312905 -0.000197288 -0.000343289)
(0.000371548 -0.000131809 -0.000277755)
(0.000258987 -0.000128517 -0.00173163)
(2.33615e-05 -0.000255237 -0.000262408)
(0.000532356 -0.000297556 0.000491069)
(3.75169e-05 -0.000676438 0.00196065)
(-0.000245031 -0.000811753 0.0011622)
(0.000143053 -0.000315185 0.000729425)
(0.000518281 -0.000806041 0.00203039)
(-0.000789984 -0.000482203 0.0029321)
(-0.00148437 0.000672517 0.00421776)
(7.51069e-05 0.000126122 0.00161005)
(0.0005357 -0.000447555 0.00261123)
(5.95077e-05 -0.00106263 0.00293278)
(9.01489e-05 -0.000550861 0.00194722)
(-0.00172555 -0.000431855 0.00501241)
(0.00014681 -0.000149176 0.00226047)
(0.000631794 -0.000213841 0.00206102)
(-6.68795e-05 -0.000192336 0.00183508)
(-0.000246679 -0.00019196 0.00206198)
(-0.000246303 0.000417126 0.00204677)
(4.50158e-05 4.57885e-05 0.00204143)
(2.68619e-05 5.55308e-05 0.00136064)
(-5.19263e-05 -0.000149621 0.00154849)
(0.000191631 0.000542739 0.00217841)
(-0.000153244 0.000591799 0.00219326)
(0.000448079 0.000364488 0.0011762)
(0.000446164 0.000469991 0.00100623)
(0 0 0)
(0 0 0)
(0 0 0)
(0 0 0)
(0 0 0)
(0 0 0)
(0 0 0)
(0 0 0)
(0 0 0)
(0 0 0)
(0 0 0)
(0 0 0)
(0 0 0)
(0 0 0)
(0 0 0)
(0 0 0)
(0 0 0)
(0 0 0)
(0 0 0)
(0 0 0)
(0 0 0)
(0 0 0)
(0 0 0)
(0 0 0)
(0 0 0)
(0 0 0)
(0 0 0)
(0 0 0)
(0 0 0)
(0 0 0)
(0 0 0)
(0 0 0)
(0 0 0)
(0 0 0)
(0 0 0)
(0 0 0)
(0 0 0)
(0 0 0)
(0 0 0)
(0 0 0)
(0 0 0)
(0 0 0)
(0 0 0)
(0 0 0)
(0 0 0)
(0 0 0)
(0 0 0)
(0 0 0)
(0 0 0)
(0 0 0)
(0 0 0)
(0 0 0)
(0 0 0)
(0 0 0)
(0 0 0)
(0 0 0)
(0 0 0)
(0 0 0)
(0 0 0)
(0 0 0)
(0 0 0)
(0 0 0)
(0 0 0)
(0 0 0)
(0 0 0)
(0 0 0)
(0 0 0)
(0 0 0)
)
;
    }
}


// ************************************************************************* //
