FoamFile
{version 2.0; format ascii;class Cloud<passiveParticle>; location 0;object  positions;}
2498
(
( -0.000105047 -0.0133231 0.00592101 ) 0 
( -0.0075975 -0.0109712 0.0047538 ) 0 
( -0.00223993 -0.00140629 0.00136525 ) 0 
( -0.0100658 -0.00707546 0.00575548 ) 0 
( -0.0114266 -0.00690365 0.00552441 ) 0 
( -0.0110082 -5.35209e-05 0.00323275 ) 0 
( -0.00226556 -0.00266733 0.00720721 ) 0 
( -0.00574316 -0.00366059 0.00776473 ) 0 
( -0.00196853 -0.00297407 0.00189908 ) 0 
( -0.00377621 -0.00471284 0.00579016 ) 0 
( -0.0133493 -0.000142226 0.00723385 ) 0 
( -0.00163137 -0.00415301 0.00124235 ) 0 
( -0.00904974 -0.00199876 0.00560094 ) 0 
( -0.00809606 -0.00112102 0.00721058 ) 0 
( -0.00373875 -0.0097457 0.00583484 ) 0 
( -7.91685e-06 -0.00300485 0.0024448 ) 0 
( -0.00185464 -0.00897445 0.00296758 ) 0 
( -0.0011891 -0.000751515 0.00556494 ) 0 
( -1.19079e-05 -0.0123978 0.00462923 ) 0 
( -0.00444479 -0.00537521 0.00307063 ) 0 
( -0.00778524 -0.00873054 0.00570336 ) 0 
( -0.00389503 -0.00110577 0.00049975 ) 0 
( -0.00649183 -0.0107144 0.00551901 ) 0 
( -0.000760061 -0.00458427 0.003939 ) 0 
( -0.00606146 -0.00683952 0.00450112 ) 0 
( -0.010143 -0.00321536 0.00305853 ) 0 
( -0.000234937 -0.00918128 0.00217579 ) 0 
( -0.000760494 -0.00713458 0.00210383 ) 0 
( -0.00630767 -0.00547199 0.00146778 ) 0 
( -0.000178271 -0.0111928 0.00477728 ) 0 
( -0.00392776 -0.00567215 0.00131176 ) 0 
( -0.00232106 -0.00649727 0.00540402 ) 0 
( -0.00547225 -0.00453485 0.00819002 ) 0 
( -0.00606478 -0.0088883 0.00522475 ) 0 
( -0.0103623 -0.00671825 0.0012256 ) 0 
( -0.00470034 -0.00989915 0.00606295 ) 0 
( -0.000658939 -0.0115077 0.00198781 ) 0 
( -0.00391435 -0.0127636 0.00582971 ) 0 
( -0.00587384 -0.00895744 0.00314721 ) 0 
( -0.00623281 -0.00728932 0.00208021 ) 0 
( -0.011036 -0.00546402 0.00214774 ) 0 
( -0.00163488 -0.0100904 0.00516447 ) 0 
( -0.0101994 -0.00743263 0.0032733 ) 0 
( -0.00263347 -0.000176515 0.00449207 ) 0 
( -0.00857667 -0.000898647 0.00522463 ) 0 
( -0.00474994 -0.00224831 0.00744233 ) 0 
( -0.0117324 -0.000116087 0.00414242 ) 0 
( -0.0126006 -0.000286996 0.00258095 ) 0 
( -0.0041523 -0.00466332 0.0024322 ) 0 
( -0.000610019 -0.00679582 0.00808042 ) 0 
( -0.00509478 -0.0087512 0.00547226 ) 0 
( -0.0026127 -0.0105754 0.00323178 ) 0 
( -0.00890132 -0.00943256 0.00467219 ) 0 
( -0.0113147 -0.00392086 0.00472762 ) 0 
( -0.00419936 -0.0117822 0.00445411 ) 0 
( -0.00259686 -0.0130946 0.00728924 ) 0 
( -0.00325344 -0.0120556 0.00428103 ) 0 
( -0.0052006 -0.000714242 0.0070074 ) 0 
( -0.00728371 -0.00527252 0.00138213 ) 0 
( -0.00903213 -0.00731833 0.00049987 ) 0 
( -0.00204733 -0.00862833 0.00728926 ) 0 
( -0.0103197 -0.00174444 0.00766583 ) 0 
( -0.0084497 -0.00644734 0.00260458 ) 0 
( -0.00184156 -0.00588252 0.00726979 ) 0 
( -0.0015988 -0.00922152 0.00467155 ) 0 
( -0.00807137 -0.000729475 0.00107818 ) 0 
( -0.00441093 -0.000196399 0.00392915 ) 0 
( -0.00778309 -0.0034105 0.00135855 ) 0 
( -0.00490284 -0.00125265 0.00779511 ) 0 
( -0.00274369 -0.00554313 0.00700564 ) 0 
( -0.000413133 -0.0110136 0.00315006 ) 0 
( -0.0115624 -0.00462397 0.00201723 ) 0 
( -0.00563847 -0.0016972 0.00555806 ) 0 
( -0.0051619 -0.00100564 0.00440905 ) 0 
( -0.00335273 -0.00922936 0.00198438 ) 0 
( -0.00762456 -0.0109585 0.000499865 ) 0 
( -0.00855982 -0.00909158 0.00760412 ) 0 
( -0.00394971 -0.00127548 0.00471281 ) 0 
( -0.000887576 -0.00583792 0.0076298 ) 0 
( -0.0109577 -0.00290095 0.000499729 ) 0 
( -0.00428649 -0.0100077 0.00472979 ) 0 
( -0.0121124 -0.00263154 0.00147299 ) 0 
( -0.0037292 -0.0123396 0.00138656 ) 0 
( -0.00024152 -9.2983e-05 0.00849123 ) 0 
( -0.000770759 -0.00902523 0.00125729 ) 0 
( -0.00435134 -0.00735799 0.00657495 ) 0 
( -0.00440175 -0.000570551 0.00642405 ) 0 
( -0.00411329 -0.00989672 0.00374335 ) 0 
( -0.00351068 -0.000547022 0.00418692 ) 0 
( -0.00223503 -0.00666472 0.00251547 ) 0 
( -0.00315646 -0.0101716 0.00398476 ) 0 
( -0.00586033 -0.00130963 0.00350363 ) 0 
( -0.00439524 -0.0106611 0.00663372 ) 0 
( -0.00566794 -0.00262495 0.00769541 ) 0 
( -0.00530748 -0.00691799 0.00124724 ) 0 
( -0.00563315 -0.0108455 0.00710485 ) 0 
( -0.00922014 -0.00308776 0.000694225 ) 0 
( -0.0120213 -0.00580635 0.00691654 ) 0 
( -0.00549927 -0.00598295 0.00284792 ) 0 
( -0.00107905 -0.0075708 0.00459484 ) 0 
( -0.0116068 -0.00659215 0.0064577 ) 0 
( -0.00854622 -0.0102558 0.00633796 ) 0 
( -0.0115118 -0.00337642 0.00118278 ) 0 
( -0.00720776 -0.00233078 0.00757122 ) 0 
( -0.0024436 -0.00356988 0.00125168 ) 0 
( -0.0068748 -0.0083707 0.00549937 ) 0 
( -0.000109096 -0.00065465 0.00362308 ) 0 
( -0.00486201 -0.00884487 0.00293217 ) 0 
( -0.00840824 -0.00528592 0.00450335 ) 0 
( -0.00675621 -0.0012516 0.00394372 ) 0 
( -0.00850277 -0.00801933 0.00594763 ) 0 
( -0.00928552 -0.00479645 0.00448813 ) 0 
( -0.00599506 -0.0076873 0.00396633 ) 0 
( -0.00750773 -0.00724203 0.00334931 ) 0 
( -0.00456399 -0.00711035 0.00188735 ) 0 
( -0.00510945 -0.00209454 0.00480756 ) 0 
( -0.0101833 -0.00493621 0.0040709 ) 0 
( -0.00913554 -0.00592668 0.00311367 ) 0 
( -0.00661756 -0.00152567 0.00544942 ) 0 
( -0.00932526 -0.00322473 0.00694465 ) 0 
( -0.00561632 -0.0064777 0.00772363 ) 0 
( -0.00288061 -0.0112289 0.00546144 ) 0 
( -0.0119052 -0.00328384 0.00542349 ) 0 
( -0.00113771 -0.00594305 0.00119777 ) 0 
( -0.0095125 -0.00665545 0.00375965 ) 0 
( -0.00489984 -0.0124184 0.000499686 ) 0 
( -0.00682804 -0.00856537 0.00648004 ) 0 
( -0.00631202 -0.0101587 0.00157104 ) 0 
( -0.000150818 -0.00436663 0.000499762 ) 0 
( -0.00912722 -0.00846761 0.00658682 ) 0 
( -0.011897 -0.00408202 0.00290063 ) 0 
( -0.00686677 -0.000580848 0.0031877 ) 0 
( -0.000618893 -0.00607756 0.00414488 ) 0 
( -0.00744485 -0.00816828 0.00380998 ) 0 
( -0.00625993 -0.00582546 0.00591701 ) 0 
( -0.00888397 -0.00176997 0.00134534 ) 0 
( -0.00521294 -0.00741454 0.00607114 ) 0 
( -0.00177281 -5.44976e-05 0.00598053 ) 0 
( -0.000295026 -0.0133464 0.000499865 ) 0 
( -0.0124337 -0.00084724 0.000499561 ) 0 
( -0.00608297 -0.00284352 0.00457662 ) 0 
( -0.00288954 -0.0123402 0.00321906 ) 0 
( -0.00212553 -0.00459767 0.00510147 ) 0 
( -7.83948e-05 -0.00896539 0.00049969 ) 0 
( -0.00301587 -0.000911044 0.000934353 ) 0 
( -0.00538938 -0.00715905 0.0070276 ) 0 
( -0.0045446 -0.0108363 0.00300759 ) 0 
( -0.000668973 -0.00285912 0.00404974 ) 0 
( -0.00312208 -0.0101796 0.00219366 ) 0 
( -0.00601213 -0.00906574 0.000499768 ) 0 
( -0.010128 -0.00345897 0.000499829 ) 0 
( -0.010094 -0.00335158 0.00417214 ) 0 
( -0.00915019 -0.0077302 0.00263195 ) 0 
( -0.00377059 -0.00472547 0.00705366 ) 0 
( -0.00725503 -0.00402189 0.00395661 ) 0 
( -0.00788498 -0.007195 0.00427404 ) 0 
( -0.00754564 -0.00390473 0.000499823 ) 0 
( -0.005039 -0.0116219 0.00110613 ) 0 
( -0.0048002 -0.00425785 0.00407519 ) 0 
( -0.00639136 -0.00150932 0.00268017 ) 0 
( -0.00287928 -0.0121422 0.00711488 ) 0 
( -0.0092949 -0.0021098 0.000499715 ) 0 
( -0.00303495 -0.000575942 0.00818624 ) 0 
( -0.00686325 -0.0022728 0.00483191 ) 0 
( -0.00895363 -0.00742986 0.00683457 ) 0 
( -0.00710494 -0.0103411 0.00717325 ) 0 
( -0.00201887 -0.00686446 0.00720933 ) 0 
( -0.0073821 -0.00201561 0.00586826 ) 0 
( -0.00131656 -0.00285613 0.00695505 ) 0 
( -0.00693727 -0.00498434 0.00610494 ) 0 
( -0.00712359 -0.00486685 0.00343117 ) 0 
( -0.01335 -4.6762e-05 0.00534627 ) 0 
( -0.0071597 -0.00292134 0.000499873 ) 0 
( -0.0094853 -0.00207276 0.00649795 ) 0 
( -0.0131787 -0.00213221 0.00136678 ) 0 
( -7.52626e-05 -0.0103151 0.00524509 ) 0 
( -0.00085616 -0.0124633 0.00394388 ) 0 
( -0.00584708 -0.010115 0.00393237 ) 0 
( -0.00496906 -0.00128477 0.00301083 ) 0 
( -0.00947721 -0.00414665 0.00522321 ) 0 
( -9.99405e-05 -0.00493583 0.00694275 ) 0 
( -0.010181 -0.000754677 0.00764193 ) 0 
( -0.00226338 -0.00757788 0.0053356 ) 0 
( -0.00724409 -0.00779652 0.00697711 ) 0 
( -0.00407447 -0.00729423 0.00325149 ) 0 
( -0.00545254 -0.00339109 0.00153626 ) 0 
( -0.000989605 -0.00843368 0.00684638 ) 0 
( -0.00874226 -0.00919262 0.00105353 ) 0 
( -0.00167554 -0.00555163 0.00276517 ) 0 
( -0.00257264 -0.0105314 0.000499796 ) 0 
( -0.00478048 -0.00387916 0.00849111 ) 0 
( -0.00831677 -0.010179 0.00396162 ) 0 
( -0.00261388 -0.0100046 0.00135038 ) 0 
( -0.00309591 -0.00591658 0.00479914 ) 0 
( -0.00879164 -0.00607433 0.000499778 ) 0 
( -0.00106894 -0.00308219 0.00601317 ) 0 
( -0.00611487 -0.00251215 0.00192787 ) 0 
( -0.0101366 -0.000675989 0.00480869 ) 0 
( -0.0023335 -0.0095606 0.000499665 ) 0 
( -0.00745614 -0.00655908 0.00262081 ) 0 
( -0.00255 -0.00642997 0.0041372 ) 0 
( -0.00709784 -0.000344629 0.00421419 ) 0 
( -0.00941389 -0.00135678 0.00492647 ) 0 
( -0.00187295 -0.0122227 0.000499878 ) 0 
( -0.00636625 -0.0110671 0.00204814 ) 0 
( -0.012137 -0.00350901 0.00195386 ) 0 
( -0.0089528 -0.00589709 0.00604659 ) 0 
( -0.00594416 -0.00328627 0.00684582 ) 0 
( -0.00657464 -0.00323 0.0024614 ) 0 
( -0.00937884 -0.00831992 0.00049987 ) 0 
( -0.0113183 -0.00546697 0.00444722 ) 0 
( -0.00767072 -0.00100933 0.00359986 ) 0 
( -0.00261997 -0.00774086 0.0073288 ) 0 
( -0.00298289 -0.00714977 0.0046983 ) 0 
( -0.00291341 -0.01112 0.0041881 ) 0 
( -0.00110338 -0.0049199 0.000499743 ) 0 
( -0.00244441 -0.00975837 0.00468065 ) 0 
( -0.000634873 -0.000874876 0.000499836 ) 0 
( -0.000158063 -0.00803058 0.00383899 ) 0 
( -0.00560183 -0.00953488 0.00583043 ) 0 
( -0.00684628 -0.00448221 0.000920923 ) 0 
( -0.00833144 -0.00533723 0.00108964 ) 0 
( -0.00914268 -0.00555153 0.00512782 ) 0 
( -0.0122061 -0.00540737 0.000881694 ) 0 
( -0.00309425 -0.0129867 0.00395366 ) 0 
( -0.000445126 -0.00365751 0.00171334 ) 0 
( -0.00165546 -0.00401234 0.00733296 ) 0 
( -0.00138486 -0.00375236 0.00382178 ) 0 
( -0.0118571 -0.00121719 0.00656691 ) 0 
( -0.00453883 -0.00486754 0.00802164 ) 0 
( -0.00592242 -0.00540017 0.00675664 ) 0 
( -0.00165677 -0.00971509 0.0013443 ) 0 
( -0.00114357 -0.00217182 0.00473521 ) 0 
( -0.0104666 -0.00225283 0.00656422 ) 0 
( -0.00576158 -0.00425092 0.00267673 ) 0 
( -2.27267e-05 -0.00742384 0.00691521 ) 0 
( -0.00470114 -0.00340521 0.0030964 ) 0 
( -0.00458129 -0.00660033 0.00376273 ) 0 
( -0.0103882 -0.0069099 0.00220654 ) 0 
( -0.00104611 -0.0117728 0.00506868 ) 0 
( -0.00454957 -0.00729587 0.00755275 ) 0 
( -0.0100164 -0.00578592 0.00357107 ) 0 
( -0.00357019 -0.00935294 0.00438302 ) 0 
( -0.00748517 -0.00981682 0.00354079 ) 0 
( -0.00866575 -0.00857772 0.00513439 ) 0 
( -0.00900629 -0.00065041 0.00434733 ) 0 
( -0.0132936 -0.00122495 0.00421806 ) 0 
( -0.00512277 -0.0117076 0.00407793 ) 0 
( -0.00658411 -0.000620382 0.00502645 ) 0 
( -0.00409065 -0.0118311 0.00049976 ) 0 
( -0.00634718 -0.00581582 0.00756048 ) 0 
( -0.00402995 -0.00232805 0.00133863 ) 0 
( -0.00210192 -0.0103945 0.00214348 ) 0 
( -0.00472663 -0.00459057 0.00550527 ) 0 
( -0.00196142 -0.00264267 0.00845123 ) 0 
( -0.00824455 -0.00318865 0.000499773 ) 0 
( -0.00298721 -0.00663096 0.00677251 ) 0 
( -0.00270345 -0.0122745 0.00207481 ) 0 
( -0.00503649 -0.00183062 0.00384593 ) 0 
( -0.0114153 -0.00483034 0.00521249 ) 0 
( -0.00222221 -0.00562336 0.000499756 ) 0 
( -0.0109354 -0.00175569 0.0036907 ) 0 
( -0.0121627 -0.00550423 0.00785914 ) 0 
( -0.00285916 -0.011241 0.00216436 ) 0 
( -0.00478932 -0.00651266 0.00615467 ) 0 
( -0.00145489 -0.00710378 0.00296125 ) 0 
( -0.00773624 -0.00429666 0.00288408 ) 0 
( -0.00926981 -0.000968639 0.00180218 ) 0 
( -0.0108084 -0.00568796 0.00527907 ) 0 
( -0.010617 -0.00156569 0.00497862 ) 0 
( -0.00576431 -0.00748597 0.00520355 ) 0 
( -0.00311115 -0.00296766 0.00676595 ) 0 
( -0.000719599 -0.00992836 0.000831482 ) 0 
( -0.00477847 -0.0124657 0.00489831 ) 0 
( -0.00619813 -0.000755749 0.00696545 ) 0 
( -0.010072 -0.000138479 0.00289111 ) 0 
( -0.00430479 -0.00201119 0.0031888 ) 0 
( -0.00612358 -0.00564036 0.000499688 ) 0 
( -0.0132734 -0.00142982 0.000499889 ) 0 
( -0.00272425 -0.00877459 0.0045425 ) 0 
( -0.00791751 -0.00948822 0.00484217 ) 0 
( -0.00816148 -0.004091 0.00708138 ) 0 
( -0.00251363 -0.000943295 0.00630368 ) 0 
( -0.00557645 -0.00420476 0.00514681 ) 0 
( -0.000348583 -0.00186449 0.00222825 ) 0 
( -0.00344063 -0.00098135 0.00676897 ) 0 
( -0.0110199 -0.00564313 0.00350022 ) 0 
( -0.000541008 -0.00347408 0.00682725 ) 0 
( -0.00883657 -0.000166804 0.00139096 ) 0 
( -0.00328477 -0.00496414 0.0031513 ) 0 
( -0.0057613 -0.00797316 0.00279634 ) 0 
( -0.00130153 -0.0021762 0.00368467 ) 0 
( -0.00940638 -0.00947351 0.00174603 ) 0 
( -0.000937363 -0.00531099 0.00194613 ) 0 
( -0.00397214 -0.00934177 0.00288339 ) 0 
( -0.00900576 -0.0012547 0.00681777 ) 0 
( -0.000408329 -0.00252979 0.00541868 ) 0 
( -0.00190559 -0.00149466 0.00573262 ) 0 
( -0.00552082 -0.00873533 0.00207226 ) 0 
( -0.00400645 -0.00645868 0.0071459 ) 0 
( -0.00912712 -0.00285947 0.00166426 ) 0 
( -0.0113932 -0.00695831 0.00149583 ) 0 
( -0.00737481 -0.00347626 0.00713044 ) 0 
( -0.0103022 -0.000171015 0.00393088 ) 0 
( -0.00432444 -0.0117425 0.00336892 ) 0 
( -0.0024988 -0.00213244 0.00200197 ) 0 
( -0.00813599 -0.00179586 0.00524931 ) 0 
( -0.00848758 -0.00644931 0.00535509 ) 0 
( -0.0013384 -0.00408123 0.00476487 ) 0 
( -0.00353468 -0.00671416 0.00398719 ) 0 
( -0.0127459 -0.00397054 0.0037566 ) 0 
( -0.0058445 -0.00091639 0.00142231 ) 0 
( -0.00798022 -0.00901364 0.00396379 ) 0 
( -0.0131906 -0.00205319 0.00312749 ) 0 
( -0.00784843 -0.00188924 0.00315213 ) 0 
( -0.00444869 -0.00789419 0.00126206 ) 0 
( -0.0100096 -0.00501211 0.00181776 ) 0 
( -0.00458291 -0.0125357 0.00392025 ) 0 
( -0.0110186 -0.000897477 0.00178812 ) 0 
( -0.0116241 -0.00641696 0.00243103 ) 0 
( -0.00725909 -0.00592063 0.0059036 ) 0 
( -0.00263573 -0.00751068 0.000759646 ) 0 
( -0.00511729 -0.00150802 0.00107401 ) 0 
( -0.00355291 -0.00734914 0.00717665 ) 0 
( -0.000227128 -0.00528693 0.000882969 ) 0 
( -0.00756048 -0.000717579 0.00546449 ) 0 
( -0.00232053 -0.0123256 0.0040431 ) 0 
( -0.00616578 -0.0118409 0.00278251 ) 0 
( -0.0118025 -0.00215176 0.00338276 ) 0 
( -0.00571137 -0.00394702 0.00370406 ) 0 
( -0.00734769 -0.00123285 0.00258527 ) 0 
( -0.000164131 -0.000260615 0.00122917 ) 0 
( -0.00389419 -0.00356099 0.00249793 ) 0 
( -0.00355906 -3.38315e-05 0.00646252 ) 0 
( -0.00720383 -0.000294293 0.000754633 ) 0 
( -0.00291237 -0.0123283 0.000499739 ) 0 
( -0.00245123 -0.00375854 0.00423977 ) 0 
( -0.00191582 -0.00811751 0.00456896 ) 0 
( -0.0122758 -0.00239679 0.00509576 ) 0 
( -0.0075712 -0.00317908 0.00239776 ) 0 
( -0.00824356 -0.0105009 0.00115957 ) 0 
( -0.0089874 -0.00738826 0.00507216 ) 0 
( -0.000444166 -0.00376529 0.00441787 ) 0 
( -0.00763717 -0.00845879 0.00474838 ) 0 
( -0.00550838 -0.00828251 0.0046562 ) 0 
( -0.00657066 -0.00570753 0.00351452 ) 0 
( -0.0034215 -0.00343222 0.00433586 ) 0 
( -0.00437552 -0.0116193 0.00634861 ) 0 
( -0.00136622 -0.00179502 0.00172639 ) 0 
( -0.000385385 -0.0126056 0.00254419 ) 0 
( -0.000470203 -0.00377546 0.00341833 ) 0 
( -0.00871104 -0.00231438 0.00342616 ) 0 
( -0.00330889 -0.0112079 0.000499644 ) 0 
( -0.0071871 -0.00101866 0.0014451 ) 0 
( -0.00499034 -0.0106277 0.0038779 ) 0 
( -0.0023674 -0.00388513 0.00806499 ) 0 
( -0.009197 -0.0057951 0.00415953 ) 0 
( -0.0071999 -0.00401661 0.00194777 ) 0 
( -0.0035822 -0.00260295 0.00218925 ) 0 
( -0.00212481 -0.000616171 0.00523223 ) 0 
( -0.0117709 -0.00418904 0.00589256 ) 0 
( -0.00585322 -0.00138896 0.00809471 ) 0 
( -0.00677171 -0.00234896 0.00306771 ) 0 
( -0.00223998 -0.0131595 0.00577926 ) 0 
( -0.0051029 -0.00148202 0.00637448 ) 0 
( -0.00528163 -0.000494917 0.00353835 ) 0 
( -0.00313012 -0.00780789 0.00639554 ) 0 
( -0.0104089 -0.00246343 0.00241177 ) 0 
( -0.00283862 -0.00686859 0.00328617 ) 0 
( -0.000880827 -0.0014507 0.00838966 ) 0 
( -0.00999024 -0.00559859 0.000499601 ) 0 
( -0.00321603 -0.00431894 0.00392205 ) 0 
( -0.010248 -0.0071435 0.00422928 ) 0 
( -6.26655e-05 -0.00679507 0.00519685 ) 0 
( -0.0125425 -0.00457263 0.00221499 ) 0 
( -0.0103912 -0.00770244 0.00504589 ) 0 
( -0.00123117 -0.0092448 0.00211727 ) 0 
( -0.00650417 -0.00695361 0.00117834 ) 0 
( -0.0106414 -0.00806132 0.00408972 ) 0 
( -0.00831329 -0.00847932 0.000499694 ) 0 
( -0.00125023 -0.00473822 0.00556456 ) 0 
( -0.00477925 -0.00229285 0.00588708 ) 0 
( -0.00762408 -0.00494835 0.000499652 ) 0 
( -0.00108227 -0.00157367 0.00291743 ) 0 
( -0.0102124 -0.00738872 0.00049953 ) 0 
( -0.00291488 -0.00188952 0.00723813 ) 0 
( -0.000713305 -0.0127274 0.00526048 ) 0 
( -0.00654421 -0.0109085 0.00432118 ) 0 
( -0.00317786 -0.00621484 0.00169077 ) 0 
( -0.000428053 -0.00248193 0.00668993 ) 0 
( -0.0114974 -0.00333132 0.00633526 ) 0 
( -0.0128329 -0.0035882 0.000499725 ) 0 
( -0.00436176 -0.00663788 0.00102955 ) 0 
( -0.00774823 -0.00909064 0.00108305 ) 0 
( -0.00521818 -0.00242153 0.00146793 ) 0 
( -0.00418356 -0.0111063 0.00118218 ) 0 
( -0.0030649 -0.00709919 0.00569344 ) 0 
( -0.00612192 -0.00304789 0.00354824 ) 0 
( -0.00847178 -0.00744433 0.00136888 ) 0 
( -0.00778408 -0.00628031 0.00466509 ) 0 
( -0.00882808 -0.00163567 0.00251204 ) 0 
( -0.00716715 -0.000745212 0.00720973 ) 0 
( -0.00709607 -0.00586144 0.00689978 ) 0 
( -0.00585411 -0.00729446 0.00049966 ) 0 
( -0.00742637 -0.00416657 0.00640798 ) 0 
( -0.0052937 -0.00834276 0.00368147 ) 0 
( -0.00741774 -0.00197393 0.00117136 ) 0 
( -0.00529269 -0.00535562 0.00360022 ) 0 
( -0.0100053 -0.00127738 0.00680811 ) 0 
( -0.00327585 -0.00169219 0.00150153 ) 0 
( -1.74787e-06 -0.00563247 0.00179378 ) 0 
( -0.00568383 -0.00225066 0.00310819 ) 0 
( -0.00392126 -0.00822756 0.00687266 ) 0 
( -0.00557556 -0.0108294 0.00148403 ) 0 
( -0.0111938 -0.00188588 0.00263546 ) 0 
( -0.00990665 -0.00588771 0.00567906 ) 0 
( -0.00332584 -0.00422251 0.000499838 ) 0 
( -0.00106339 -0.00123314 0.00651024 ) 0 
( -0.0114779 -0.00281363 0.00223979 ) 0 
( -0.00320979 -0.00430197 0.0022038 ) 0 
( -0.013164 -0.00207877 0.00571587 ) 0 
( -0.00950638 -0.00247471 0.00284187 ) 0 
( -0.000186814 -0.0110258 0.00593966 ) 0 
( -9.32108e-05 -0.000287101 0.0075213 ) 0 
( -0.011492 -0.00185217 0.0015577 ) 0 
( -0.00124701 -0.00981571 0.0072238 ) 0 
( -0.00129569 -0.00409831 0.00639822 ) 0 
( -0.00506545 -0.000702819 0.00205781 ) 0 
( -0.00618282 -0.00560028 0.00450083 ) 0 
( -0.0100274 -0.00265301 0.00736837 ) 0 
( -0.0116887 -0.00182247 0.00434529 ) 0 
( -0.00480856 -0.00697714 0.00526816 ) 0 
( -0.000339407 -0.00650365 0.00143756 ) 0 
( -0.00873347 -0.000560043 0.00615215 ) 0 
( -0.00184687 -0.00239863 0.00109047 ) 0 
( -0.0115834 -0.000481447 0.00253573 ) 0 
( -0.0113568 -0.00504343 0.000499765 ) 0 
( -0.00749791 -0.00893471 0.00307006 ) 0 
( -0.00492277 -4.49358e-05 0.00574334 ) 0 
( -0.00344487 -0.00199861 0.000499875 ) 0 
( -0.000718695 -0.0114731 0.00398407 ) 0 
( -0.00358759 -0.00330311 0.00132511 ) 0 
( -0.0118444 -0.000665618 0.00497006 ) 0 
( -0.00138069 -0.00627535 0.00210894 ) 0 
( -0.00407604 -0.0042261 0.00481516 ) 0 
( -0.002131 -0.0125314 0.00657803 ) 0 
( -0.0119373 -0.00279503 0.00424343 ) 0 
( -0.00819304 -0.000720209 0.00273528 ) 0 
( -0.000853946 -0.0119089 0.00308712 ) 0 
( -0.00147013 -0.00168529 0.000499714 ) 0 
( -0.00785994 -0.00440611 0.00130566 ) 0 
( -0.00182304 -0.011224 0.000499717 ) 0 
( -0.00142705 -0.0111218 0.0033148 ) 0 
( -0.000836141 -0.0133238 0.00337759 ) 0 
( -0.0037514 -0.00837005 0.00449903 ) 0 
( -0.0113415 -0.00510044 0.00671904 ) 0 
( -0.00476913 -0.00128508 0.00528594 ) 0 
( -0.00335289 -0.00383819 0.00631913 ) 0 
( -0.00785395 -0.000271895 0.0077602 ) 0 
( -0.0125424 -0.000527701 0.00366264 ) 0 
( -0.00989916 -0.00219699 0.00468532 ) 0 
( -0.00302443 -0.00920022 0.00539591 ) 0 
( -0.00530513 -0.00404783 0.00654119 ) 0 
( -0.00425164 -0.00888422 0.00372755 ) 0 
( -0.00513754 -0.0060391 0.00696356 ) 0 
( -0.00203368 -0.00345316 0.00659572 ) 0 
( -0.00655305 -0.00158448 0.00739741 ) 0 
( -0.0036069 -0.0105167 0.00314292 ) 0 
( -0.00426455 -0.00117212 0.00376641 ) 0 
( -0.00191602 -0.00459454 0.00411959 ) 0 
( -0.000252649 -0.0022774 0.00778606 ) 0 
( -0.0130354 -0.00279708 0.0024575 ) 0 
( -0.0104068 -0.00403504 0.00732292 ) 0 
( -0.0016808 -0.0132238 0.00390265 ) 0 
( -0.00656012 -0.00757339 0.00611118 ) 0 
( -0.00839366 -0.000318841 0.00362999 ) 0 
( -0.00405838 -0.00902332 0.00519096 ) 0 
( -0.00411243 -0.00294436 0.0062485 ) 0 
( -0.00135441 -0.00215247 0.0062458 ) 0 
( -0.00450837 -0.00311852 0.00172034 ) 0 
( -0.00499306 -0.00874568 0.00122322 ) 0 
( -0.000441674 -0.0119907 0.00587963 ) 0 
( -0.00644704 -0.00411565 0.00660289 ) 0 
( -0.0110036 -0.00417787 0.00653367 ) 0 
( -0.0122522 -0.00197987 0.00707855 ) 0 
( -0.000775237 -0.0124254 0.000499792 ) 0 
( -0.00753593 -0.0026084 0.00666095 ) 0 
( -0.00477137 -0.00489602 0.00661435 ) 0 
( -0.010871 -0.00238542 0.00446479 ) 0 
( -0.00560076 -0.00325603 0.0026863 ) 0 
( -0.00221974 -0.00197547 0.00402575 ) 0 
( -0.00594804 -0.000610636 0.00279406 ) 0 
( -0.00845099 -0.00437252 0.000499799 ) 0 
( -0.00248761 -0.00300764 0.00489899 ) 0 
( -0.00298078 -0.00949516 0.00643676 ) 0 
( -0.000124619 -0.00997715 0.00288139 ) 0 
( -0.00483292 -0.01164 0.0054597 ) 0 
( -0.000929407 -0.00248353 0.00849269 ) 0 
( -0.00517536 -0.00281892 0.00377529 ) 0 
( -0.00254579 -0.00196167 0.00512199 ) 0 
( -0.00797797 -0.00745191 0.000499677 ) 0 
( -0.00603331 -0.000564184 0.00419398 ) 0 
( -0.00228401 -0.0131343 0.00049988 ) 0 
( -0.0102127 -0.00496546 0.00301622 ) 0 
( -0.00837929 -0.00260483 0.00252864 ) 0 
( -0.00287318 -0.000190751 0.00575203 ) 0 
( -0.000250199 -0.0108862 0.00131989 ) 0 
( -0.0035359 -0.000734059 0.0017698 ) 0 
( -0.0126167 -0.00436303 0.00532179 ) 0 
( -0.00929525 -0.00176011 0.00401887 ) 0 
( -0.010509 -0.00573638 0.00134289 ) 0 
( -0.00964044 -0.00317333 0.00504535 ) 0 
( -0.0106083 -0.00321809 0.00678284 ) 0 
( -0.0055031 -0.00437393 0.00135991 ) 0 
( -0.0073475 -0.00163544 0.00679234 ) 0 
( -0.0059499 -0.00461895 0.000499701 ) 0 
( -0.00548546 -0.000777078 0.000499689 ) 0 
( -0.00224588 -0.00959182 0.00710971 ) 0 
( -0.00224124 -0.00579684 0.00180752 ) 0 
( -0.0105096 -0.00169504 0.00145786 ) 0 
( -0.00107816 -0.00479041 0.00708629 ) 0 
( -0.00360845 -0.00518385 0.000499669 ) 0 
( -0.00536251 -0.0112668 0.00262338 ) 0 
( -0.00679898 -0.00785861 0.00148425 ) 0 
( -0.0061048 -0.00800861 0.00688831 ) 0 
( -0.000886725 -0.00760861 0.00740163 ) 0 
( -0.0131139 -0.00250081 0.00766408 ) 0 
( -0.00622086 -0.00986377 0.00506893 ) 0 
( -0.00119175 -0.0068648 0.00389586 ) 0 
( -0.0070728 -0.00326636 0.00332758 ) 0 
( -0.000646798 -0.00497649 0.0080766 ) 0 
( -0.00948928 -0.00028769 0.00553685 ) 0 
( -0.00448862 -0.000403656 0.00490638 ) 0 
( -0.0129323 -0.00325995 0.00630746 ) 0 
( -0.00441709 -0.000833704 0.00130788 ) 0 
( -0.00366231 -0.00212919 0.00661908 ) 0 
( -0.0123934 -0.00190461 0.000499846 ) 0 
( -0.011537 -0.000320658 0.00626131 ) 0 
( -0.00626564 -6.04135e-05 0.000499813 ) 0 
( -0.000848531 -0.0101996 0.0035342 ) 0 
( -0.000838687 -0.00828202 0.00310971 ) 0 
( -0.00672678 -0.0115316 0.000500202 ) 0 
( -0.00372901 -0.00984225 0.00128969 ) 0 
( -0.00138122 -0.0092562 0.000499736 ) 0 
( -0.00941935 -0.00386211 0.00617971 ) 0 
( -0.00348578 -0.012887 0.00218707 ) 0 
( -0.0108009 -0.00618806 0.000499861 ) 0 
( -0.00814709 -0.00214297 0.000499861 ) 0 
( -0.00920138 -0.00326133 0.00339139 ) 0 
( -0.00524306 -0.00562683 0.00605897 ) 0 
( -0.0021259 -0.00784421 0.00292616 ) 0 
( -0.00650771 -0.00243126 0.00686452 ) 0 
( -0.0077359 -0.0107191 0.00199288 ) 0 
( -0.00230461 -0.0105253 0.00675618 ) 0 
( -0.0127697 -0.00294274 0.00341039 ) 0 
( -0.00678227 -0.00994 0.0042451 ) 0 
( -0.00347773 -0.0107241 0.00719811 ) 0 
( -0.00831932 -0.00602514 0.003704 ) 0 
( -0.00386156 -0.00617511 0.00321114 ) 0 
( -0.00318239 -0.00108571 0.00339672 ) 0 
( -0.00711867 -0.00311077 0.00434962 ) 0 
( -0.00525067 -0.0105557 0.00545605 ) 0 
( -0.00449319 -0.00315989 0.0050132 ) 0 
( -0.00437314 -0.000301138 0.00738654 ) 0 
( -0.00564582 -0.00474256 0.00430677 ) 0 
( -0.0114797 -0.00596626 0.0014056 ) 0 
( -0.00682789 -0.00743195 0.00515804 ) 0 
( -0.00258309 -0.0030001 0.00589416 ) 0 
( -0.0106945 -0.00100193 0.000499755 ) 0 
( -0.00814735 -0.0105756 0.00305955 ) 0 
( -0.00354678 -0.0110203 0.00624556 ) 0 
( -0.0015368 -0.00821246 0.00600412 ) 0 
( -0.00315174 -0.00341677 0.00765842 ) 0 
( -0.00228736 -0.00845243 0.00370298 ) 0 
( -0.00586179 -0.0104119 0.00623382 ) 0 
( -0.0100412 -0.00414625 0.00131894 ) 0 
( -0.00102207 -0.00387602 0.000499717 ) 0 
( -0.00803278 -0.00145514 0.00176495 ) 0 
( -0.00437331 -0.00335439 0.00403967 ) 0 
( -0.00108345 -0.00845549 0.00506055 ) 0 
( -0.00824043 -0.0081073 0.0020808 ) 0 
( -0.00755778 -0.00474721 0.00471473 ) 0 
( -0.00515603 -0.000166037 0.00121915 ) 0 
( -0.00104094 -0.000103186 0.0078622 ) 0 
( -0.00138029 -0.00322379 0.00788243 ) 0 
( -0.00206876 -0.00759105 0.0017937 ) 0 
( -0.010913 -0.00767581 0.00589836 ) 0 
( -0.0060163 -0.00150198 0.00465084 ) 0 
( -0.00137285 -0.00720938 0.00560158 ) 0 
( -0.00174133 -0.00514677 0.00123544 ) 0 
( -0.000791027 -0.00928013 0.00314561 ) 0 
( -0.00133625 -0.012226 0.00214669 ) 0 
( -0.00991452 -0.00409078 0.00350122 ) 0 
( -0.00358082 -0.00858117 0.0059499 ) 0 
( -0.00451084 -0.005681 0.000499658 ) 0 
( -0.00488664 -0.00256258 0.00259102 ) 0 
( -0.0079265 -0.0107214 0.00566431 ) 0 
( -0.00540748 -0.0069432 0.00252635 ) 0 
( -0.00840685 -0.00909054 0.00198987 ) 0 
( -0.00599746 -0.00841041 0.00125461 ) 0 
( -0.00265156 -0.0114328 0.00641293 ) 0 
( -0.00146035 -0.0101014 0.00624675 ) 0 
( -0.00165804 -0.0123581 0.00563399 ) 0 
( -0.0108972 -0.00389968 0.00177296 ) 0 
( -0.0047369 -0.00516792 0.0044844 ) 0 
( -5.20508e-05 -0.00941072 0.00567084 ) 0 
( -0.00245052 -0.00443009 0.00328849 ) 0 
( -0.00111974 -0.0124228 0.00647386 ) 0 
( -0.0110409 -0.00396836 0.000499779 ) 0 
( -0.00290909 -0.00810596 0.00162569 ) 0 
( -0.00612796 -0.00363515 0.000499731 ) 0 
( -0.00819881 -0.00808237 0.00689796 ) 0 
( -0.00959192 -0.00121366 0.00589992 ) 0 
( -0.00822681 -0.00372009 0.00413077 ) 0 
( -0.0039821 -0.00731521 0.00464908 ) 0 
( -0.00255811 -0.00566875 0.00818298 ) 0 
( -0.0100948 -0.00594066 0.00222973 ) 0 
( -0.00588573 -0.0089331 0.00657698 ) 0 
( -0.00175033 -0.00137782 0.00470385 ) 0 
( -0.00674043 -0.0115235 0.00353835 ) 0 
( -0.00655154 -0.00825302 0.00335793 ) 0 
( -0.00190491 -0.00160793 0.00689903 ) 0 
( -0.00530689 -0.00525384 0.000927755 ) 0 
( -0.002239 -0.00155392 0.00311921 ) 0 
( -0.00757474 -0.00673169 0.00106392 ) 0 
( -0.00827189 -0.00904709 0.00663625 ) 0 
( -0.0038346 -0.0117177 0.00718599 ) 0 
( -0.0006938 -0.00938758 0.00643726 ) 0 
( -0.00379616 -0.00662476 0.00618288 ) 0 
( -0.00069747 -0.0105838 0.00667702 ) 0 
( -2.46788e-05 -0.00788681 0.000499729 ) 0 
( -0.0101343 -0.00588686 0.00455882 ) 0 
( -0.00948391 -0.00526384 0.00704845 ) 0 
( -0.0101749 -0.00327794 0.00588398 ) 0 
( -0.00553364 -0.0109998 0.00049972 ) 0 
( -0.00403253 -0.00589296 0.00426589 ) 0 
( -0.0021564 -0.000367762 0.00133063 ) 0 
( -0.0106401 -0.00319604 0.00500274 ) 0 
( -0.00251925 -0.00507544 0.00251769 ) 0 
( -0.00700867 -0.00673659 0.00642436 ) 0 
( -0.0124253 -0.00141135 0.00308073 ) 0 
( -0.0053406 -0.00780613 0.00170531 ) 0 
( -0.00957847 -0.00609887 0.00138819 ) 0 
( -0.00768852 -0.00337139 0.00584654 ) 0 
( -0.00883318 -0.00418623 0.00348436 ) 0 
( -0.00675131 -0.0105221 0.00342246 ) 0 
( -0.00531791 -0.0122451 0.00325796 ) 0 
( -0.0100653 -0.00504215 0.00508936 ) 0 
( -0.003291 -0.00245698 0.00467306 ) 0 
( -0.00112146 -0.0116066 0.00110053 ) 0 
( -0.00587614 -0.000691318 0.00602118 ) 0 
( -0.00730193 -0.00801025 0.0027432 ) 0 
( -0.00331054 -0.00338822 0.00532849 ) 0 
( -0.00359239 -0.00466665 0.00135511 ) 0 
( -0.00241848 -0.00464281 0.000499876 ) 0 
( -0.00220348 -0.00958766 0.00581505 ) 0 
( -0.00456747 -0.00950435 0.00171687 ) 0 
( -0.0133146 -0.000972452 0.00320897 ) 0 
( -0.00831067 -0.00348602 0.00299671 ) 0 
( -0.0106531 -0.00651991 0.00701751 ) 0 
( -0.00308 -0.00836786 0.000499748 ) 0 
( -0.0109367 -0.00382028 0.00299611 ) 0 
( -0.00763243 -0.00377428 0.00493315 ) 0 
( -0.00919817 -0.00476435 0.0025718 ) 0 
( -0.0116731 -0.00102191 0.00361211 ) 0 
( -0.0062747 -0.0117833 0.00135639 ) 0 
( -0.00698583 -0.00757674 0.000499875 ) 0 
( -0.00820612 -0.00146583 0.00625341 ) 0 
( -0.00691014 -0.00900758 0.00390746 ) 0 
( -0.010311 -0.00465169 0.000499735 ) 0 
( -0.00883757 -0.00862876 0.00294239 ) 0 
( -0.0112918 -0.00249607 0.00536513 ) 0 
( -0.0074306 -0.00123383 0.000499558 ) 0 
( -0.0109748 -0.00760109 0.00263297 ) 0 
( -0.00198072 -0.00311412 0.00333448 ) 0 
( -0.0122906 -0.00373432 0.00461488 ) 0 
( -0.000329124 -0.000509702 0.00608559 ) 0 
( -0.00317126 -0.00573135 0.00378248 ) 0 
( -0.00732383 -0.00138267 0.00475628 ) 0 
( -0.00910198 -0.00481164 0.00144953 ) 0 
( -0.00778861 -0.00593457 0.000499724 ) 0 
( -0.00921963 -0.00289894 0.00600178 ) 0 
( -0.000952085 -0.00265567 0.00202223 ) 0 
( -0.00290699 -0.0059705 0.00284818 ) 0 
( -0.0081463 -0.00289928 0.00739766 ) 0 
( -0.00538423 -0.00817699 0.000499797 ) 0 
( -0.00177428 -0.000896145 0.00208831 ) 0 
( -0.000716111 -0.00967084 0.00482794 ) 0 
( -0.00882124 -0.0100208 0.000499664 ) 0 
( -0.00135871 -0.00690856 0.00133521 ) 0 
( -0.00305669 -0.00426087 0.00491213 ) 0 
( -0.00292144 -0.00509759 0.00544229 ) 0 
( -0.00309053 -0.00812451 0.00520807 ) 0 
( -0.0100992 -0.00411328 0.00250515 ) 0 
( -0.012067 -0.00160305 0.00566675 ) 0 
( -0.00382045 -0.000634856 0.00561342 ) 0 
( -0.00516436 -0.00735639 0.00441416 ) 0 
( -0.00147145 -0.00827366 0.00221461 ) 0 
( -0.00813821 -0.00499731 0.00206237 ) 0 
( -0.00341305 -0.0069667 0.00107503 ) 0 
( -0.002259 -0.00715392 0.00628291 ) 0 
( -0.0108748 -0.00774393 0.00115857 ) 0 
( -0.00581551 -0.0120169 0.00049973 ) 0 
( -0.00169566 -0.00465494 0.00210477 ) 0 
( -0.00713818 -0.0112816 0.00140265 ) 0 
( -0.00773221 -0.00810053 0.00121971 ) 0 
( -0.00134954 -0.00878233 0.00380886 ) 0 
( -0.0111796 -0.00729552 0.00455927 ) 0 
( -0.00369554 -0.00681428 0.00246037 ) 0 
( -0.000757547 -0.00112498 0.00474296 ) 0 
( -0.00453829 -0.000201556 0.00293734 ) 0 
( -0.00445462 -0.00198851 0.000499706 ) 0 
( -0.00757288 -0.00734434 0.00185406 ) 0 
( -0.00530939 -0.00347451 0.00451826 ) 0 
( -0.00789754 -0.00593479 0.00181157 ) 0 
( -0.0108696 -0.00101957 0.00301518 ) 0 
( -0.00204463 -0.00478539 0.00683128 ) 0 