FoamFile
{version 2.0; format ascii;class Cloud<passiveParticle>; location 0;object  positions;}
1000
(
( 0.02874 0.0356584 0.0881109 ) 0 
( 0.0320826 0.0811198 0.099059 ) 0 
( 0.0404724 0.0923164 0.097619 ) 0 
( 0.0924202 0.00891957 0.0890469 ) 0 
( 0.00759343 0.0038425 0.0994088 ) 0 
( 0.0947974 0.0400707 0.0992386 ) 0 
( 0.0184483 0.0613562 0.0890124 ) 0 
( 0.0204085 0.094262 0.0978334 ) 0 
( 0.0235025 0.0972807 0.0995002 ) 0 
( 0.0650207 0.0170136 0.0923762 ) 0 
( 0.00157202 0.0301633 0.0939159 ) 0 
( 0.0204687 0.0184885 0.0902224 ) 0 
( 0.0506376 0.0566128 0.0995002 ) 0 
( 0.0183184 0.0673761 0.0995002 ) 0 
( 0.0753273 0.0747278 0.0945 ) 0 
( 0.0586259 0.0159152 0.0995002 ) 0 
( 0.0185752 0.0262131 0.098605 ) 0 
( 0.0210317 0.069631 0.0995002 ) 0 
( 0.00615136 0.0542021 0.0989822 ) 0 
( 0.0152125 0.0794021 0.089074 ) 0 
( 0.0831087 0.0102947 0.0892182 ) 0 
( 0.0621416 0.0128783 0.0933119 ) 0 
( 0.0994621 0.0953367 0.0892084 ) 0 
( 0.080132 0.0519936 0.0963915 ) 0 
( 0.0303274 0.0034686 0.0995002 ) 0 
( 0.0834434 0.0728479 0.0958382 ) 0 
( 0.0280768 0.0760246 0.0995002 ) 0 
( 0.0898707 0.0353168 0.0991811 ) 0 
( 0.103562 0.00198566 0.0987655 ) 0 
( 0.0880678 0.0320384 0.0991429 ) 0 
( 0.0646327 0.00457085 0.0891407 ) 0 
( 0.0643257 0.0231697 0.0887839 ) 0 
( 0.0155257 0.0712903 0.0994897 ) 0 
( 0.0720762 0.0582478 0.0990932 ) 0 
( 0.07257 0.0865603 0.0889088 ) 0 
( 0.0115396 0.00131155 0.0927972 ) 0 
( 0.0654336 0.0987042 0.089071 ) 0 
( 0.0405948 0.0788911 0.0897653 ) 0 
( 0.083748 0.0536989 0.0892266 ) 0 
( 0.0933143 0.0715921 0.0940261 ) 0 
( 0.0909584 0.0244531 0.0994983 ) 0 
( 0.0271843 0.0624781 0.0995136 ) 0 
( 0.0492937 0.0562255 0.0993177 ) 0 
( 0.0749574 0.0866027 0.0895796 ) 0 
( 0.075022 0.0497546 0.0902034 ) 0 
( 0.0357455 0.048901 0.0991835 ) 0 
( 0.0624335 0.000944971 0.0994321 ) 0 
( 0.0225788 0.0852625 0.0890621 ) 0 
( 0.0760291 0.0226156 0.0893858 ) 0 
( 0.0228354 0.053469 0.0937062 ) 0 
( 0.0242002 0.0341179 0.0896516 ) 0 
( 0.0227006 0.0199199 0.0995002 ) 0 
( 0.0223884 0.00472051 0.0917373 ) 0 
( 0.00765092 0.0793298 0.0995002 ) 0 
( 0.0733244 0.0970288 0.0986102 ) 0 
( 0.0322694 0.0540702 0.0967059 ) 0 
( 0.0716524 0.0449743 0.0995033 ) 0 
( 0.0515041 0.032082 0.088749 ) 0 
( 0.0820213 0.0317811 0.0915571 ) 0 
( 0.0119923 0.0786306 0.0915945 ) 0 
( 0.0315596 0.0248071 0.0899936 ) 0 
( 0.0788219 0.0286294 0.0989875 ) 0 
( 0.0234928 0.0461479 0.0886113 ) 0 
( 0.0423459 0.064393 0.0933499 ) 0 
( 0.0884836 0.0451147 0.0914086 ) 0 
( 0.0894682 0.0888107 0.0995002 ) 0 
( 0.010906 0.0834227 0.0994992 ) 0 
( 0.0546303 0.0414812 0.0990214 ) 0 
( 0.0070253 0.0278073 0.0961736 ) 0 
( 0.0527922 0.0805332 0.089112 ) 0 
( 0.014418 0.0255734 0.0888178 ) 0 
( 0.0904283 0.0775489 0.0989241 ) 0 
( 0.0419232 0.0189716 0.0957847 ) 0 
( 0.034734 0.0600158 0.0994714 ) 0 
( 0.081727 0.0895706 0.0888682 ) 0 
( 0.0274558 0.0218883 0.0991256 ) 0 
( 0.0685274 0.00117523 0.0948425 ) 0 
( 0.0938289 0.0827842 0.0937517 ) 0 
( 0.0859683 0.0705507 0.0919307 ) 0 
( 0.0874492 0.0798753 0.0983718 ) 0 
( 0.0232002 0.00148629 0.0992184 ) 0 
( 0.0572294 0.0559475 0.0875654 ) 0 
( 0.0907093 0.0527227 0.0889357 ) 0 
( 0.0376642 0.0992345 0.0898804 ) 0 
( 0.0416277 0.0207105 0.0994816 ) 0 
( 0.0192387 0.0196156 0.0992393 ) 0 
( 0.0203235 0.056035 0.0993414 ) 0 
( 0.0472631 0.0405482 0.0995002 ) 0 
( 0.0432308 0.0816094 0.0890763 ) 0 
( 0.0488104 0.0592328 0.0893089 ) 0 
( 0.0746908 0.0694394 0.0987755 ) 0 
( 0.0723922 0.0854046 0.0995002 ) 0 
( 0.00332857 0.0174234 0.0994812 ) 0 
( 0.0573184 0.0520277 0.0904774 ) 0 
( 0.0876104 0.0623906 0.0995002 ) 0 
( 0.087901 0.0498091 0.0912308 ) 0 
( 0.091912 0.0659859 0.0893375 ) 0 
( 0.00884303 0.0177781 0.0995002 ) 0 
( 0.0960464 0.0336567 0.0992839 ) 0 
( 0.0799947 0.0722799 0.0876579 ) 0 
( 0.0641441 0.0725542 0.0890266 ) 0 
( 0.0505575 0.0111316 0.0995002 ) 0 
( 0.0715072 0.0878363 0.099285 ) 0 
( 0.0660015 0.0781395 0.0995002 ) 0 
( 0.0258088 0.0553848 0.0943993 ) 0 
( 0.08958 0.0296409 0.0978641 ) 0 
( 0.0616901 0.0158206 0.0995002 ) 0 
( 0.033867 0.0915272 0.0995002 ) 0 
( 0.0905065 0.0446793 0.0887055 ) 0 
( 0.0889506 0.0124014 0.0959983 ) 0 
( 0.0367428 0.0153139 0.0993401 ) 0 
( 0.00630818 0.0236693 0.0890609 ) 0 
( 0.0838434 0.0583762 0.0892394 ) 0 
( 0.00387114 0.063796 0.0889288 ) 0 
( 0.0220479 0.00322524 0.0884268 ) 0 
( 0.0619943 0.0399894 0.0892422 ) 0 
( 0.0246037 0.0649613 0.0995002 ) 0 
( 0.0652575 0.00683316 0.0914265 ) 0 
( 0.0703315 0.0626824 0.0886446 ) 0 
( 0.0473007 0.085948 0.089558 ) 0 
( 0.0300059 0.0754903 0.0975582 ) 0 
( 0.0163659 0.0635218 0.0890375 ) 0 
( 0.0792038 0.0809988 0.0919805 ) 0 
( 0.093637 0.0257977 0.0990529 ) 0 
( 0.0254131 0.0969559 0.0924533 ) 0 
( 0.0757495 0.0246705 0.0916347 ) 0 
( 0.0255647 0.0631954 0.0896637 ) 0 
( 0.0231884 0.00753439 0.0896378 ) 0 
( 0.0340258 0.00325132 0.0917149 ) 0 
( 0.0590954 0.0431884 0.0985056 ) 0 
( 0.0132105 0.0322268 0.0915546 ) 0 
( 0.0971749 0.0194986 0.0889811 ) 0 
( 0.0707464 0.00717237 0.0919268 ) 0 
( 0.0798467 0.00201192 0.0888143 ) 0 
( 0.0929721 0.0840022 0.0891002 ) 0 
( 0.0375103 0.0481409 0.0893525 ) 0 
( 0.0935408 0.0299455 0.0995002 ) 0 
( 0.0402621 0.0747781 0.0995002 ) 0 
( 0.0430573 0.0934076 0.0881871 ) 0 
( 0.0654159 0.0453935 0.0904396 ) 0 
( 0.0370713 0.0736081 0.0907251 ) 0 
( 0.0270823 0.0729589 0.0879135 ) 0 
( 0.0442717 0.0697484 0.0979436 ) 0 
( 0.0897717 0.082739 0.0995002 ) 0 
( 0.0765707 0.087935 0.0899503 ) 0 
( 0.039211 0.0213972 0.0891434 ) 0 
( 0.0641477 0.0326592 0.0880704 ) 0 
( 0.04834 0.0524148 0.0897491 ) 0 
( 0.0299402 0.091859 0.0923325 ) 0 
( 0.060796 0.0881711 0.0995002 ) 0 
( 0.0798557 0.0258046 0.0995002 ) 0 
( 0.00975161 0.0748281 0.0915597 ) 0 
( 0.0705023 0.092897 0.0897244 ) 0 
( 0.0955977 0.0795605 0.0990233 ) 0 
( 0.062472 0.011526 0.0890357 ) 0 
( 0.0927131 0.00090215 0.0963513 ) 0 
( 0.023272 0.0332863 0.091145 ) 0 
( 0.079489 0.0613429 0.0995002 ) 0 
( 0.0527568 0.0862997 0.0902993 ) 0 
( 0.0935592 0.0511419 0.0920175 ) 0 
( 0.0544187 0.0162691 0.0909279 ) 0 
( 0.0357756 0.0979922 0.0953676 ) 0 
( 0.0559391 0.071085 0.0892748 ) 0 
( 0.0947879 0.0900212 0.0995002 ) 0 
( 0.0265288 0.0834319 0.0918715 ) 0 
( 0.0691995 0.0407666 0.0981091 ) 0 
( 0.0490218 0.0846719 0.0992283 ) 0 
( 0.0190629 0.0591466 0.0990352 ) 0 
( 0.0285332 0.0586076 0.0890361 ) 0 
( 0.0843061 0.0441397 0.0957395 ) 0 
( 0.0368271 0.00113071 0.0995002 ) 0 
( 0.0968439 0.0442069 0.0995002 ) 0 
( 0.022192 0.0718568 0.0995002 ) 0 
( 0.0910418 0.022317 0.0994491 ) 0 
( 0.0159959 0.0332158 0.0951237 ) 0 
( 0.0400846 0.0716053 0.0994336 ) 0 
( 0.0663602 0.0174003 0.091938 ) 0 
( 0.0734178 0.0546867 0.0909824 ) 0 
( 0.0916781 0.0355825 0.0913389 ) 0 
( 0.0405389 0.0831914 0.0995002 ) 0 
( 0.0837338 0.0160309 0.0896667 ) 0 
( 0.0731054 0.0678459 0.0994687 ) 0 
( 0.0259714 0.0923657 0.0995002 ) 0 
( 0.0256786 0.0824913 0.0897565 ) 0 
( 0.0207016 0.0329809 0.0887229 ) 0 
( 0.0734093 0.0630116 0.0902731 ) 0 
( 0.0886677 0.00988114 0.0990525 ) 0 
( 0.0391647 0.0432808 0.089054 ) 0 
( 0.0695623 0.035783 0.0890512 ) 0 
( 0.000504401 0.0637636 0.0989929 ) 0 
( 0.0553143 0.0701025 0.089004 ) 0 
( 0.0385147 0.0191438 0.0925136 ) 0 
( 0.0958208 0.0613028 0.0890044 ) 0 
( 0.0283299 0.0427339 0.0895435 ) 0 
( 0.0521818 0.0835107 0.0992554 ) 0 
( 0.0411233 0.0498421 0.0995002 ) 0 
( 0.0254668 0.0869233 0.0889923 ) 0 
( 0.0106998 0.0297887 0.0966541 ) 0 
( 0.0862194 0.0650345 0.0912472 ) 0 
( 0.0884986 0.0883724 0.0995002 ) 0 
( 0.0641294 0.0138866 0.0995002 ) 0 
( 0.0451517 0.0548696 0.0995002 ) 0 
( 0.0532127 0.046213 0.0893835 ) 0 
( 0.0443814 0.0339435 0.0993713 ) 0 
( 0.0853855 0.0593592 0.0938168 ) 0 
( 0.0580721 0.0846064 0.0989429 ) 0 
( 0.0689562 0.047637 0.0902136 ) 0 
( 0.075705 0.00182443 0.096617 ) 0 
( 0.0830975 0.0200772 0.0911491 ) 0 
( 0.00145586 0.059017 0.0995002 ) 0 
( 0.0621421 0.090053 0.0890402 ) 0 
( 0.0847834 0.0215657 0.0938322 ) 0 
( 0.0712583 0.0400209 0.0897821 ) 0 
( 0.014428 0.068559 0.0991508 ) 0 
( 0.0279747 0.0753822 0.0939988 ) 0 
( 0.0185071 0.0305747 0.0992939 ) 0 
( 0.0140406 0.0699826 0.0995002 ) 0 
( 0.00929031 0.0481729 0.0953823 ) 0 
( 0.0376109 0.0298821 0.0894662 ) 0 
( 0.0230253 0.0124033 0.0984539 ) 0 
( 0.0967631 0.0877727 0.0995002 ) 0 
( 0.0057354 0.0114574 0.0983044 ) 0 
( 0.0826287 0.0423176 0.0896 ) 0 
( 0.0480623 0.0927323 0.093013 ) 0 
( 0.0237978 0.0641859 0.0989658 ) 0 
( 0.0149379 0.0516622 0.0995002 ) 0 
( 0.0554664 0.0261564 0.0888512 ) 0 
( 0.0342622 0.00484432 0.0873308 ) 0 
( 0.0764583 0.00316795 0.0943489 ) 0 
( 0.00592379 0.062553 0.089363 ) 0 
( 0.105094 0.0972355 0.0966572 ) 0 
( 0.0507983 0.0386513 0.0995002 ) 0 
( 0.0153373 0.0597231 0.0994033 ) 0 
( 0.0842941 0.0324593 0.0915306 ) 0 
( 0.086234 0.0252568 0.0995002 ) 0 
( 0.0714414 0.0174182 0.0922867 ) 0 
( 0.0764649 0.0365524 0.0904007 ) 0 
( 0.00689178 0.0324704 0.0894149 ) 0 
( 0.0430963 0.00255608 0.0955817 ) 0 
( 0.00240758 0.056569 0.0954279 ) 0 
( 0.0943497 0.00521651 0.0990238 ) 0 
( 0.0321445 0.0378166 0.099465 ) 0 
( 0.0820689 0.0865034 0.0962072 ) 0 
( 0.0143603 0.0553893 0.0894835 ) 0 
( 0.396585 0.00231799 0.0995002 ) 0 
( 0.0948242 0.00368946 0.0887677 ) 0 
( 0.0747579 0.0572098 0.0899165 ) 0 
( 0.0220594 0.0159779 0.0919335 ) 0 
( 0.0360879 0.0319718 0.0929213 ) 0 
( 0.0744743 0.0551701 0.0956909 ) 0 
( 0.0712311 0.0336555 0.0922796 ) 0 
( 0.155938 0.0375554 0.0995002 ) 0 
( 0.185443 0.0386442 0.0995002 ) 0 
( 0.119537 0.0554654 0.0892003 ) 0 
( 0.165323 0.0806276 0.0885241 ) 0 
( 0.1114 0.013617 0.0974172 ) 0 
( 0.149462 0.0521292 0.0902101 ) 0 
( 0.194577 0.0605188 0.0919563 ) 0 
( 0.132424 0.0216145 0.0990071 ) 0 
( 0.138944 0.0414598 0.0889831 ) 0 
( 0.13156 0.0582657 0.0918957 ) 0 
( 0.150527 0.0707887 0.0929237 ) 0 
( 0.138681 0.0992956 0.0961894 ) 0 
( 0.122648 0.0948039 0.0988874 ) 0 
( 0.195262 0.0658765 0.0994988 ) 0 
( 0.137031 0.0704701 0.0995002 ) 0 
( 0.120007 0.095333 0.0971929 ) 0 
( 0.139082 0.0336211 0.0992095 ) 0 
( 0.187403 0.0850846 0.0888997 ) 0 
( 0.152391 0.0633166 0.0960719 ) 0 
( 0.166134 0.0213381 0.0895084 ) 0 
( 0.121648 0.0338686 0.0895709 ) 0 
( 0.144621 0.0548614 0.0958168 ) 0 
( 0.167357 0.00330511 0.0935673 ) 0 
( 0.106744 0.0176542 0.0995002 ) 0 
( 0.114326 0.0875416 0.0887569 ) 0 
( 0.136993 0.0205434 0.0990238 ) 0 
( 0.157806 0.0486288 0.0885814 ) 0 
( 0.148499 0.0598598 0.0986219 ) 0 
( 0.191821 0.0445249 0.089632 ) 0 
( 0.189728 0.0636543 0.0914273 ) 0 
( 0.12713 0.0642214 0.0994096 ) 0 
( 0.184117 0.0587693 0.090968 ) 0 
( 0.150374 0.0301615 0.0888239 ) 0 
( 0.120714 0.0485395 0.0880165 ) 0 
( 0.108561 0.0801351 0.0896557 ) 0 
( 0.104848 0.0676853 0.0995013 ) 0 
( 0.177883 0.0824369 0.0873397 ) 0 
( 0.116534 0.0894226 0.0900269 ) 0 
( 0.141992 0.056328 0.0892963 ) 0 
( 0.128568 0.0276661 0.0994662 ) 0 
( 0.104492 0.07621 0.0976676 ) 0 
( 0.178714 0.0553423 0.0917271 ) 0 
( 0.163449 0.0977686 0.0965345 ) 0 
( 0.140395 0.0452398 0.0927732 ) 0 
( 0.190005 0.079626 0.0990211 ) 0 
( 0.165149 0.060862 0.0889764 ) 0 
( 0.171765 0.0637956 0.0887155 ) 0 
( 0.101692 0.0232342 0.0995002 ) 0 
( 0.123307 0.0300649 0.089334 ) 0 
( 0.123228 0.0887974 0.0889491 ) 0 
( 0.194321 0.0464886 0.0908616 ) 0 
( 0.106872 0.034251 0.0959392 ) 0 
( 0.137456 0.0366719 0.0995002 ) 0 
( 0.108434 0.0560444 0.0906418 ) 0 
( 0.160587 0.088916 0.0887016 ) 0 
( 0.149228 0.055017 0.0991418 ) 0 
( 0.103635 0.0656555 0.0990477 ) 0 
( 0.144615 0.0417346 0.089902 ) 0 
( 0.0940156 0.0728924 0.0990366 ) 0 
( 0.133758 0.00501677 0.0888046 ) 0 
( 0.108566 0.0725293 0.0882419 ) 0 
( 0.10348 0.0618177 0.0991204 ) 0 
( 0.100547 0.0676536 0.0953689 ) 0 
( 0.150236 0.00640563 0.0965393 ) 0 
( 0.111971 0.0177215 0.0931385 ) 0 
( 0.16991 0.00329854 0.0906523 ) 0 
( 0.185423 0.089675 0.0994128 ) 0 
( 0.109386 0.0505981 0.08931 ) 0 
( 0.116032 0.0129397 0.0990187 ) 0 
( 0.131914 0.0855492 0.0900841 ) 0 
( 0.195595 0.0721903 0.088676 ) 0 
( 0.153946 0.00317859 0.089168 ) 0 
( 0.140922 0.0784088 0.089025 ) 0 
( 0.192084 0.0818203 0.0938526 ) 0 
( 0.19912 0.0905956 0.0918088 ) 0 
( 0.125815 0.0232561 0.0990684 ) 0 
( 0.133206 0.06631 0.0990324 ) 0 
( 0.148393 0.00884039 0.0990742 ) 0 
( 0.119572 0.0369642 0.0966247 ) 0 
( 0.128383 0.0164214 0.0995002 ) 0 
( 0.100574 0.038126 0.0995005 ) 0 
( 0.14512 0.0396979 0.0892669 ) 0 
( 0.102333 0.057896 0.0947358 ) 0 
( 0.193791 0.0548488 0.0927762 ) 0 
( 0.177443 0.0569211 0.0990135 ) 0 
( 0.16939 0.0350692 0.0889175 ) 0 
( 0.130907 0.00595841 0.0925894 ) 0 
( 0.167596 0.0640433 0.099013 ) 0 
( 0.101984 0.0131654 0.0991305 ) 0 
( 0.145834 0.0436014 0.0994797 ) 0 
( 0.160757 0.0590974 0.0929577 ) 0 
( 0.147251 0.0372582 0.0995002 ) 0 
( 0.194958 0.0444327 0.0993794 ) 0 
( 0.183946 0.0753267 0.0888463 ) 0 
( 0.150575 0.0214674 0.0893293 ) 0 
( 0.132128 0.0605393 0.099469 ) 0 
( 0.14334 0.0544395 0.0987578 ) 0 
( 0.196932 0.0304993 0.089437 ) 0 
( 0.189453 0.0411871 0.0897527 ) 0 
( 0.103875 0.0209402 0.0911744 ) 0 
( 0.174326 0.0371635 0.0887125 ) 0 
( 0.192493 0.0362547 0.0905716 ) 0 
( 0.112051 0.0468558 0.0889304 ) 0 
( 0.12046 0.0686441 0.0892934 ) 0 
( 0.15558 0.095322 0.0990398 ) 0 
( 0.103842 0.0464496 0.0990684 ) 0 
( 0.198404 0.0510728 0.0993652 ) 0 
( 0.160825 0.070302 0.0995045 ) 0 
( 0.136762 0.0333415 0.0990691 ) 0 
( 0.130818 0.05524 0.089678 ) 0 
( 0.177935 0.0351739 0.0992359 ) 0 
( 0.185012 0.0834997 0.099348 ) 0 
( 0.114091 0.0124507 0.0967724 ) 0 
( 0.196919 0.0192257 0.0888205 ) 0 
( 0.170174 0.0316101 0.0971465 ) 0 
( 0.174827 0.090709 0.0919962 ) 0 
( 0.129441 0.092745 0.0994193 ) 0 
( 0.177423 0.0445486 0.0894799 ) 0 
( 0.19028 0.0265656 0.0995002 ) 0 
( 0.198716 0.00302211 0.0995002 ) 0 
( 0.108247 0.00226036 0.0995002 ) 0 
( 0.194241 0.00881811 0.0888249 ) 0 
( 0.154185 0.0875429 0.0910499 ) 0 
( 0.193626 0.0445985 0.0993808 ) 0 
( 0.153595 0.0417789 0.0989925 ) 0 
( 0.145067 0.0288981 0.0995002 ) 0 
( 0.183464 0.0793914 0.0908778 ) 0 
( 0.200547 0.0719353 0.0960138 ) 0 
( 0.168886 0.0724951 0.0893041 ) 0 
( 0.127634 0.0506759 0.0890816 ) 0 
( 0.110915 0.0956812 0.0889226 ) 0 
( 0.159264 0.0251828 0.0937323 ) 0 
( 0.162788 0.0137896 0.0979461 ) 0 
( 0.176265 0.0665951 0.0965611 ) 0 
( 0.127385 0.0469617 0.0994977 ) 0 
( 0.143016 0.0521152 0.0995002 ) 0 
( 0.124405 0.0407712 0.0918794 ) 0 
( 0.185024 0.0566077 0.0995002 ) 0 
( 0.143354 0.036692 0.0994878 ) 0 
( 0.173925 0.026452 0.0991108 ) 0 
( 0.199237 0.0723396 0.0888453 ) 0 
( 0.149328 0.00983526 0.0893054 ) 0 
( 0.191718 0.00447203 0.0979005 ) 0 
( 0.130757 0.00384598 0.0907579 ) 0 
( 0.122178 0.0533082 0.0943907 ) 0 
( 0.151475 0.0239862 0.090251 ) 0 
( 0.124753 0.0168972 0.0995002 ) 0 
( 0.169844 0.0982761 0.0885967 ) 0 
( 0.119295 0.0887006 0.0953064 ) 0 
( 0.18736 0.0209113 0.0944097 ) 0 
( 0.136005 0.0181767 0.0995002 ) 0 
( 0.130431 0.0537247 0.0946345 ) 0 
( 0.125072 0.0748332 0.08901 ) 0 
( 0.192125 0.0207285 0.0993819 ) 0 
( 0.121259 0.0292283 0.0922227 ) 0 
( 0.182654 0.0451924 0.0937946 ) 0 
( 0.136875 0.0524438 0.0890524 ) 0 
( 0.105747 0.0648408 0.0991412 ) 0 
( 0.158269 0.0155287 0.0995002 ) 0 
( 0.183096 0.090409 0.0893564 ) 0 
( 0.152801 0.00809685 0.099374 ) 0 
( 0.131634 0.0533218 0.0992404 ) 0 
( 0.10795 0.0877357 0.0989867 ) 0 
( 0.167647 0.0165869 0.0990368 ) 0 
( 0.152062 0.0810661 0.0990667 ) 0 
( 0.145685 0.0233333 0.0966728 ) 0 
( 0.112675 0.0125767 0.0990547 ) 0 
( 0.115405 0.020534 0.0886248 ) 0 
( 0.188485 0.0518331 0.0969081 ) 0 
( 0.164277 0.0856778 0.0995002 ) 0 
( 0.116242 0.0839248 0.0892352 ) 0 
( 0.126459 0.0814896 0.0995002 ) 0 
( 0.18121 0.0856244 0.0995002 ) 0 
( 0.131004 0.0812704 0.0890645 ) 0 
( 0.144755 0.0521066 0.0995002 ) 0 
( 0.176324 0.075833 0.0901917 ) 0 
( 0.186563 0.0660874 0.0896139 ) 0 
( 0.138616 0.0244728 0.0885404 ) 0 
( 0.144153 0.0693933 0.0995002 ) 0 
( 0.105912 0.0434974 0.0955521 ) 0 
( 0.146322 0.0724796 0.0986936 ) 0 
( 0.12734 0.0932229 0.0995002 ) 0 
( 0.164477 0.0694601 0.0889877 ) 0 
( 0.109282 0.0980346 0.0994148 ) 0 
( 0.117846 0.0112261 0.0990504 ) 0 
( 0.181591 0.0823524 0.0995002 ) 0 
( 0.180092 0.0853254 0.0977998 ) 0 
( 0.126974 0.0406667 0.0994711 ) 0 
( 0.14356 0.00741092 0.0955972 ) 0 
( 0.173804 0.0386185 0.0974149 ) 0 
( 0.138321 0.0846705 0.0982678 ) 0 
( 0.104229 0.0599079 0.0991165 ) 0 
( 0.100908 0.0218455 0.0954999 ) 0 
( 0.192643 0.0263324 0.099246 ) 0 
( 0.109923 0.00946238 0.0900755 ) 0 
( 0.113244 0.0759084 0.0995002 ) 0 
( 0.167113 0.0785162 0.0891025 ) 0 
( 0.163564 0.0184453 0.0875196 ) 0 
( 0.112417 0.00580366 0.0925781 ) 0 
( 0.103533 0.0522504 0.0990622 ) 0 
( 0.187092 0.052573 0.0995002 ) 0 
( 0.181343 0.032344 0.0892044 ) 0 
( 0.173644 0.00644855 0.09896 ) 0 
( 0.136595 0.0560079 0.0901417 ) 0 
( 0.19744 0.0816514 0.0888801 ) 0 
( 0.158177 0.0527977 0.0991444 ) 0 
( 0.114816 0.0794521 0.094727 ) 0 
( 0.155404 0.0696498 0.0886816 ) 0 
( 0.153878 0.0558555 0.0969817 ) 0 
( 0.191915 0.0991542 0.0994744 ) 0 
( 0.110333 0.0775127 0.0959791 ) 0 
( 0.132325 0.0315492 0.0995002 ) 0 
( 0.191975 0.0133155 0.0995002 ) 0 
( 0.112575 0.0540977 0.0895529 ) 0 
( 0.116647 0.0863451 0.0891397 ) 0 
( 0.186414 0.048973 0.0995002 ) 0 
( 0.136525 0.0041568 0.0986574 ) 0 
( 0.114287 0.014618 0.0994931 ) 0 
( 0.137399 0.0458785 0.0993035 ) 0 
( 0.154555 0.0978335 0.0995002 ) 0 
( 0.194409 0.020324 0.0994662 ) 0 
( 0.178846 0.0611004 0.0966828 ) 0 
( 0.154879 0.0378825 0.0995002 ) 0 
( 0.135706 0.095418 0.0995002 ) 0 
( 0.131482 0.0156897 0.0995002 ) 0 
( 0.156023 0.0727157 0.0896376 ) 0 
( 0.156424 0.00906751 0.0995002 ) 0 
( 0.102349 0.0413855 0.0990824 ) 0 
( 0.105969 0.0392549 0.095828 ) 0 
( 0.142657 0.0332794 0.0897596 ) 0 
( 0.145501 0.0314929 0.0891713 ) 0 
( 0.193418 0.0747728 0.089105 ) 0 
( 0.125688 0.0330824 0.0890188 ) 0 
( 0.176597 0.0719945 0.0889686 ) 0 
( 0.181384 0.029996 0.0926706 ) 0 
( 0.13879 0.0295884 0.0995002 ) 0 
( 0.121215 0.0695508 0.0923055 ) 0 
( 0.194209 0.028027 0.094448 ) 0 
( 0.156882 0.000908526 0.0993212 ) 0 
( 0.14912 0.0903263 0.0881811 ) 0 
( 0.180932 0.000856838 0.0894893 ) 0 
( 0.117608 0.0311744 0.0928225 ) 0 
( 0.171045 0.0985148 0.0904583 ) 0 
( 0.186977 0.0138749 0.0995002 ) 0 
( 0.166803 0.0570248 0.0885688 ) 0 
( 0.105367 0.0152054 0.0948617 ) 0 
( 0.178436 0.01386 0.0917029 ) 0 
( 0.198011 0.0642907 0.0910168 ) 0 
( 0.184126 0.0109859 0.0908762 ) 0 
( 0.169406 0.0083073 0.0890838 ) 0 
( 0.101693 0.0286892 0.0990683 ) 0 
( 0.283166 0.0394524 0.0990569 ) 0 
( 0.238813 0.0961686 0.0891752 ) 0 
( 0.298579 0.0186144 0.0931997 ) 0 
( 0.238225 0.0523356 0.0892991 ) 0 
( 0.21522 0.0233915 0.0921088 ) 0 
( 0.20571 0.0657525 0.0894451 ) 0 
( 0.280465 0.0429022 0.0963564 ) 0 
( 0.268723 0.0267755 0.0888793 ) 0 
( 0.241366 0.0459483 0.0934353 ) 0 
( 0.212839 0.0659059 0.0992937 ) 0 
( 0.276694 0.0707849 0.0993445 ) 0 
( 0.280583 0.0230888 0.0952662 ) 0 
( 0.226753 0.0419784 0.0908897 ) 0 
( 0.226995 0.0222317 0.092246 ) 0 
( 0.215235 0.0570252 0.0878929 ) 0 
( 0.215436 0.025025 0.0995002 ) 0 
( 0.264795 0.0203151 0.0914819 ) 0 
( 0.218993 0.0210351 0.0902839 ) 0 
( 0.272021 0.0130401 0.0972669 ) 0 
( 0.259592 0.090767 0.089013 ) 0 
( 0.270109 0.0297978 0.0889836 ) 0 
( 0.243813 0.0724005 0.0902072 ) 0 
( 0.207953 0.040352 0.0995002 ) 0 
( 0.204377 0.00314162 0.0889612 ) 0 
( 0.247831 0.0721037 0.0935496 ) 0 
( 0.291231 0.098828 0.0991683 ) 0 
( 0.284116 0.00577002 0.0990666 ) 0 
( 0.221643 0.0948513 0.0988865 ) 0 
( 0.208936 0.0876812 0.0967612 ) 0 
( 0.218991 0.0844789 0.0904679 ) 0 
( 0.215127 0.0041389 0.0962667 ) 0 
( 0.22313 0.0500692 0.0889692 ) 0 
( 0.238267 0.090725 0.0994712 ) 0 
( 0.229836 0.0957675 0.0986482 ) 0 
( 0.251652 0.061566 0.0916871 ) 0 
( 0.269159 0.0564795 0.0927966 ) 0 
( 0.272018 0.0111748 0.0890152 ) 0 
( 0.23974 0.00725309 0.0894076 ) 0 
( 0.292996 0.0882029 0.0892814 ) 0 
( 0.259689 0.0961945 0.0908913 ) 0 
( 0.282467 0.0240818 0.0913418 ) 0 
( 0.221011 0.0296729 0.0874543 ) 0 
( 0.245019 0.0415785 0.0887646 ) 0 
( 0.217575 0.058307 0.0994844 ) 0 
( 0.207719 0.0364615 0.0889842 ) 0 
( 0.267492 0.00497561 0.0892716 ) 0 
( 0.277589 0.0988172 0.0888605 ) 0 
( 0.279214 0.0123505 0.0990294 ) 0 
( 0.223885 0.0402099 0.0890729 ) 0 
( 0.224025 0.0728743 0.0995002 ) 0 
( 0.280933 0.0136475 0.0989935 ) 0 
( 0.24041 0.0714732 0.094494 ) 0 
( 0.262606 0.0161907 0.0890278 ) 0 
( 0.245158 0.0671146 0.0995002 ) 0 
( 0.269154 0.06054 0.0995002 ) 0 
( 0.239125 0.0460508 0.0989911 ) 0 
( 0.28649 0.0314035 0.0995002 ) 0 
( 0.275751 0.00650381 0.0889323 ) 0 
( 0.210351 0.0548398 0.0995002 ) 0 
( 0.282347 0.010746 0.0889541 ) 0 
( 0.225166 0.0456406 0.099392 ) 0 
( 0.213413 0.0304184 0.092435 ) 0 
( 0.29018 0.0518845 0.0888897 ) 0 
( 0.245844 0.0713301 0.0929912 ) 0 
( 0.216902 0.00763576 0.090093 ) 0 
( 0.287048 0.0260639 0.0942575 ) 0 
( 0.264717 0.0350825 0.095711 ) 0 
( 0.228313 0.0236472 0.0917939 ) 0 
( 0.290154 0.00690776 0.0995002 ) 0 
( 0.229039 0.0110826 0.0991769 ) 0 
( 0.280419 0.0844688 0.0993263 ) 0 
( 0.2153 0.0645815 0.0992686 ) 0 
( 0.29033 0.0808565 0.0957019 ) 0 
( 0.21228 0.0106404 0.0896499 ) 0 
( 0.268655 0.0902388 0.0995002 ) 0 
( 0.243213 0.0311338 0.0990294 ) 0 
( 0.239596 0.0617333 0.0946414 ) 0 
( 0.233764 0.0662412 0.0889951 ) 0 
( 0.266086 0.0801201 0.0991028 ) 0 
( 0.26298 0.0760919 0.0990285 ) 0 
( 0.25252 0.0801614 0.09903 ) 0 
( 0.263009 0.0950814 0.0898682 ) 0 
( 0.240932 0.0798333 0.097016 ) 0 
( 0.267231 0.0536625 0.0884666 ) 0 
( 0.207643 0.073294 0.0944647 ) 0 
( 0.295549 0.0885289 0.0891057 ) 0 
( 0.212989 0.052684 0.0967024 ) 0 
( 0.260503 0.0586471 0.0994082 ) 0 
( 0.231602 0.0409262 0.0919644 ) 0 
( 0.270315 0.0826205 0.0892242 ) 0 
( 0.264179 0.0532914 0.0995002 ) 0 
( 0.206891 0.0121259 0.0995002 ) 0 
( 0.202061 0.0390563 0.0886808 ) 0 
( 0.275979 0.0846674 0.0892758 ) 0 
( 0.201132 0.0221993 0.0893093 ) 0 
( 0.255305 0.0940803 0.089054 ) 0 
( 0.290635 0.0752223 0.0976097 ) 0 
( 0.213839 0.0887187 0.0995002 ) 0 
( 0.214758 0.0098199 0.0913243 ) 0 
( 0.249338 0.0185247 0.0932257 ) 0 
( 0.236214 0.0540441 0.0873231 ) 0 
( 0.248363 0.0406581 0.0923567 ) 0 
( 0.218928 0.0943699 0.0989908 ) 0 
( 0.298265 0.0383269 0.0971992 ) 0 
( 0.278585 0.0813021 0.0916737 ) 0 
( 0.2792 0.0214675 0.0891889 ) 0 
( 0.281753 0.00356923 0.0995006 ) 0 
( 0.217234 0.04822 0.0907629 ) 0 
( 0.20765 0.0831575 0.0902196 ) 0 
( 0.284925 0.0252902 0.0933663 ) 0 
( 0.267272 0.0430138 0.0898905 ) 0 
( 0.277792 0.0521039 0.0884206 ) 0 
( 0.252042 0.00655188 0.0890428 ) 0 
( 0.247997 0.0637742 0.0944942 ) 0 
( 0.266233 0.0849119 0.0893077 ) 0 
( 0.264465 0.0517753 0.0995002 ) 0 
( 0.231175 0.0631884 0.0883887 ) 0 
( 0.279302 0.0187356 0.0995002 ) 0 
( 0.224789 0.013607 0.0995002 ) 0 
( 0.264225 0.0896094 0.0992061 ) 0 
( 0.223856 0.0138813 0.0989337 ) 0 
( 0.222859 0.078723 0.0995002 ) 0 
( 0.258168 0.024543 0.0995002 ) 0 
( 0.232608 0.0504152 0.0892766 ) 0 
( 0.261736 0.0260016 0.0888632 ) 0 
( 0.284047 0.0760233 0.0892437 ) 0 
( 0.252395 0.0629776 0.0995002 ) 0 
( 0.207778 0.0155944 0.0995002 ) 0 
( 0.261934 0.0986833 0.0991618 ) 0 
( 0.240594 0.0254917 0.0916031 ) 0 
( 0.28449 0.0941795 0.0989955 ) 0 
( 0.242 0.0893504 0.0890381 ) 0 
( 0.225548 0.0663634 0.0991515 ) 0 
( 0.288117 0.0794384 0.0890106 ) 0 
( 0.275935 0.0500867 0.0883548 ) 0 
( 0.212272 0.058412 0.0906011 ) 0 
( 0.21174 0.000515818 0.0991998 ) 0 
( 0.233766 0.0804172 0.0990624 ) 0 
( 0.248982 0.0306222 0.0993766 ) 0 
( 0.221718 0.00858352 0.0966424 ) 0 
( 0.222256 0.0638834 0.0993786 ) 0 
( 0.25808 0.070165 0.0982253 ) 0 
( 0.259423 0.0982733 0.099321 ) 0 
( 0.219336 0.0762849 0.0890962 ) 0 
( 0.209727 0.0401533 0.0994905 ) 0 
( 0.207738 0.0235845 0.0995002 ) 0 
( 0.242106 0.0598013 0.0993335 ) 0 
( 0.269651 0.00798974 0.0994715 ) 0 
( 0.23926 0.0496227 0.0884406 ) 0 
( 0.29734 0.08287 0.0995002 ) 0 
( 0.204204 0.0489257 0.0995002 ) 0 
( 0.276442 0.0567929 0.0889289 ) 0 
( 0.29837 0.0959234 0.0994866 ) 0 
( 0.257385 0.0487643 0.0994052 ) 0 
( 0.261024 0.00817066 0.089074 ) 0 
( 0.262974 0.0971137 0.0995002 ) 0 
( 0.212543 0.00408508 0.0966 ) 0 
( 0.28019 0.0537458 0.0877878 ) 0 
( 0.257132 0.0134125 0.0892369 ) 0 
( 0.280796 0.0330653 0.0904067 ) 0 
( 0.210224 0.00973296 0.0994668 ) 0 
( 0.215669 0.0302593 0.0994868 ) 0 
( 0.236795 0.0232117 0.088838 ) 0 
( 0.246703 0.0347049 0.0995003 ) 0 
( 0.286272 0.0485019 0.0990451 ) 0 
( 0.245669 0.0620238 0.091067 ) 0 
( 0.272306 0.0875201 0.092599 ) 0 
( 0.296874 0.0665457 0.0910402 ) 0 
( 0.246464 0.0969284 0.0990504 ) 0 
( 0.26625 0.00176505 0.097335 ) 0 
( 0.231709 0.0271487 0.0995002 ) 0 
( 0.210248 0.0959927 0.0940571 ) 0 
( 0.261905 0.0406621 0.089139 ) 0 
( 0.244513 0.0194299 0.094523 ) 0 
( 0.221884 0.0909354 0.0942247 ) 0 
( 0.276536 0.0927741 0.0936359 ) 0 
( 0.279101 0.096925 0.0888028 ) 0 
( 0.281429 0.0965924 0.0904456 ) 0 
( 0.245551 0.0703272 0.0995002 ) 0 
( 0.204625 0.0227556 0.093648 ) 0 
( 0.238711 0.0191488 0.0899811 ) 0 
( 0.266695 0.0525936 0.0920331 ) 0 
( 0.22904 0.00395445 0.0971208 ) 0 
( 0.208364 0.00606225 0.0890251 ) 0 
( 0.24518 0.0330576 0.0995002 ) 0 
( 0.236128 0.0858135 0.0993697 ) 0 
( 0.2671 0.0441024 0.0895063 ) 0 
( 0.224047 0.021424 0.0989944 ) 0 
( 0.290667 0.0348677 0.0891349 ) 0 
( 0.253444 0.0175697 0.0995002 ) 0 
( 0.2318 0.0447193 0.0995002 ) 0 
( 0.209768 0.0681092 0.0995002 ) 0 
( 0.299138 0.0175603 0.0908389 ) 0 
( 0.280185 0.0770818 0.0887393 ) 0 
( 0.249628 0.0601803 0.0925652 ) 0 
( 0.244168 0.00282267 0.0908851 ) 0 
( 0.294377 0.0320015 0.093766 ) 0 
( 0.215828 0.0220281 0.0893297 ) 0 
( 0.247994 0.0919979 0.0891117 ) 0 
( 0.238379 0.0483564 0.0892175 ) 0 
( 0.26066 0.0977207 0.0995002 ) 0 
( 0.261926 0.0496311 0.0928545 ) 0 
( 0.221001 0.058933 0.0994987 ) 0 
( 0.195463 0.0373955 0.0979475 ) 0 
( 0.261947 0.0535379 0.0890494 ) 0 
( 0.218329 0.0331513 0.0995002 ) 0 
( 0.225895 0.0156658 0.0995002 ) 0 
( 0.240652 0.00377088 0.0990456 ) 0 
( 0.247263 0.0482097 0.0993546 ) 0 
( 0.209322 0.0802826 0.0889765 ) 0 
( 0.245649 0.0216581 0.0891382 ) 0 
( 0.299094 0.0767428 0.0890098 ) 0 
( 0.249417 0.0150044 0.0991169 ) 0 
( 0.217521 0.0767611 0.089181 ) 0 
( 0.256021 0.0512488 0.0905098 ) 0 
( 0.206587 0.0776207 0.0990995 ) 0 
( 0.219202 0.00270765 0.0891458 ) 0 
( 0.252517 0.0554017 0.0994937 ) 0 
( 0.235461 0.0784316 0.0995002 ) 0 
( 0.205582 0.0168326 0.0891465 ) 0 
( 0.278035 0.00398439 0.0992583 ) 0 
( 0.203408 0.0842096 0.0890538 ) 0 
( 0.206221 0.0983304 0.0903386 ) 0 
( 0.22607 0.0376728 0.0994422 ) 0 
( 0.285703 0.01099 0.089088 ) 0 
( 0.256473 0.0391737 0.0995002 ) 0 
( 0.207521 0.00521591 0.0994917 ) 0 
( 0.277762 0.0405871 0.092184 ) 0 
( 0.219702 0.0156952 0.0995002 ) 0 
( 0.298829 0.0202179 0.0894031 ) 0 
( 0.217752 0.084689 0.0984494 ) 0 
( 0.236107 0.0291044 0.0947428 ) 0 
( 0.275616 0.00326268 0.0914635 ) 0 
( 0.202513 0.0170864 0.0990874 ) 0 
( 0.265108 0.0409079 0.0920356 ) 0 
( 0.229574 0.0815705 0.0941503 ) 0 
( 0.276696 0.00743658 0.0994893 ) 0 
( 0.255866 0.0275216 0.0955427 ) 0 
( 0.234519 0.0566206 0.0891633 ) 0 
( 0.24 0.0825326 0.0901479 ) 0 
( 0.294047 0.0508376 0.0893474 ) 0 
( 0.281639 0.0640005 0.0952081 ) 0 
( 0.216145 0.0941492 0.0986765 ) 0 
( 0.247901 0.0462803 0.0992935 ) 0 
( 0.313979 0.0941757 0.0962241 ) 0 
( 0.240345 0.0586594 0.0995008 ) 0 
( 0.267379 0.0398197 0.0940444 ) 0 
( 0.263707 0.0108619 0.094511 ) 0 
( 0.310403 0.0413494 0.0966441 ) 0 
( 0.392197 0.053693 0.0895195 ) 0 
( 0.377592 0.0817634 0.0995002 ) 0 
( 0.311125 0.0240436 0.0894603 ) 0 
( 0.31903 0.033166 0.0889829 ) 0 
( 0.311123 0.0285933 0.0992391 ) 0 
( 0.311469 0.0336752 0.0991008 ) 0 
( 0.347663 0.0926762 0.0995002 ) 0 
( 0.350293 0.0702821 0.089732 ) 0 
( 0.386781 0.090352 0.0931336 ) 0 
( 0.317976 0.0857037 0.0984724 ) 0 
( 0.310631 0.0753889 0.0978547 ) 0 
( 0.314796 0.0846612 0.089408 ) 0 
( 0.343532 0.0432412 0.0946862 ) 0 
( 0.335162 0.0481739 0.0948966 ) 0 
( 0.387865 0.0173661 0.0990142 ) 0 
( 0.31796 0.0467372 0.0889219 ) 0 
( 0.304952 0.0924591 0.0975078 ) 0 
( 0.331766 0.0964495 0.090332 ) 0 
( 0.391014 0.0693603 0.0904509 ) 0 
( 0.374055 0.0382575 0.0995002 ) 0 
( 0.365979 0.0109324 0.0909869 ) 0 
( 0.373591 0.0605969 0.0931621 ) 0 
( 0.341396 0.00297813 0.0950948 ) 0 
( 0.380033 0.0217316 0.0912672 ) 0 
( 0.382765 0.00712656 0.0990669 ) 0 
( 0.331238 0.0909966 0.0991612 ) 0 
( 0.385532 0.0410737 0.0887135 ) 0 
( 0.369375 0.0155026 0.0949895 ) 0 
( 0.346155 0.024433 0.0931194 ) 0 
( 0.340522 0.0446235 0.0995 ) 0 
( 0.319099 0.0359169 0.0941835 ) 0 
( 0.308116 0.0598123 0.0989456 ) 0 
( 0.305981 0.0173638 0.0899466 ) 0 
( 0.331562 0.0434286 0.0986024 ) 0 
( 0.39476 0.0429969 0.0928789 ) 0 
( 0.333441 0.0452736 0.0888512 ) 0 
( 0.366153 0.0399128 0.0889855 ) 0 
( 0.362941 0.0250836 0.0991637 ) 0 
( 0.344001 0.0200778 0.0921807 ) 0 
( 0.331365 0.0580422 0.088801 ) 0 
( 0.314899 0.0161789 0.0890589 ) 0 
( 0.386218 0.0928214 0.0925199 ) 0 
( 0.394001 0.0696321 0.0891157 ) 0 
( 0.349614 0.0379172 0.0990899 ) 0 
( 0.345165 0.036988 0.0947874 ) 0 
( 0.350285 0.012061 0.0889711 ) 0 
( 0.363238 0.0461556 0.0901006 ) 0 
( 0.355002 0.0214912 0.0891032 ) 0 
( 0.356736 0.00146672 0.0946437 ) 0 
( 0.324459 0.050355 0.0889258 ) 0 
( 0.326738 0.0608639 0.0994809 ) 0 
( 0.376231 0.0939233 0.0942166 ) 0 
( 0.373954 0.00869542 0.0922827 ) 0 
( 0.377736 0.0972509 0.0995002 ) 0 
( 0.381935 0.0781848 0.094695 ) 0 
( 0.377993 0.024769 0.0995002 ) 0 
( 0.317699 0.0031856 0.0919923 ) 0 
( 0.323774 0.00778989 0.0899587 ) 0 
( 0.347862 0.0473521 0.0922306 ) 0 
( 0.376139 0.067945 0.0945616 ) 0 
( 0.361768 0.043045 0.0948358 ) 0 
( 0.316612 0.0862644 0.0930835 ) 0 
( 0.348731 0.0273585 0.0888417 ) 0 
( 0.32329 0.099019 0.0884285 ) 0 
( 0.379773 0.0361153 0.0995002 ) 0 
( 0.341443 0.0362545 0.0903857 ) 0 
( 0.321813 0.09755 0.0887546 ) 0 
( 0.294595 0.0515845 0.0995002 ) 0 
( 0.327492 0.0178781 0.0989612 ) 0 
( 0.34722 0.0966964 0.0990118 ) 0 
( 0.364278 0.000875857 0.0890201 ) 0 
( 0.326214 0.036616 0.0892972 ) 0 
( 0.323303 0.0374298 0.0994784 ) 0 
( 0.306929 0.0657591 0.0874507 ) 0 
( 0.385657 0.032876 0.0920234 ) 0 
( 0.388586 0.0798926 0.095708 ) 0 
( 0.325438 0.0306852 0.0893075 ) 0 