FoamFile
{version 2.0; format ascii;class vectorField; location 0;object  v;}
1000
(
( 0.0591683 2.4635e-07 -0.142258 )  
( 0.00366763 -1.43797e-10 0.0389016 )  
( 0.0151269 3.54585e-08 0.315279 )  
( 0.0591496 -1.06106e-07 -0.109004 )  
( 0.00226014 -2.4322e-08 0.0826274 )  
( 0.00234806 -2.39116e-10 -0.073864 )  
( 0.0592906 4.38406e-08 -0.0923704 )  
( 0.013302 8.55605e-08 0.318954 )  
( 0.00113392 1.72752e-08 -8.88139e-10 )  
( 0.0576772 -1.76987e-08 0.17669 )  
( 0.0107878 4.63284e-08 0.232535 )  
( 0.059238 7.54845e-08 0.0802229 )  
( 0.00114334 6.02253e-08 -1.46331e-09 )  
( 0.00115503 -2.61767e-08 1.11948e-07 )  
( 0.018037 1.25047e-07 0.221888 )  
( 0.0011417 1.67983e-09 -3.20541e-07 )  
( 0.00794709 -1.90686e-08 0.340248 )  
( 0.00114739 -2.53175e-08 0.000641801 )  
( 0.0037657 -2.44755e-08 -0.0120056 )  
( 0.0591694 3.37911e-07 -0.112562 )  
( 0.0590983 3.80251e-08 -0.0192384 )  
( 0.0239664 2.47608e-08 0.181208 )  
( 0.0195877 -5.22314e-08 -0.0188234 )  
( 0.0268783 2.6345e-07 0.279642 )  
( 0.00113157 3.37989e-09 -1.13885e-09 )  
( 0.0310484 2.11369e-07 0.262849 )  
( -0.0405735 -0.0357311 -5.42349e-10 )  
( 0.00262975 7.53217e-08 -0.0649013 )  
( 0.17131 -0.0072425 0.0854182 )  
( 0.00281854 7.32121e-08 -0.0601084 )  
( 0.0210372 3.40474e-08 -0.0281897 )  
( 0.0592252 8.73963e-08 -0.10693 )  
( -0.315142 -0.143182 0.00850955 )  
( 0.00312436 5.23866e-08 -0.0408491 )  
( 0.0590743 1.97293e-07 -0.0505454 )  
( 0.00533708 -2.37486e-08 0.161031 )  
( 0.00521563 2.66602e-08 -0.0301761 )  
( 0.0592761 3.87154e-07 -0.00741865 )  
( 0.0592492 4.54406e-07 -0.0542935 )  
( 0.054917 3.35567e-07 0.205619 )  
( 0.00137862 -1.68464e-08 -0.0255982 )  
( 0.0019054 4.76889e-08 -0.0200799 )  
( 0.00263976 1.20391e-07 0.078684 )  
( 0.0501308 1.06795e-07 0.0426104 )  
( 0.0409741 3.48619e-07 0.0170685 )  
( 0.00313745 1.00865e-07 0.0548787 )  
( 0.00218898 6.6949e-09 0.089798 )  
( 0.0591136 3.7432e-07 -0.138294 )  
( 0.0592512 1.23742e-07 -0.187362 )  
( 0.0405433 3.02337e-07 0.223888 )  
( 0.0592002 1.28172e-07 -0.0292451 )  
( 0.00114713 4.32975e-09 -9.45713e-10 )  
( 0.0330162 -2.75908e-08 0.113182 )  
( 0.00114388 6.46897e-08 -1.27766e-09 )  
( 0.0078179 3.92256e-08 0.336584 )  
( 0.0236005 3.98753e-07 0.290166 )  
( 0.00139445 5.50563e-08 0.0568894 )  
( 0.0591324 2.19675e-07 -0.188478 )  
( 0.0593584 2.81772e-07 0.150776 )  
( 0.0565909 4.69822e-07 0.147193 )  
( 0.0591596 1.59947e-07 0.0570654 )  
( 0.00368868 3.53192e-08 -0.027212 )  
( 0.0591521 3.16885e-07 -0.146111 )  
( 0.0526883 6.0701e-07 0.212624 )  
( 0.0592477 2.82188e-07 0.136327 )  
( -0.009598 -0.0282283 2.44319e-07 )  
( 0.00167241 7.51329e-08 0.0258241 )  
( 0.00357661 8.8102e-08 -0.0118234 )  
( 0.0292885 -9.69058e-09 0.274495 )  
( 0.0591799 3.42036e-07 -0.0370426 )  
( 0.0592296 4.3939e-08 -0.103633 )  
( 0.00601429 3.61904e-08 0.344068 )  
( 0.0337785 1.4732e-07 0.261773 )  
( 0.0017337 9.71291e-08 0.00959119 )  
( 0.0590189 -9.46755e-08 -0.0979905 )  
( 0.00333798 1.73876e-08 0.0397855 )  
( 0.0046282 7.84277e-09 0.235097 )  
( 0.059287 6.74258e-08 0.22583 )  
( 0.0592347 4.21665e-07 0.159046 )  
( 0.00946251 1.58322e-08 0.336758 )  
( 0.00298689 -3.67935e-09 0.0606536 )  
( 0.0591965 6.14047e-07 -0.161072 )  
( 0.0592322 4.25825e-07 -0.123468 )  
( 0.00264639 1.80519e-08 0.0588699 )  
( 0.00200394 2.61998e-08 0.0920804 )  
( 0.00291626 7.54703e-09 0.0609834 )  
( 0.00255514 4.18492e-08 0.079504 )  
( 0.00114035 3.6157e-08 -1.56132e-09 )  
( 0.0592375 3.77473e-07 -0.120242 )  
( 0.0591899 7.99537e-07 0.00120901 )  
( 0.00699304 8.72357e-08 0.360291 )  
( 0.00113901 2.45318e-08 -1.45212e-09 )  
( -0.0297251 0.00243163 0.0192918 )  
( 0.0592032 6.3068e-07 0.0405065 )  
( 0.000652656 4.49257e-08 -1.40181e-09 )  
( 0.0358468 2.31321e-07 0.12819 )  
( 0.0592247 4.49082e-07 -0.00193197 )  
( -0.000368273 -0.10636 4.66795e-09 )  
( 0.00215403 4.47754e-08 -0.0748792 )  
( 0.0592084 3.7771e-07 -0.172654 )  
( 0.0592101 4.48222e-07 -0.0537792 )  
( 0.00113057 1.07892e-08 1.57836e-06 )  
( 0.00408123 3.78638e-08 0.35309 )  
( 0.00114382 4.10937e-08 -2.40674e-10 )  
( 0.0491235 5.27924e-07 0.2248 )  
( 0.021589 0.288553 0.0405296 )  
( 0.00114329 2.80987e-09 -1.11094e-09 )  
( 0.0812869 -0.0177501 -3.78377e-07 )  
( 0.0592611 2.40766e-07 -0.0209895 )  
( 0.00953421 -0.161428 0.0126842 )  
( 0.00251345 2.16001e-08 0.0751944 )  
( 0.0591836 3.33981e-08 -0.122264 )  
( 0.0592487 4.88633e-07 0.0163951 )  
( 0.0592431 3.26242e-07 -0.0535446 )  
( 0.01859 -3.09158e-09 -0.164896 )  
( 0.0592075 5.15085e-07 -0.178517 )  
( 0.0073473 -0.14898 -5.78947e-07 )  
( 0.0447682 8.23341e-08 0.144776 )  
( 0.0591983 4.47086e-07 -0.182248 )  
( 0.0591601 2.91703e-07 0.0211608 )  
( 0.0158384 4.34216e-08 0.332266 )  
( 0.0593023 -4.11196e-07 -0.112362 )  
( 0.0592049 2.39268e-08 0.165076 )  
( 0.00367375 7.94038e-08 0.0340653 )  
( -0.079559 -0.107837 -0.00401102 )  
( 0.0354103 1.03357e-07 0.10942 )  
( 0.0479149 1.24202e-07 0.00176643 )  
( 0.0380944 2.40414e-08 0.0333977 )  
( 0.0200581 -9.91408e-09 0.150336 )  
( 0.00869835 1.46527e-07 0.354461 )  
( 0.0591042 1.80861e-08 0.103383 )  
( 0.0592379 -2.74176e-07 -0.0958812 )  
( 0.0509125 9.40475e-08 0.158887 )  
( 0.00971532 2.51337e-08 -0.0924497 )  
( 0.0591912 6.89338e-08 -0.0101566 )  
( 0.0578705 6.68602e-07 -0.162846 )  
( 0.0011538 2.52057e-08 -1.63871e-09 )  
( 0.00115079 2.44276e-08 -5.66951e-10 )  
( 0.0560013 1.28806e-07 -0.21928 )  
( 0.059303 6.03495e-07 0.0395262 )  
( 0.04567 2.6786e-07 0.0623622 )  
( 0.0592586 1.30822e-07 -0.0697994 )  
( 0.0125177 1.27585e-07 0.31974 )  
( 0.0011448 6.14137e-09 -5.48335e-10 )  
( 0.0518759 1.40601e-08 -0.00166614 )  
( 0.0591609 2.00052e-07 -0.027744 )  
( 0.059198 3.37015e-07 -0.21015 )  
( 0.0592283 8.32547e-07 0.0613251 )  
( -0.0594507 0.293417 -0.0259779 )  
( 0.00113666 1.51997e-08 1.17696e-07 )  
( 0.00115321 1.34321e-08 -1.03593e-09 )  
( 0.0499818 4.10052e-07 0.104223 )  
( 0.0521239 1.87825e-07 -0.0294054 )  
( 0.00358742 3.08076e-08 -0.00996895 )  
( 0.054034 6.92356e-08 -0.0683211 )  
( 0.0033076 -1.15412e-08 0.301522 )  
( 0.0592432 4.93474e-08 0.125639 )  
( 0.0011507 4.25626e-08 -8.88819e-10 )  
( 0.0591142 2.23219e-07 0.0901171 )  
( 0.0592466 3.31079e-07 0.137581 )  
( 0.0591963 5.74996e-08 0.0837671 )  
( 0.00975163 1.30162e-07 0.253393 )  
( 0.0591681 5.65687e-07 -0.00667797 )  
( 0.00113967 -1.16024e-08 -2.30353e-05 )  
( 0.057781 1.66682e-07 0.12907 )  
( 0.0113442 1.76696e-07 0.330702 )  
( 0.00295967 3.58127e-08 0.061979 )  
( 0.00367645 4.67574e-08 0.0170989 )  
( 0.059254 5.4264e-07 -0.0646499 )  
( 0.0343505 2.67313e-07 0.261697 )  
( 0.385042 -0.01133 -2.99259e-08 )  
( 0.00117949 -5.43706e-10 -0.00138543 )  
( 0.001154 -2.59082e-08 -1.78926e-09 )  
( 0.00214742 -2.87415e-08 0.0875814 )  
( 0.036855 -8.16251e-08 0.26713 )  
( 0.00351084 5.60677e-08 0.375317 )  
( 0.0592794 -1.61457e-08 0.161704 )  
( 0.0568993 -0.00105546 0.075138 )  
( 0.0592806 8.45492e-07 0.0941794 )  
( 0.148589 0.10562 -1.54712e-09 )  
( 0.0592427 2.16875e-08 0.0379176 )  
( 0.00173702 4.97205e-08 0.00712791 )  
( 0.00113716 2.57422e-08 -1.72818e-06 )  
( 0.0591874 1.74041e-07 0.0392653 )  
( 0.059201 5.35641e-08 -0.121443 )  
( 0.0507459 3.70565e-07 0.0785405 )  
( 0.00329456 -1.21535e-08 -0.0415734 )  
( 0.0591718 5.1318e-07 -0.0470624 )  
( 0.0592093 4.07552e-07 -0.156008 )  
( 0.0016308 6.25135e-08 0.0113852 )  
( 0.0591814 5.94009e-07 -0.092996 )  
( 0.0591052 2.05199e-07 0.184081 )  
( 0.0592359 4.45128e-07 -0.0794089 )  
( 0.0592147 4.95721e-07 0.0218622 )  
( 0.00424973 4.24351e-08 0.352361 )  
( 0.001146 6.45183e-08 -1.4728e-09 )  
( 0.0515159 2.42469e-07 -0.0490723 )  
( 0.0240825 -1.65674e-08 0.288579 )  
( 0.0504276 4.17894e-07 0.0898323 )  
( -0.0199824 -0.0157634 -1.41333e-09 )  
( 0.001144 -7.75704e-10 -9.59899e-10 )  
( 0.00114409 9.18154e-08 -1.276e-09 )  
( 0.0592919 6.44951e-07 -0.177361 )  
( -0.0507359 -0.0385075 -0.0882398 )  
( 0.0375073 3.4478e-07 0.207212 )  
( 0.00401579 4.75308e-08 0.000593806 )  
( 0.0592844 5.84037e-07 0.0723489 )  
( 0.00850142 2.42625e-08 0.308155 )  
( 0.0593234 1.01415e-07 0.0988228 )  
( 0.00114642 4.45192e-12 -1.19445e-09 )  
( 0.0514325 1.80948e-07 -0.0443026 )  
( 0.0395388 3.47575e-08 0.228142 )  
( 0.0592767 5.28231e-07 0.0446508 )  
( 0.00277682 -7.01704e-08 -0.0612572 )  
( 0.0351551 5.41858e-08 0.207844 )  
( 0.00207334 -2.08854e-08 -0.0823021 )  
( 0.00115123 -1.62467e-08 -1.7771e-09 )  
( 0.0336144 0.394612 0.139033 )  
( 0.059108 1.54088e-07 0.0125584 )  
( 0.00884514 -1.00169e-09 0.333162 )  
( 0.00114155 -3.89976e-10 -1.22496e-09 )  
( 0.00991614 -4.03679e-08 0.33796 )  
( 0.0592293 4.54702e-07 0.0426453 )  
( 0.058323 1.08946e-07 0.200156 )  
( -0.0714602 -0.154316 -0.0143266 )  
( 0.00114201 4.13335e-09 4.30987e-05 )  
( 0.0591341 1.3264e-07 -0.119511 )  
( 0.028466 4.20365e-08 -0.0984192 )  
( -0.432695 0.0197516 -0.017417 )  
( 0.05927 2.08638e-07 0.0141201 )  
( 0.165101 -0.0628432 0.223686 )  
( 0.00903902 0.00579656 -1.51632e-09 )  
( 0.00162586 3.37665e-08 -0.0898062 )  
( 0.0593331 3.68511e-07 0.141793 )  
( 0.00115535 7.93252e-09 -3.24399e-09 )  
( 0.0592816 -1.44323e-08 0.173218 )  
( 0.0485536 3.25038e-07 0.0840972 )  
( 0.0591673 1.38047e-07 0.0246891 )  
( 0.0138172 4.68273e-08 0.280451 )  
( 0.0127977 -8.48726e-08 0.256814 )  
( 0.00359744 -1.53735e-08 -0.00638513 )  
( 0.00169668 3.76503e-08 -0.00398766 )  
( 0.0290981 -8.66477e-08 0.296977 )  
( 0.0592892 2.28141e-07 0.0159635 )  
( -0.173305 0.00514789 -3.00084e-10 )  
( 0.0246137 -5.28883e-08 -0.136521 )  
( 0.0591994 4.42024e-07 0.00936169 )  
( 0.269894 -0.016874 0.0916467 )  
( 0.0591459 6.20672e-08 0.197988 )  
( 0.0356002 0.000323724 0.257986 )  
( 0.0531713 3.52569e-07 0.174167 )  
( 0.00114531 2.96009e-08 -1.53206e-09 )  
( 0.00114924 3.11936e-08 -1.20658e-09 )  
( 0.0591423 1.09626e-07 -0.14127 )  
( 0.0591578 1.08215e-07 -0.150592 )  
( 0.00978777 -1.78118e-08 0.309735 )  
( 0.0551268 2.46713e-07 0.0718706 )  
( 0.059183 2.07565e-09 0.123191 )  
( 0.00368909 -7.51601e-08 -0.00694201 )  
( 0.0592802 2.40419e-07 -0.0886915 )  
( -0.116473 0.181188 0.00909825 )  
( 0.0509194 -4.08875e-07 0.170595 )  
( 0.0024001 6.4343e-09 0.297253 )  
( 0.00631688 2.09219e-07 0.363035 )  
( 0.00130624 -6.97306e-09 -0.00376632 )  
( 0.00114404 7.64259e-09 -1.068e-09 )  
( 0.0189143 5.71668e-07 0.312185 )  
( 0.00250867 1.25668e-08 -0.063953 )  
( 0.0590146 1.42922e-07 -0.0763061 )  
( 0.0207327 -7.26555e-08 0.293569 )  
( 0.0591691 -1.53332e-07 0.0197628 )  
( 0.0592455 -1.4852e-07 0.0253858 )  
( 0.0335242 5.95079e-08 0.263149 )  
( 0.0206686 -1.50922e-08 0.200177 )  
( -0.141106 -0.0772913 9.2926e-12 )  
( 0.0590706 6.87432e-07 -0.11213 )  
( 0.00346677 -6.10213e-08 -0.0356512 )  
( 0.0591825 2.95847e-07 -0.182655 )  
( 0.00783011 1.3359e-08 0.338563 )  
( 0.0592554 3.59526e-07 0.0290404 )  
( 0.0467884 7.8166e-08 0.106754 )  
( 0.00151288 3.35081e-08 -0.0974255 )  
( 0.0593436 -9.71866e-08 0.0870585 )  
( 0.0591696 1.01277e-07 -0.0227564 )  
( 0.0591746 1.22215e-08 -0.205643 )  
( 0.0592039 5.87274e-07 0.0375562 )  
( 0.00122012 6.45005e-08 0.0154722 )  
( 0.0590664 1.51186e-07 -0.111469 )  
( 0.05912 9.62988e-07 0.0123386 )  
( 0.0592929 1.59924e-07 -0.156894 )  
( 0.00173988 -1.75174e-08 0.00326335 )  
( 0.0147256 2.20534e-07 0.316168 )  
( 0.0593338 -9.86406e-08 0.114127 )  
( 0.342671 0.172336 0.104211 )  
( 0.0565188 2.53576e-07 0.166373 )  
( 0.00347126 2.7039e-08 -0.0350542 )  
( 0.059151 -8.32926e-08 -0.138223 )  
( 0.059207 -7.29912e-08 -0.104882 )  
( 0.00115293 -7.70085e-09 -1.94011e-11 )  
( 0.0592764 -1.31558e-07 -0.186524 )  
( 0.0591144 8.02649e-07 -0.0622961 )  
( 0.0592953 2.49065e-07 0.0793891 )  
( 0.0319828 -1.55405e-07 0.271608 )  
( -0.157672 0.0245842 -1.73331e-09 )  
( 0.0593548 -1.07107e-08 0.098622 )  
( 0.0590379 1.48136e-07 -0.123634 )  
( 0.00281304 3.05304e-08 -0.0609792 )  
( 0.00334851 1.02159e-07 -0.0368727 )  
( 0.0592801 2.80109e-07 0.0567823 )  
( -0.129671 -0.0838475 0.129902 )  
( 0.0325234 -6.86614e-08 -0.0742295 )  
( 0.059229 6.02947e-07 -0.227168 )  
( 0.00297405 3.86722e-08 -0.0458563 )  
( 0.0389809 4.35626e-07 0.251102 )  
( 0.0252105 -6.08847e-08 0.290873 )  
( 0.0572203 -1.41681e-07 0.176687 )  
( 0.0205529 -1.63784e-08 0.0985623 )  
( 0.00149396 7.40807e-09 -0.0955322 )  
( 0.0592087 -1.05171e-07 -0.182096 )  
( 0.00377378 4.55646e-09 0.0225023 )  
( 0.0590978 2.86721e-07 0.0101948 )  
( 0.0592275 2.70987e-07 -0.189359 )  
( 0.0193941 -5.93638e-08 -0.0265213 )  
( 0.0591031 -2.51291e-07 -0.0676457 )  
( 0.0553611 2.25176e-07 0.228955 )  
( 0.0504229 2.49201e-07 0.124646 )  
( 0.00524042 -6.9038e-08 0.34806 )  
( 0.00349214 3.50522e-08 -0.021088 )  
( 0.00356452 -1.38008e-08 0.0422958 )  
( 0.0243417 -1.50381e-07 0.285026 )  
( 0.00114747 -3.63196e-08 -1.04661e-09 )  
( 0.00156323 -2.55552e-08 0.0228612 )  
( 0.0592832 2.47273e-07 -0.170513 )  
( 0.0415257 8.54704e-08 0.257349 )  
( 0.0592833 -1.55581e-07 0.159748 )  
( 0.00355028 -1.18635e-09 -0.0256764 )  
( 0.0591711 -4.03825e-08 -0.140164 )  
( 0.0538144 -1.05426e-07 0.155071 )  
( 0.00360768 -1.4766e-08 -0.0141543 )  
( 0.00291715 -3.58343e-09 -0.0488081 )  
( 0.0240201 -0.0228398 -0.0812393 )  
( 0.045012 1.02139e-07 0.198496 )  
( 0.00114964 2.96437e-08 -1.63116e-09 )  
( 0.00238507 5.79421e-08 0.0790034 )  
( 0.0591928 1.00129e-07 -0.083623 )  
( 0.0591743 -8.56766e-08 -0.1741 )  
( 0.00167151 5.88826e-08 -0.0102204 )  
( 0.00702975 4.04066e-08 0.343687 )  
( 0.0592677 6.17517e-07 -0.17743 )  
( 0.0592654 3.87845e-07 0.038662 )  
( 0.0593997 -1.7409e-07 0.127801 )  
( 0.0537989 5.43103e-08 -0.156231 )  
( 0.0591963 6.32138e-07 0.0660035 )  
( 0.0592044 -1.80322e-07 -0.158787 )  
( 0.059192 4.70908e-07 -0.187071 )  
( 0.00365893 1.24442e-08 0.0302042 )  
( 0.00361346 -4.06521e-08 0.0383657 )  
( 0.00245739 3.38254e-09 0.0823646 )  
( 0.00205009 -3.44737e-08 -0.131054 )  
( 0.00322851 2.37059e-08 -0.0433089 )  
( 0.0592645 8.90217e-07 -0.0355436 )  
( 0.00234235 8.80904e-09 -0.0726029 )  
( 0.00249707 1.36386e-08 0.0754539 )  
( 0.0139481 1.0964e-08 0.289457 )  
( 0.0591985 1.63013e-07 -0.0123045 )  
( 0.477863 -0.0713333 0.164005 )  
( 0.0502239 4.13598e-07 0.161686 )  
( 0.00344922 4.40487e-08 0.356162 )  
( 0.0592018 2.2888e-07 0.0211251 )  
( 0.00114571 3.5408e-08 -4.5318e-09 )  
( 0.0011439 -3.21552e-09 -1.20883e-09 )  
( 0.00113495 1.9965e-08 2.00665e-10 )  
( 0.0590417 3.65135e-08 -0.157463 )  
( 0.0589861 -8.98819e-08 0.07639 )  
( 0.00368033 6.91118e-08 0.359873 )  
( 0.00385346 8.00613e-08 0.0140871 )  
( 0.00114865 9.11857e-10 -1.78552e-09 )  
( 0.0592953 9.80888e-08 0.0652203 )  
( 0.37087 0.173734 0.00311526 )  
( 0.0592268 -5.98844e-08 -0.00109025 )  
( 0.0592276 4.23149e-07 -0.117064 )  
( 0.0173476 4.77912e-08 -0.0951539 )  
( 0.0386461 1.777e-08 0.19538 )  
( 0.0085777 -3.29049e-08 0.324092 )  
( 0.0252806 1.92974e-08 0.306285 )  
( 0.00145577 9.09392e-09 -0.000480406 )  
( 0.00115473 3.05365e-08 -3.9284e-10 )  
( 0.0515352 -9.7605e-08 0.137288 )  
( 0.19081 0.0212055 -1.28155e-09 )  
( 0.00147335 2.71192e-08 -0.0206306 )  
( 0.00342509 -3.18914e-08 0.046662 )  
( 0.0591977 3.30231e-07 -0.109872 )  
( 0.0537055 -1.12308e-07 -0.185033 )  
( 0.0127675 9.0468e-09 0.318861 )  
( 0.0262569 -5.30081e-08 0.104245 )  
( 0.0348904 1.0896e-07 0.224379 )  
( 0.0496132 -1.6571e-08 0.0760101 )  
( 0.00114918 -1.67261e-08 3.29159e-09 )  
( 0.00775467 1.41241e-07 -0.0120182 )  
( 0.393906 0.223987 0.0659364 )  
( 0.0400571 1.68569e-08 0.248501 )  
( 0.00114667 -3.45822e-08 -1.04874e-09 )  
( 0.0477256 9.18913e-07 0.225821 )  
( 0.0484483 3.21611e-07 -0.033714 )  
( 0.00238592 2.68801e-08 0.0823919 )  
( 0.0564003 -1.95791e-07 0.135338 )  
( 0.0497262 3.66832e-07 0.199711 )  
( 0.059253 5.00496e-07 -0.0207811 )  
( 0.00332307 9.44429e-08 0.0513379 )  
( 0.00114194 -5.17968e-09 -1.52063e-09 )  
( 0.0590022 1.03633e-07 -0.163311 )  
( 0.00241614 -2.28445e-08 0.0855748 )  
( 0.00292 9.33919e-08 0.0613537 )  
( 0.00379433 4.30844e-08 -0.00170521 )  
( 0.00364162 -3.53103e-08 0.0177135 )  
( 0.00356465 -4.11228e-08 0.0360533 )  
( 0.0240955 -1.13796e-07 0.310163 )  
( 0.00186699 1.16978e-08 0.0188587 )  
( 0.0593262 -5.7321e-08 -0.0885879 )  
( 0.0144623 -1.22842e-08 0.297456 )  
( 0.00113795 1.47715e-08 -1.60376e-05 )  
( 0.0591972 6.27963e-07 -0.0162352 )  
( 0.00114265 3.47708e-08 -1.63936e-09 )  
( 0.00114172 1.11278e-08 -2.75042e-06 )  
( 0.0591584 2.90574e-07 -0.110844 )  
( -0.41796 -0.0468601 -1.25321e-08 )  
( 0.0485527 5.05622e-08 0.0161476 )  
( 0.0592071 7.07131e-08 0.0400749 )  
( 0.0587829 -1.35197e-07 -0.0932841 )  
( 0.00114643 -4.3741e-08 -7.83084e-10 )  
( 0.0370517 -2.47374e-07 0.279194 )  
( 0.00736853 -9.81037e-08 0.345441 )  
( 0.00113726 2.47886e-08 -9.29479e-10 )  
( 0.059204 -9.6622e-08 -0.074373 )  
( 0.00150391 7.36722e-09 -0.0965186 )  
( 0.00364806 2.21398e-09 0.0315828 )  
( 0.0011443 9.74964e-09 -1.09515e-09 )  
( 0.0137195 2.96881e-08 0.326216 )  
( 0.00173577 -3.19999e-09 0.0100593 )  
( 0.0359891 -3.94717e-08 0.259855 )  
( 0.0100437 2.86104e-08 0.313422 )  
( -0.149625 -0.0826941 0.14413 )  
( 0.00298211 1.93813e-08 -0.0484478 )  
( 0.0277276 -1.76807e-07 0.267085 )  
( 0.00231785 6.53577e-08 -0.070161 )  
( 0.0556466 1.44226e-07 0.0637908 )  
( 0.00114484 6.06814e-08 -1.79456e-09 )  
( 0.0591958 9.86957e-08 -0.0328258 )  
( 0.0591167 -1.04914e-07 -0.153169 )  
( 0.045553 1.29668e-07 0.150782 )  
( 0.0033238 -7.57791e-09 -0.0297637 )  
( 0.00115153 8.00012e-09 -1.22108e-09 )  
( 0.0592226 6.93824e-08 -0.143517 )  
( 0.0039709 -5.16431e-09 0.0136065 )  
( 0.0592218 5.54493e-07 0.0122238 )  
( 0.059039 2.7469e-07 -0.0854978 )  
( 0.00282612 4.41434e-08 -0.0516158 )  
( 0.0403206 5.28827e-07 0.232482 )  
( 0.0591981 -3.81951e-07 -0.183258 )  
( 0.0210681 1.49575e-07 0.317067 )  
( 0.00170206 1.13456e-08 0.0137217 )  
( 0.0216931 2.77844e-07 0.26704 )  
( 0.268043 0.145002 -1.64882e-09 )  
( 0.00114118 7.14459e-09 -1.33892e-09 )  
( 0.0591453 2.6081e-09 -0.0375913 )  
( 0.0591419 6.54083e-07 -0.181499 )  
( 0.00115184 2.65123e-08 -1.2227e-09 )  
( 0.00753957 -2.21783e-08 0.337406 )  
( 0.0017072 7.44153e-09 0.0224166 )  
( 0.00271936 4.49136e-08 0.075459 )  
( 0.00112921 6.38373e-09 -2.28383e-08 )  
( 0.00175063 2.75706e-08 0.00948635 )  
( -0.149536 -0.0854026 0.0245821 )  
( 0.00114669 3.38339e-08 -1.52765e-09 )  
( 0.00112698 1.44805e-08 1.52956e-10 )  
( 0.00114591 -3.70204e-08 -1.04929e-09 )  
( 0.0592246 -3.25014e-07 0.0473667 )  
( 0.00113635 -1.51613e-08 -1.00896e-09 )  
( 0.00518186 -5.10793e-08 0.351351 )  
( 0.033404 -2.01693e-07 0.272593 )  
( 0.0592996 1.62115e-07 0.0149427 )  
( 0.0592748 1.3377e-07 -0.187904 )  
( 0.0591423 2.43876e-07 -0.13883 )  
( 0.0591975 1.69032e-08 -0.0782455 )  
( 0.0592085 5.4453e-08 -0.107497 )  
( 0.0592245 2.00196e-08 0.155042 )  
( 0.00115177 -4.63224e-09 -1.77135e-09 )  
( 0.0591613 5.04394e-07 0.13899 )  
( 0.0516606 8.66713e-07 0.220234 )  
( 0.00193301 -1.28659e-08 -0.086597 )  
( 0.0443418 -5.66902e-08 -0.114148 )  
( 0.00303766 7.06679e-09 -0.183272 )  
( 0.059344 -2.60862e-07 0.185424 )  
( 0.00630006 1.36138e-07 0.0889822 )  
( 0.0011368 -3.52903e-09 -1.02556e-09 )  
( 0.0591506 -6.81239e-08 -0.0855897 )  
( 0.0457896 -1.1791e-07 0.259477 )  
( 0.0539327 -9.51594e-08 0.149612 )  
( 0.048167 1.72297e-07 0.0751841 )  
( 0.0590044 2.88513e-08 0.110495 )  
( 0.0590318 -7.68141e-08 -0.0395398 )  
( 0.00362211 -2.61787e-08 0.0386289 )  
( 0.00354952 -1.08242e-08 0.0198398 )  
( 0.0161952 2.45593e-07 -0.15236 )  
( 0.0591468 -4.85737e-08 0.206728 )  
( 0.059281 6.49297e-08 -0.155953 )  
( 0.0456703 -5.56185e-07 0.135596 )  
( 0.0592542 3.97581e-07 -0.174863 )  
( 0.0272449 -1.22051e-07 0.278265 )  
( 0.0591567 -3.83948e-07 -0.0789294 )  
( 0.0466029 -6.53707e-08 0.216742 )  
( 0.00270696 2.94364e-08 0.0694058 )  
( 0.00250602 3.8602e-10 0.0765389 )  
( 0.0402446 2.20729e-07 0.245691 )  
( 0.0592101 -1.42735e-07 0.0659695 )  
( 0.0454286 -2.96806e-07 0.171988 )  
( 0.0591491 9.14833e-08 -0.0583698 )  
( 0.00114889 -2.60146e-08 -1.07121e-09 )  
( 0.0591285 2.97832e-07 0.101456 )  
( 0.0593342 -1.02574e-06 0.0835027 )  
( 0.0180836 7.63739e-08 0.324184 )  
( 0.0564461 4.00194e-08 -0.0358012 )  
( 0.0591716 -7.80249e-07 -0.107979 )  
( 0.0593219 1.67746e-07 0.0718073 )  
( -0.0154342 -0.253668 -1.58513e-09 )  
( 0.0191024 -1.89981e-08 -0.197448 )  
( 0.0375253 8.84772e-08 0.190125 )  
( -0.141137 0.0297064 0.207581 )  
( 0.00349584 1.88965e-08 0.0278151 )  
( 0.00620711 7.52528e-08 0.347521 )  
( 0.0229401 2.38717e-07 0.288925 )  
( 0.0592166 6.54523e-07 0.0877434 )  
( 0.0284987 -8.7172e-08 0.299808 )  
( 0.0591522 1.10126e-11 -0.102074 )  
( 0.202121 0.334698 0.213347 )  
( 0.0075827 1.92507e-08 0.3381 )  
( 0.0410874 -1.25849e-07 0.124847 )  
( 0.059373 -9.32562e-07 0.193015 )  
( 0.0590371 1.58791e-07 -0.0798654 )  
( 0.0369322 4.90257e-08 -0.1697 )  
( 0.0590969 1.7982e-07 -0.00236312 )  
( 0.0231049 1.13082e-08 0.112194 )  
( 0.0591533 2.461e-07 0.13529 )  
( 0.0591869 3.22967e-08 -0.140113 )  
( 0.0592982 -3.24861e-08 -0.127971 )  
( 0.00195771 1.5796e-08 -0.098277 )  
( 0.0591263 -1.29186e-07 -0.135481 )  
( 0.0400732 4.80409e-08 -0.00725109 )  
( 0.00463228 1.6717e-08 -0.0510044 )  
( 0.00356539 2.32089e-08 -0.000160091 )  
( 0.0591621 -2.88235e-08 -0.128936 )  
( 0.00114634 3.88429e-08 -1.40886e-09 )  
( 0.00369676 3.08173e-08 -0.0189115 )  
( 0.0357581 2.01505e-07 0.221523 )  
( 0.0590582 3.02576e-07 -0.06634 )  
( 0.00114652 2.57071e-08 -3.50908e-10 )  
( 0.00114043 -2.9002e-08 -1.2934e-09 )  
( 0.00384289 -2.37794e-08 0.00695771 )  
( 0.00114072 1.73846e-08 -8.90141e-10 )  
( 0.0282501 6.46052e-08 -0.126163 )  
( 0.00114392 7.53476e-09 -1.34247e-09 )  
( 0.0587294 1.01809e-07 -0.138268 )  
( 0.00233648 -1.98876e-08 0.081873 )  
( 0.0592207 2.6307e-07 0.145025 )  
( 0.0591517 9.47402e-08 -0.0340369 )  
( 0.0503933 1.44828e-07 0.170587 )  
( 0.0552356 -2.13262e-07 0.0640601 )  
( 0.0229508 1.00565e-07 0.243344 )  
( 0.202081 -0.413809 0.117699 )  
( 0.0522395 -2.26559e-07 0.121373 )  
( 0.00114274 7.23141e-09 -1.52021e-09 )  
( 0.0046415 -3.13705e-08 0.350035 )  
( 0.00195275 7.27302e-09 -0.0799601 )  
( 0.0322145 0.13039 -0.00811073 )  
( 0.0347776 1.33828e-07 0.25894 )  
( 0.0571777 -2.5313e-07 0.0485775 )  
( 0.0694281 0.308263 -7.31556e-10 )  
( 0.00545889 9.70911e-09 0.350443 )  
( 0.0262823 1.57167e-07 0.226406 )  
( 0.0592229 4.30387e-07 -0.0819264 )  
( 0.00344333 1.12312e-08 0.0444121 )  
( 0.00368271 -2.12954e-08 0.0253359 )  
( 0.00342927 -6.79003e-08 -0.0328665 )  
( 0.0238192 3.39624e-07 0.0561315 )  
( 0.0204616 -1.27699e-07 0.295762 )  
( 0.0592252 -4.5649e-07 -0.173687 )  
( 0.0450619 5.1489e-07 0.226036 )  
( 0.0591068 1.89515e-07 -0.150536 )  
( 0.0190986 3.16004e-08 0.293936 )  
( 0.00229738 -3.1295e-08 0.0875924 )  
( 0.0592951 -2.35629e-07 0.160304 )  
( 0.0591911 1.99035e-07 -0.171569 )  
( 0.00114372 -0.165284 -1.29301e-09 )  
( 0.00115164 -6.78844e-09 -1.57857e-09 )  
( 0.0592039 -4.67798e-07 -0.0608759 )  
( 0.0591595 2.316e-07 -0.153613 )  
( 0.0592458 1.51624e-07 -0.159577 )  
( 0.0489622 -8.63008e-08 -0.134135 )  
( 0.0151776 9.58375e-08 0.314736 )  
( 0.00114022 4.474e-08 -2.33238e-10 )  
( 0.0512473 -2.28362e-07 0.133959 )  
( 0.0591212 -3.98186e-07 0.177949 )  
( 0.0592481 1.99843e-08 -0.0890627 )  
( 0.0472877 2.95805e-08 0.141415 )  
( 0.00364148 6.29027e-08 -0.0246669 )  
( 0.0128335 5.98507e-08 0.301255 )  
( 0.0592782 6.59478e-08 0.148707 )  
( 0.0592546 1.717e-07 -0.155871 )  
( 0.00101501 8.15873e-09 -0.000274489 )  
( 0.0591486 -4.70933e-08 0.0697982 )  
( 0.0592285 4.91737e-07 0.0345434 )  
( 0.0368064 1.71792e-07 0.212665 )  
( 0.0592285 2.32063e-07 0.0512927 )  
( 0.0592142 -1.03898e-07 -0.140046 )  
( 0.0313049 1.17916e-07 -0.0635609 )  
( 0.0267985 9.96064e-08 0.231264 )  
( 0.0591714 1.96625e-07 -0.0807484 )  
( 0.0011499 -1.44856e-08 -1.2495e-06 )  
( 0.0592092 2.60643e-07 -0.158505 )  
( 0.00114916 2.32503e-08 7.92179e-05 )  
( 0.00114675 -4.27803e-08 -9.90251e-10 )  
( 0.0045002 1.62716e-07 0.353391 )  
( 0.115494 -0.219768 0.258226 )  
( 0.00114541 6.25245e-08 -9.67207e-10 )  
( 0.00114036 4.86853e-08 -1.52276e-09 )  
( 0.0592301 -7.96544e-08 0.0167954 )  
( 0.0550665 1.03833e-07 -0.139281 )  
( 0.0591795 9.57499e-08 -0.0155397 )  
( -0.0477255 0.110772 -9.87426e-10 )  
( 0.00115503 -4.97882e-09 -1.70816e-09 )  
( 0.00273557 1.29562e-08 -0.0564808 )  
( 0.0518857 -3.263e-07 0.116869 )  
( 0.0036449 2.20379e-08 -0.0221652 )  
( 0.0590828 5.16464e-07 -0.0974748 )  
( 0.0027581 6.0182e-08 -0.0607624 )  
( 0.0591484 1.58783e-07 -0.0365276 )  
( 0.0582885 -1.2732e-07 -0.158204 )  
( 0.0591461 1.15596e-07 0.0559624 )  
( 0.00167368 -6.48198e-09 -0.0620495 )  
( 0.0032415 7.8341e-08 -0.0419206 )  
( 0.00171695 2.59305e-08 -0.0904506 )  
( 0.0244201 -9.50236e-08 0.308454 )  
( -0.0953736 -0.16355 0.0186161 )  
( 0.0104454 2.25243e-08 0.333575 )  
( 0.00260174 -4.96524e-09 0.0719637 )  
( 0.0592261 5.47332e-07 -0.0445932 )  
( -0.0533654 -0.24123 0.00506497 )  
( -0.00741334 -0.00720873 -1.71998e-09 )  
( 0.00256888 4.80924e-08 0.0738855 )  
( 0.0016487 -1.22826e-08 -0.0103411 )  
( 0.0592731 -5.58924e-09 -0.14527 )  
( 0.00114604 2.46727e-08 -9.52697e-10 )  
( 0.00114402 -3.03022e-08 -1.58547e-09 )  
( 0.0591914 -1.49637e-07 -0.0638636 )  
( 0.00170542 1.64761e-08 0.0215984 )  
( 0.00231129 2.27306e-08 0.083662 )  
( 0.0388295 1.9223e-07 -0.0164666 )  
( 0.00114402 4.39264e-08 -1.26382e-07 )  
( 0.0246278 -5.61911e-08 0.285841 )  
( 0.0591827 -7.41141e-08 -0.187816 )  
( 0.0590763 3.24426e-07 -0.0129877 )  
( 0.0592209 2.28337e-07 0.0340099 )  
( 0.0020817 -1.57126e-08 0.0899279 )  
( 0.0570665 0.0467989 -0.0202687 )  
( 0.0591868 -2.61093e-07 -0.0540772 )  
( 0.00115024 3.71829e-09 -0.000241239 )  
( 0.00333308 -2.20046e-08 -0.0374166 )  
( 0.0591643 2.4333e-07 0.0813666 )  
( 0.0425834 5.54948e-07 0.187615 )  
( 0.059084 3.09218e-07 0.0824683 )  
( 0.00357785 7.5013e-08 0.0167495 )  
( 0.00812498 -6.86301e-09 0.326214 )  
( 0.00115066 -1.18231e-08 -3.00909e-06 )  
( 0.0280848 2.48469e-07 0.211034 )  
( 0.0591792 6.59972e-08 -0.129628 )  
( 0.00649875 -0.3957 0.0722952 )  
( 0.0367534 2.87727e-07 0.221599 )  
( 0.0538758 7.33084e-07 0.221917 )  
( 0.0184082 5.43423e-08 -0.0646191 )  
( 0.0216368 6.91196e-08 0.0361526 )  
( 0.00114247 1.74185e-08 4.78173e-10 )  
( 0.0489956 4.02518e-08 0.222088 )  
( 0.0591653 -5.27641e-07 0.0595812 )  
( 0.057345 -5.51861e-07 0.129843 )  
( 0.0195343 -8.53019e-08 0.311602 )  
( 0.044699 0.0027649 -0.0368204 )  
( 0.00115 4.06758e-09 -2.86778e-10 )  
( 0.00173084 3.28608e-08 -0.0894249 )  
( 0.0592263 2.05944e-07 0.0169849 )  
( 0.0036897 -1.35594e-07 -0.0182157 )  
( 0.0591195 1.78237e-07 -0.0314522 )  
( 0.00114029 5.44393e-08 -1.54278e-09 )  
( 0.0011496 -2.50242e-08 -6.80676e-10 )  
( 0.0101026 0.136883 -4.51702e-05 )  
( 0.0591164 -2.72768e-08 0.0848828 )  
( 0.059198 4.53078e-08 -0.0920285 )  
( 0.0402107 -2.19797e-08 0.186624 )  
( 0.0160842 9.97774e-08 0.113717 )  
( 0.0557937 2.37837e-07 0.202534 )  
( 0.0593037 -7.82683e-07 0.000987521 )  
( 0.0406887 3.60147e-07 -0.127854 )  
( 0.0586125 -5.66694e-08 -0.00512873 )  
( 0.00114312 -1.41554e-09 -1.5639e-09 )  
( 0.0277624 -4.16891e-08 0.195378 )  
( 0.00130259 1.78768e-08 -0.00398747 )  
( -0.2887 0.153435 0.259648 )  
( 0.0591866 -3.71123e-07 -0.104015 )  
( -0.0243266 0.154588 -1.25079e-09 )  
( 0.00114908 -2.33807e-08 -1.18505e-09 )  
( 0.00357523 3.83811e-08 0.0198624 )  
( 0.00126685 0.093491 0.0297518 )  
( 0.0592283 4.70236e-07 -0.125638 )  
( 0.0592212 -4.97064e-07 -0.130582 )  
( 0.0591854 2.40691e-07 -0.0771598 )  
( 0.00336563 -6.31154e-09 0.0410701 )  
( 0.0592458 5.69243e-07 -0.0187836 )  
( 0.0592673 -3.20251e-07 0.0919941 )  
( 0.00305026 5.92257e-08 -0.0496781 )  
( 0.0151639 -5.01021e-08 -0.13662 )  
( -0.179006 -0.237369 -0.0149486 )  
( 0.0011444 3.80735e-08 -6.96029e-10 )  
( 0.0592697 -6.43314e-08 -0.150097 )  
( 0.00420069 9.34958e-09 0.354635 )  
( 0.0591526 4.03137e-07 -0.107314 )  
( 0.00741676 7.11811e-08 0.0929936 )  
( 0.00173393 -2.8231e-08 -0.0990287 )  
( 0.0587267 7.83053e-08 -0.120279 )  
( 0.00114768 1.82189e-08 -1.31581e-09 )  
( 0.00311459 0.00115312 0.0947835 )  
( 0.0481749 -1.24092e-07 0.1697 )  
( 0.00115308 -5.65106e-08 -8.84729e-10 )  
( 0.0591445 5.32838e-08 -0.168893 )  
( 0.0090557 1.90585e-07 0.352737 )  
( 0.0380414 -6.27735e-08 0.256073 )  
( 0.0199963 2.45845e-08 0.0994496 )  
( 0.00312214 1.6191e-09 -0.0472062 )  
( 0.0513313 1.84849e-07 0.126987 )  
( 0.0553515 6.49369e-07 0.23786 )  
( 0.00168902 9.7827e-09 0.0221457 )  
( 0.0367512 3.0289e-07 0.259544 )  
( 0.059214 3.48812e-09 -0.0224101 )  
( 0.0590894 -7.12944e-09 0.0186412 )  
( 0.0591643 1.30226e-07 0.00459887 )  
( 0.0410731 3.0667e-09 0.255006 )  
( 0.00747517 9.13637e-08 0.344382 )  
( 0.0235101 -0.0268294 -0.0268479 )  
( 0.339606 -0.0641325 0.139849 )  
( 0.00120136 2.93697e-08 -0.0104033 )  
( 0.0477542 -1.12503e-07 0.209796 )  
( 0.0246065 9.43917e-08 0.249441 )  
( 0.0242381 1.96947e-08 0.289302 )  
( 0.059279 -7.31452e-08 -0.0477818 )  
( 0.0011504 5.63596e-08 -1.09631e-09 )  
( 0.0533124 1.65976e-07 -0.180523 )  
( 0.0592353 3.27017e-07 -0.0437522 )  
( 0.00233586 5.54507e-08 -0.0733009 )  
( 0.00348706 7.7895e-08 0.0450955 )  
( 0.025387 -0.00179042 -1.56488e-09 )  
( 0.0590792 3.03694e-07 0.0392066 )  
( 0.0398257 7.03096e-07 0.179438 )  
( 0.0676886 -0.0866826 0.260349 )  
( 0.0109612 5.95089e-08 0.318373 )  
( 0.059285 -6.18896e-08 -0.178733 )  
( 0.268745 -0.0941143 0.0389621 )  
( 0.026621 1.12036e-07 0.260756 )  
( 0.00352496 1.42059e-08 -0.0288392 )  
( 0.0592959 4.81163e-07 -0.106739 )  
( 0.0160187 8.11347e-08 0.309277 )  
( 0.0231649 -1.28175e-08 0.0278365 )  
( 0.0592808 4.3093e-07 0.0913062 )  
( 0.00114421 4.24324e-08 -1.50918e-09 )  
( 0.0590667 4.3184e-08 0.117702 )  
( 0.0336469 1.75069e-07 0.205639 )  
( 0.0174731 7.26626e-08 0.244373 )  
( 0.059276 2.60783e-07 0.130889 )  