FoamFile
{version 2.0; format ascii;class Cloud<passiveParticle>; location 0;object  positions;}
2522
(
( 0.011626 -0.00457471 0.00457051 ) 0 
( 0.00180117 -0.0132275 0.00346334 ) 0 
( 0.0048338 -0.00856978 0.00162253 ) 0 
( 0.00966533 -0.00118148 0.00634332 ) 0 
( 0.00452236 -0.00406113 0.00588025 ) 0 
( 0.00519406 -0.00422188 0.000723333 ) 0 
( 0.00816606 -0.00253319 0.0039705 ) 0 
( 0.00183858 -0.0122381 0.00199406 ) 0 
( 0.00994424 -0.00109277 0.00248205 ) 0 
( 0.0118979 -0.00194173 0.000499804 ) 0 
( 0.00167093 -0.00679864 0.00147789 ) 0 
( 0.010924 -0.00581775 0.00398665 ) 0 
( 0.00715314 -0.00896225 0.00224459 ) 0 
( 0.000590324 -0.00731478 0.00219698 ) 0 
( 0.00637434 -0.00372235 0.00633036 ) 0 
( 0.0098982 -0.00550497 0.00441416 ) 0 
( 0.00449202 -0.00958335 0.00655405 ) 0 
( 0.00163738 -0.00476471 0.00223243 ) 0 
( 0.00757551 -0.00400603 0.00571108 ) 0 
( 0.00834729 -0.00412463 0.00412405 ) 0 
( 0.00590832 -0.000600219 0.0036511 ) 0 
( 0.0014662 -0.00756094 0.0076767 ) 0 
( 0.0122984 -0.00368632 0.00525834 ) 0 
( 0.00900649 -0.00461968 0.00102342 ) 0 
( 0.00955224 -0.0048977 0.00278356 ) 0 
( 0.00307881 -0.00150447 0.00218857 ) 0 
( 0.00783294 -0.00650155 0.00327163 ) 0 
( 0.00182593 -0.00610393 0.00757936 ) 0 
( 0.00609036 -0.00462417 0.00665564 ) 0 
( 0.00284759 -0.0018146 0.000499768 ) 0 
( 0.00761589 -0.00141369 0.00124002 ) 0 
( 0.00979524 -0.00291152 0.000499715 ) 0 
( 0.00705635 -0.00196227 0.000499651 ) 0 
( 0.00249791 -0.00996082 0.00663662 ) 0 
( 0.00955009 -0.00695728 0.00634775 ) 0 
( 0.000219732 -0.0117977 0.00140522 ) 0 
( 0.00275418 -0.0114945 0.00163045 ) 0 
( 0.00330777 -0.00202711 0.00136754 ) 0 
( 0.0092812 -0.00263299 0.00503967 ) 0 
( 0.0017522 -0.00931015 0.0064969 ) 0 
( 0.0110262 -0.00240251 0.00482555 ) 0 
( 0.00255187 -0.00848905 0.000499867 ) 0 
( 0.00660163 -0.00105909 0.00596428 ) 0 
( 0.00757237 -0.0039058 0.00471642 ) 0 
( 0.0038309 -0.00864036 0.00141882 ) 0 
( 0.00129832 -0.000264194 0.00567916 ) 0 
( 0.00456369 -0.00745274 0.000499699 ) 0 
( 0.00621778 -0.010228 0.00176963 ) 0 
( 0.0120047 -0.00398321 0.000499645 ) 0 
( 0.00285107 -0.00242504 0.00587914 ) 0 
( 0.00546129 -0.00174993 0.000860727 ) 0 
( 0.00438461 -0.005708 0.00109875 ) 0 
( 0.00108079 -0.0123025 0.0013449 ) 0 
( 0.0102061 -0.000119665 0.00140198 ) 0 
( 0.00289709 -0.00900309 0.00138128 ) 0 
( 0.0103472 -0.0071497 0.00179901 ) 0 
( 0.00902598 -0.00576619 0.00678291 ) 0 
( 0.0129875 -0.0030819 0.00264472 ) 0 
( 0.00251774 -0.00450215 0.00183758 ) 0 
( 0.00680871 -0.00641488 0.00743981 ) 0 
( 0.00832345 -0.00487515 0.00246019 ) 0 
( 0.00110669 -0.00273728 0.00675262 ) 0 
( 0.00856296 -0.00695943 0.00126017 ) 0 
( 0.0103281 -0.00845858 0.00343027 ) 0 
( 0.00225715 -0.00721976 0.00492934 ) 0 
( 0.00454644 -0.0125524 0.0049454 ) 0 
( 0.00676054 -0.00455345 0.00591702 ) 0 
( 0.00907428 -0.0017074 0.00303488 ) 0 
( 0.0065107 -0.00373722 0.00125531 ) 0 
( 0.00931739 -3.56457e-05 0.00223763 ) 0 
( 0.00391327 -0.00860896 0.00300003 ) 0 
( 0.0121393 -0.00554358 0.00586743 ) 0 
( 0.00451111 -0.00640046 0.00268587 ) 0 
( 0.00320906 -0.000361931 0.00580439 ) 0 
( 0.0036428 -0.00584815 0.0035727 ) 0 
( 0.00516426 -0.00827134 0.0072563 ) 0 
( 0.00911388 -0.00975504 0.00520003 ) 0 
( 0.00664824 -0.00369156 0.00427539 ) 0 
( 0.00419513 -0.00392221 0.0046714 ) 0 
( 0.00320965 -0.0109517 0.0065082 ) 0 
( 0.00368002 -0.00608771 0.000499657 ) 0 
( 0.0045626 -0.00751002 0.00558976 ) 0 
( 0.0115432 -0.00172747 0.00655423 ) 0 
( 0.00588735 -0.00353703 0.000499675 ) 0 
( 0.0103697 -0.0051494 0.00343322 ) 0 
( 0.00621714 -0.00242542 0.00292941 ) 0 
( 0.0052679 -0.00224153 0.00267457 ) 0 
( 0.0128789 -0.00277844 0.00142497 ) 0 
( 0.00520539 -0.00090734 0.00133429 ) 0 
( 0.00165864 -0.00097567 0.00397475 ) 0 
( 0.00880642 -0.0015617 0.00106244 ) 0 
( 0.00514532 -0.0116831 0.00273016 ) 0 
( 0.000993269 -0.00678676 0.00809641 ) 0 
( 0.00317914 -0.000654746 0.00167123 ) 0 
( 0.0118976 -0.00432393 0.00679474 ) 0 
( 0.00305935 -0.00802355 0.00126332 ) 0 
( 0.00222834 -0.00733361 0.00211268 ) 0 
( 0.007719 -0.00642756 0.00113058 ) 0 
( 0.00238337 -0.0111463 0.00505292 ) 0 
( 0.00163282 -0.00472984 0.00826227 ) 0 
( 0.00859523 -0.00809931 0.00697551 ) 0 
( 0.0046254 -0.0125232 0.00711952 ) 0 
( 0.00727749 -0.00145135 0.00347535 ) 0 
( 0.00809591 -0.00298618 0.000499673 ) 0 
( 0.00194197 -0.00472661 0.00334023 ) 0 
( 0.00173584 -0.00560735 0.00671655 ) 0 
( 0.00297607 -0.00503068 0.00684201 ) 0 
( 0.00357927 -0.00705198 0.000744145 ) 0 
( 0.00708284 -0.00455007 0.00145476 ) 0 
( 0.00656449 -0.00842429 0.00105733 ) 0 
( 0.00118425 -0.00315201 0.0058327 ) 0 
( 0.00456358 -0.0115846 0.00353743 ) 0 
( 0.00739836 -0.00327019 0.00175138 ) 0 
( 0.00792119 -0.000167567 0.00441797 ) 0 
( 0.0107936 -0.00214858 0.00383481 ) 0 
( 0.00692092 -0.00686318 0.00527483 ) 0 
( 0.00816786 -0.0101142 0.00371386 ) 0 
( 0.00963902 -0.00032764 0.00701038 ) 0 
( 0.00784847 -0.00834057 0.00261865 ) 0 
( 0.00563693 -0.00437343 0.00295201 ) 0 
( 0.0111363 -0.000146286 0.00282368 ) 0 
( 0.000450946 -0.0121987 0.00765101 ) 0 
( 0.00197112 -0.00279646 0.00265724 ) 0 
( 0.00725301 -0.011208 0.00682241 ) 0 
( 0.00709022 -0.00484592 0.000499759 ) 0 
( 0.00388198 -0.00281356 0.00299064 ) 0 
( 0.00228767 -0.0112952 0.00668927 ) 0 
( 0.00750901 -0.0105335 0.00585288 ) 0 
( 0.00409342 -0.0100067 0.00542889 ) 0 
( 0.00599772 -0.00879399 0.00707631 ) 0 
( 0.00686074 -0.0103686 0.000964407 ) 0 
( 0.00578416 -0.0096964 0.00535338 ) 0 
( 0.000655461 -0.00759687 0.00345144 ) 0 
( 0.00169223 -0.00909921 0.000499616 ) 0 
( 0.0116693 -0.00438128 0.00135374 ) 0 
( 0.0109238 -0.000949124 0.00540527 ) 0 
( 0.0016703 -0.00843501 0.00461936 ) 0 
( 0.00800774 -0.00278175 0.00671052 ) 0 
( 0.00954362 -0.00933517 0.00599924 ) 0 
( 0.00453697 -0.00813734 0.00466801 ) 0 
( 0.0104782 -0.00419069 0.0011244 ) 0 
( 0.0025441 -0.00657333 0.00421966 ) 0 
( 0.00548201 -0.00858705 0.00364726 ) 0 
( 9.41637e-05 -0.00953719 0.00130131 ) 0 
( 0.00524179 -0.0122779 0.0012742 ) 0 
( 0.00316334 -0.00117101 0.00345841 ) 0 
( 0.0121143 -0.00560971 0.0013125 ) 0 
( 0.0101124 -0.00372105 0.00359362 ) 0 
( 0.00899711 -0.00986249 0.00421282 ) 0 
( 0.00561281 -0.00800879 0.00637388 ) 0 
( 0.000453413 -0.00328118 0.00148769 ) 0 
( 0.000446173 -0.00421213 0.00450364 ) 0 
( 0.00628566 -0.00206744 0.00703524 ) 0 
( 0.00955897 -0.00381286 0.001232 ) 0 
( 0.00736602 -0.00510486 0.00415085 ) 0 
( 0.00984178 -0.00902012 0.00509846 ) 0 
( 0.010808 -0.00123442 0.00296539 ) 0 
( 0.0122127 -0.0018849 0.00432109 ) 0 
( 0.00300858 -0.0114709 0.000499873 ) 0 
( 0.00977729 -0.00543807 0.00115506 ) 0 
( 0.0112604 -0.00263241 0.00707442 ) 0 
( 0.00740681 -0.00414658 0.00376024 ) 0 
( 0.010062 -0.00565738 0.00550856 ) 0 
( 0.000929217 -0.00356039 0.00391191 ) 0 
( 0.0108368 -0.00112678 0.00186422 ) 0 
( 0.0014609 -0.00740778 0.00288987 ) 0 
( 0.00656209 -0.00604999 0.00654235 ) 0 
( 0.00265672 -0.0130636 0.000499886 ) 0 
( 0.004874 -0.0114855 0.00460358 ) 0 
( 0.00474421 -0.00137204 0.00209103 ) 0 
( 0.00484728 -0.00305298 0.00209173 ) 0 
( 0.00832997 -0.000872589 0.00501866 ) 0 
( 0.0102184 -0.00712206 0.00707284 ) 0 
( 0.0111068 -0.00567871 0.0030133 ) 0 
( 0.00164254 -0.000134851 0.00343397 ) 0 
( 0.00054815 -0.011008 0.00661723 ) 0 
( 0.0100756 -0.0064733 0.00423896 ) 0 
( 0.00523011 -0.00585745 0.00311937 ) 0 
( 0.000103385 -0.0117404 0.00265726 ) 0 
( 0.00227521 -0.00103119 0.0082002 ) 0 
( 0.00704808 -0.00595308 0.00356094 ) 0 
( 0.00139315 -0.0102224 0.00629956 ) 0 
( 0.0106825 -0.000505976 0.00363883 ) 0 
( 0.0110014 -0.00059893 0.00103111 ) 0 
( 0.000786937 -0.00980578 0.00524993 ) 0 
( 0.00140273 -0.00441112 0.00417009 ) 0 
( 0.0114703 -0.00442285 0.0028881 ) 0 
( 0.00486779 -0.00941187 0.00564362 ) 0 
( 0.00902292 -0.00547113 0.00049972 ) 0 
( 0.00391533 -0.0117311 0.00750233 ) 0 
( 0.00125303 -0.000944009 0.00299462 ) 0 
( 0.000155964 -0.0133492 0.00293607 ) 0 
( 0.00187245 -0.00388993 0.00584417 ) 0 
( 0.00656094 -0.00690203 0.00250034 ) 0 
( 0.00303577 -0.0119414 0.00653874 ) 0 
( 0.0104362 -0.00832521 0.00122392 ) 0 
( 0.00358109 -0.00910677 0.00389646 ) 0 
( 0.00159193 -0.013247 0.00672805 ) 0 
( 0.0125185 -0.00463801 0.00303345 ) 0 
( 0.00990344 -0.0020622 0.00675224 ) 0 
( 0.0115601 -0.00290979 0.00249966 ) 0 
( 0.00658328 -0.00580726 0.0020957 ) 0 
( 0.00521451 -0.0100687 0.00154056 ) 0 
( 0.0047437 -0.00653118 0.00737957 ) 0 
( 0.00257291 -0.00220702 0.00681443 ) 0 
( 0.0124485 -0.00157819 0.00524302 ) 0 
( 0.00105046 -0.00388002 0.00202129 ) 0 
( 0.00114391 -0.0118106 0.0065994 ) 0 
( 0.00922563 -0.000706226 0.00550553 ) 0 
( 0.00922285 -0.00952336 0.000499667 ) 0 
( 0.0100799 -0.00235492 0.00450615 ) 0 
( 0.00916906 -0.000656847 0.00450828 ) 0 
( 0.00463415 -0.00119086 0.00555209 ) 0 
( 0.00338815 -0.00555426 0.0075875 ) 0 
( 0.00826353 -0.00183597 0.00202377 ) 0 
( 0.00250814 -0.00630366 0.00124592 ) 0 
( 0.00320341 -0.0074083 0.00466711 ) 0 
( 0.00472059 -0.0111864 0.0061137 ) 0 
( 0.00511568 -0.0067881 0.00367944 ) 0 
( 0.000427925 -0.00298076 0.00751751 ) 0 
( 0.0032996 -0.00171599 0.00860776 ) 0 
( 0.00848056 -0.00719608 0.00295847 ) 0 
( 0.00226092 -0.00833192 0.00219964 ) 0 
( 0.00034779 -0.00179111 0.00559712 ) 0 
( 0.000444551 -0.00455736 0.00769041 ) 0 
( 0.00594896 -0.010239 0.00371511 ) 0 
( 0.000218596 -0.00305065 0.00342687 ) 0 
( 0.00407361 -0.000564833 0.00123357 ) 0 
( 0.00142142 -0.00857418 0.00295016 ) 0 
( 0.0093299 -0.00773212 0.00280937 ) 0 
( 0.00436585 -0.0105613 0.00328311 ) 0 
( 0.00800807 -0.00893154 0.00686136 ) 0 
( 0.0010926 -0.00585678 0.00513715 ) 0 
( 0.00597085 -0.0119405 0.00581304 ) 0 
( 0.000270552 -0.00841831 0.00129352 ) 0 
( 0.00806069 -0.00191739 0.00049966 ) 0 
( 0.0111753 -0.00454168 0.000499602 ) 0 
( 0.00576176 -0.0120426 0.00343168 ) 0 
( 0.00316405 -0.00801007 0.00701576 ) 0 
( 0.00143173 -0.00118626 0.00768682 ) 0 
( 0.010956 -0.00591469 0.0058747 ) 0 
( 0.00197409 -0.000179007 0.0045287 ) 0 
( 0.00421711 -0.0126665 0.00360454 ) 0 
( 0.00953959 -0.00236544 0.00129735 ) 0 
( 0.0120585 -0.00347492 0.0015169 ) 0 
( 0.00568537 -0.0109873 0.00139616 ) 0 
( 0.0100212 -0.00759151 0.00573501 ) 0 
( 0.0101175 -0.00018753 0.00287781 ) 0 
( 0.00261293 -0.00223825 0.00475007 ) 0 
( 0.00476609 -0.00652288 0.00551297 ) 0 
( 0.00559757 -0.00108449 0.00580137 ) 0 
( 0.00834444 -0.0104211 0.00472448 ) 0 
( 0.00131658 -0.00460622 0.00518492 ) 0 
( 0.00384022 -0.00939348 0.00207653 ) 0 
( 0.0108707 -0.00438801 0.00685014 ) 0 
( 0.00162395 -0.00651664 0.00460632 ) 0 
( 0.00796353 -0.00136694 0.00687715 ) 0 
( 0.00632027 -0.0117595 0.00139974 ) 0 
( 0.000813559 -0.00941784 0.0061709 ) 0 
( 0.00751678 -0.00172103 0.00525714 ) 0 
( 0.0107629 -0.00315503 0.0040995 ) 0 
( 0.00296433 -0.00255511 0.00214412 ) 0 
( 0.0027415 -0.00133374 0.00632467 ) 0 
( 0.0102081 -0.00505078 0.00650162 ) 0 
( 0.00908651 -0.00895248 0.00680171 ) 0 
( 0.000561158 -0.00914412 0.00453523 ) 0 
( 0.00497991 -0.00517266 0.000499824 ) 0 
( 0.0012577 -0.00397657 0.00765904 ) 0 
( 0.00586077 -0.0105435 0.00467533 ) 0 
( 0.00194539 -0.00642599 0.00250898 ) 0 
( 0.00981887 -0.00434186 0.00467735 ) 0 
( 0.00596364 -0.000882399 0.00671337 ) 0 
( 0.000194287 -0.00590872 0.00470155 ) 0 
( 0.00357916 -0.00390974 0.00123284 ) 0 
( 0.00632578 -0.00758521 0.0048063 ) 0 
( 0.0103493 -0.00320194 0.00127949 ) 0 
( 0.00073561 -0.0127212 0.00665769 ) 0 
( 0.00102416 -0.00509745 0.00348181 ) 0 
( 0.00321984 -0.0127435 0.00589068 ) 0 
( 0.00609336 -0.00251586 0.000499886 ) 0 
( 0.0060186 -0.00704841 0.00402088 ) 0 
( 0.007751 -0.00896823 0.00339106 ) 0 
( 0.0126951 -0.00413012 0.00445495 ) 0 
( 0.00187653 -0.00976917 0.00367012 ) 0 
( 0.00335133 -0.00340638 0.00597017 ) 0 
( 0.00999041 -0.0033569 0.00470128 ) 0 
( 0.00832276 -0.00252611 0.00530429 ) 0 
( 0.00307709 -0.00370644 0.00818759 ) 0 
( 0.00264267 -0.00595558 0.0070223 ) 0 
( 0.00211009 -0.0108457 0.000499646 ) 0 
( 0.00669465 -0.00962515 0.00576042 ) 0 
( 0.00469976 -0.00703077 0.00455718 ) 0 
( 0.00697761 -0.0079987 0.00544159 ) 0 
( 0.0107561 -0.00401002 0.00478264 ) 0 
( 0.00428197 -0.00225003 0.00712604 ) 0 
( 0.0105522 -0.00677001 0.00619869 ) 0 
( 0.00449552 -0.00943254 0.00471582 ) 0 
( 0.00253487 -0.0033041 0.00537762 ) 0 
( 0.00420719 -0.00304636 0.00817651 ) 0 
( 0.00566143 -0.00338185 0.00282523 ) 0 
( 0.000118053 -0.00745806 0.00790441 ) 0 
( 0.00583576 -0.00941841 0.00631244 ) 0 
( 0.00271998 -0.00817281 0.00509439 ) 0 
( 0.0107393 -0.00645348 0.00249896 ) 0 
( 0.00164539 -0.00565459 0.000499851 ) 0 
( 0.00769721 -0.00609872 0.00538264 ) 0 
( 0.00955688 -0.00713904 0.00118675 ) 0 
( 0.00563812 -0.00282204 0.00365343 ) 0 
( 0.00883554 -0.00499349 0.00420446 ) 0 
( 0.00562816 -0.00013205 0.00610365 ) 0 
( 0.0125052 -0.00150955 0.0034417 ) 0 
( 0.00370447 -0.00801334 0.000499697 ) 0 
( 0.00395813 -0.0120209 0.00287177 ) 0 
( 0.00785552 -0.00978446 0.00282289 ) 0 
( 0.000910496 -0.00651594 0.00283364 ) 0 
( 0.00213862 -0.0104457 0.00435815 ) 0 
( 0.00690837 -0.0095441 0.00318639 ) 0 
( 0.0108468 -0.00772955 0.00628268 ) 0 
( 0.00350796 -0.00446218 0.00206322 ) 0 
( 0.0067067 -0.00781286 0.00191355 ) 0 
( 0.00135773 -0.00748592 0.00458302 ) 0 
( 0.0103161 -0.0061819 0.00154999 ) 0 
( 0.0107009 -0.00798181 0.00723909 ) 0 
( 0.00200538 -0.00629554 0.00554302 ) 0 
( 0.00080604 -0.00514499 0.0044959 ) 0 
( 0.0105846 -0.00321935 0.00286903 ) 0 
( 0.0107089 -0.00492123 0.00437373 ) 0 
( 3.3582e-05 -0.00943204 0.00373615 ) 0 
( 0.00422457 -0.00412305 0.000499687 ) 0 
( 0.00585016 -0.00800223 0.000499618 ) 0 
( 0.000291989 -0.00114428 0.00280471 ) 0 
( 0.00716104 -0.00723781 0.0043797 ) 0 
( 0.00127436 -0.00248288 0.00771086 ) 0 
( 0.00350322 -0.00218666 0.00774946 ) 0 
( 0.00674922 -4.41498e-05 0.0019425 ) 0 
( 0.00146101 -0.0126776 0.000499644 ) 0 
( 0.00140198 -0.00783126 0.00184951 ) 0 
( 0.00603558 -0.000849688 0.00795789 ) 0 
( 0.00484826 -0.0115318 0.000499585 ) 0 
( 0.00304057 -0.00694119 0.00273129 ) 0 
( 0.013177 -0.00213473 0.00564183 ) 0 
( 0.0124817 -0.00288014 0.00582049 ) 0 
( 0.00759222 -0.00959964 0.00620029 ) 0 
( 0.00438388 -0.00145403 0.00462058 ) 0 
( 0.00251201 -0.00302539 0.000499712 ) 0 
( 0.0113237 -0.000320213 0.00438336 ) 0 
( 0.00554293 -0.00380148 0.00161978 ) 0 
( 0.00081085 -0.00581757 0.00707426 ) 0 
( 0.00508261 -0.00284519 0.00718584 ) 0 
( 0.00832635 -2.71517e-05 0.00258272 ) 0 
( 0.0112189 -0.00618014 0.00112052 ) 0 
( 0.00673628 -0.00334577 0.00747806 ) 0 
( 0.00224502 -0.00519712 0.00753825 ) 0 
( 3.3315e-05 -0.00794821 0.00275189 ) 0 
( 0.00789716 -0.0101751 0.00127174 ) 0 
( 0.00545712 -0.00117016 0.00296455 ) 0 
( 0.00773579 -0.00332933 0.00750182 ) 0 
( 0.00389374 -0.00608608 0.00575509 ) 0 
( 0.00409691 -0.00269866 0.00128197 ) 0 
( 0.00279725 -0.0130161 0.00502641 ) 0 
( 0.00774451 -0.00641673 0.00703815 ) 0 
( 0.00649044 -0.00976735 0.00464763 ) 0 
( 0.00334396 -0.00341388 0.00480079 ) 0 
( 0.00885496 -0.00516775 0.00756547 ) 0 
( 0.00245009 -0.00785833 0.0041844 ) 0 
( 0.00679517 -0.0065729 0.00148436 ) 0 
( 0.00208991 -0.00355368 0.00803318 ) 0 
( 0.00746103 -0.00561579 0.00165713 ) 0 
( 0.00998465 -0.00602196 0.00658392 ) 0 
( 0.00438819 -0.00192226 0.00618767 ) 0 
( 0.00683571 -0.00431635 0.00725875 ) 0 
( 0.00590043 -0.00556304 0.000499779 ) 0 
( 0.0119001 -0.000895831 0.000499698 ) 0 
( 0.00271093 -0.013068 0.006745 ) 0 
( 0.00332676 -0.0097808 0.00602933 ) 0 
( 0.00882853 -0.00324917 0.00703844 ) 0 
( 0.00139542 -0.00768614 0.000499715 ) 0 
( 0.00739327 -0.011116 0.00504847 ) 0 
( 0.00154599 -0.000465919 0.00700314 ) 0 
( 0.00351456 -0.00265673 0.00663059 ) 0 
( 0.00073506 -0.00443119 0.00672543 ) 0 
( 0.00367649 -0.00441869 0.0054846 ) 0 
( 0.00388063 -0.00508616 0.000499689 ) 0 
( 0.00113174 -0.0132982 0.00272384 ) 0 
( 0.00912278 -0.00705351 0.00208337 ) 0 
( 0.0044694 -0.0114151 0.00141742 ) 0 
( 0.000871615 -0.0042026 0.000499779 ) 0 
( 0.00387695 -0.00836299 0.0062753 ) 0 
( 0.00456374 -0.00366712 0.00132233 ) 0 
( 0.00605311 -0.00848586 0.00446335 ) 0 
( 0.00672569 -0.000452874 0.00735285 ) 0 
( 0.0112303 -0.00355235 0.000962094 ) 0 
( 0.00553021 -0.0110863 0.00553535 ) 0 
( 0.0052723 -0.00300429 0.00108055 ) 0 
( 0.00615151 -0.00450151 0.00049979 ) 0 
( 0.00751507 -0.0029187 0.00486493 ) 0 
( 0.00424819 -0.00601991 0.00482143 ) 0 
( 0.00342308 -0.000245101 0.00318443 ) 0 
( 0.0103128 -0.00730882 0.00473446 ) 0 
( 0.00605433 -0.0078108 0.00724881 ) 0 
( 0.00838125 -0.00569252 0.00127464 ) 0 
( 0.00445393 -0.00943209 0.00128808 ) 0 
( 0.0133077 -0.00105332 0.00305757 ) 0 
( 0.0128307 -0.00368751 0.00342486 ) 0 
( 0.00153163 -0.00217357 0.00604465 ) 0 
( 0.00676285 -0.00889024 0.00504292 ) 0 
( 0.00201279 -0.0106212 0.00313493 ) 0 
( 0.0100181 -0.00272575 0.00357959 ) 0 
( 0.00503062 -0.00974372 0.00350389 ) 0 
( 0.0112347 -0.00557577 0.00191682 ) 0 
( 0.00195669 -0.00429166 0.000499673 ) 0 
( 0.00224269 -0.0131603 0.00584597 ) 0 
( 0.0039726 -0.000790485 0.00397802 ) 0 
( 0.000866937 -0.00853495 0.000499741 ) 0 
( 0.00993511 -0.00664531 0.00542206 ) 0 
( 0.00342923 -0.0100141 0.00699586 ) 0 
( 0.000712536 -0.0107466 0.00468424 ) 0 
( 0.000413451 -0.00208268 0.00705353 ) 0 
( 0.00664404 -0.000609015 0.00297398 ) 0 
( 0.00581726 -0.012016 0.00049978 ) 0 
( 0.00250766 -0.0121661 0.00457992 ) 0 
( 0.002223 -0.0050693 0.00106875 ) 0 
( 0.00160875 -0.0112031 0.00595594 ) 0 
( 0.0056004 -0.00668779 0.00603871 ) 0 
( 0.00118101 -0.0056152 0.00249385 ) 0 
( 0.00406068 -0.0104629 0.00631788 ) 0 
( 0.00730311 -0.00822162 0.00452274 ) 0 
( 0.00654508 -9.45932e-05 0.00570715 ) 0 
( 0.00577882 -0.00987658 0.00278991 ) 0 
( 0.00083637 -0.000405957 0.00787647 ) 0 
( 0.00639796 -0.0117106 0.00669603 ) 0 
( 0.00388912 -0.0119008 0.000699358 ) 0 
( 0.012281 -0.00281566 0.00330523 ) 0 
( 0.0100135 -0.00395445 0.00657236 ) 0 
( 0.0115963 -0.00358193 0.00445038 ) 0 
( 0.00370044 -0.00633706 0.0014676 ) 0 
( 0.00179297 -0.00964623 0.00555634 ) 0 
( 0.00731667 -0.00367074 0.00666067 ) 0 
( 0.0063451 -0.00176579 0.00526601 ) 0 
( 0.00486366 -0.0104928 0.00414752 ) 0 
( 0.00278713 -0.00972759 0.00410585 ) 0 
( 0.0104521 -0.00691146 0.000804265 ) 0 
( 0.00398603 -2.95154e-05 0.00207367 ) 0 
( 0.00141711 -0.00369408 0.00671248 ) 0 
( 0.00414168 -0.00485518 0.0070902 ) 0 
( 0.00169615 -0.000370209 0.00868678 ) 0 
( 0.00317634 -0.00213118 0.00318016 ) 0 
( 0.00314648 -0.00300927 0.00127219 ) 0 
( 0.00170368 -0.0088126 0.00737342 ) 0 
( 0.00191607 -0.00388157 0.00484536 ) 0 
( 0.00101669 -0.011192 0.000499876 ) 0 
( 0.0113901 -0.00503009 0.0062855 ) 0 
( 0.0117575 -0.000921343 0.00294893 ) 0 
( 0.000600307 -0.00324022 0.000499589 ) 0 
( 0.00637165 -0.0114412 0.00504549 ) 0 
( 0.0107216 -0.00612129 0.0049176 ) 0 
( 0.00168212 -0.0104378 0.00130583 ) 0 
( 0.0110133 -0.00144574 0.000499775 ) 0 
( 0.00399585 -0.00329554 0.00386765 ) 0 
( 0.0082129 -0.000978518 0.00286863 ) 0 
( 0.00683606 -0.00410393 0.00294029 ) 0 
( 0.00834471 -0.00356419 0.00127661 ) 0 
( 0.00848653 -0.00631495 0.000499624 ) 0 
( 0.0031072 -0.0049082 0.00363518 ) 0 
( 0.00829188 -0.0077526 0.00608833 ) 0 
( 0.00155924 -0.00795451 0.00372289 ) 0 
( 0.0119935 -0.00258862 0.00499801 ) 0 
( 0.00956608 -0.00339864 0.00561624 ) 0 
( 0.00715801 -0.00920398 0.00416096 ) 0 
( 0.00674533 -0.0015535 0.00794218 ) 0 
( 0.00292505 -0.00312121 0.00311817 ) 0 
( 0.00104294 -0.00568434 0.0080377 ) 0 
( 0.0089095 -0.00735091 0.00384833 ) 0 
( 0.00478346 -0.0115198 0.0070541 ) 0 
( 0.00797023 -0.00545281 0.00718299 ) 0 
( 0.00587634 -0.0108445 0.00255842 ) 0 
( 0.00503405 -0.0123517 0.00409587 ) 0 
( 0.00988485 -0.00459945 0.00733704 ) 0 
( 0.0106853 -0.0020953 0.00606547 ) 0 
( 0.00597583 -0.00842324 0.00550018 ) 0 
( 0.00718352 -0.00555754 0.00779166 ) 0 
( 0.00896434 -0.00420651 0.00193292 ) 0 
( 0.00369228 -0.00738085 0.0063072 ) 0 
( 0.00676644 -0.00456243 0.00475206 ) 0 
( 0.00827688 -0.00664974 0.00417838 ) 0 
( 0.00281078 -0.00334373 0.00680895 ) 0 
( 0.00748029 -0.0020862 0.00737541 ) 0 
( 0.0113842 -0.00370433 0.00620166 ) 0 
( 0.00293379 -0.01052 0.0035109 ) 0 
( 1.21825e-06 -0.0114343 0.00049975 ) 0 
( 0.00949528 -0.00797508 0.00490916 ) 0 
( 0.00221028 -0.00545576 0.00271082 ) 0 
( 0.0020556 -0.011379 0.00247684 ) 0 
( 0.0100607 -0.000720212 0.00495621 ) 0 
( 0.00120378 -0.00280116 0.00331025 ) 0 
( 0.000741022 -0.00820595 0.00423977 ) 0 
( 0.0112934 -0.00711925 0.00147727 ) 0 
( 0.0116906 -0.00644632 0.0021012 ) 0 
( 0.00742872 -0.00740283 0.00281241 ) 0 
( 0.0100331 -0.00176208 0.0033132 ) 0 
( 0.0106653 -0.0011379 0.00635218 ) 0 
( 0.00146887 -0.00835808 0.00638657 ) 0 
( 0.00767523 -0.000599599 0.00771867 ) 0 
( 0.0058762 -0.00835362 0.00177908 ) 0 
( 0.011628 -0.00265493 0.00406668 ) 0 
( 0.0119196 -0.00587786 0.0039114 ) 0 
( 0.00769645 -0.00414518 0.00213257 ) 0 
( 0.000665725 -0.00192048 0.00166527 ) 0 
( 0.00165782 -0.00185595 0.00459605 ) 0 
( 0.0125381 -0.000123209 0.000558971 ) 0 
( 0.00313724 -0.004154 0.00729408 ) 0 
( 0.000209294 -0.00118615 0.00116305 ) 0 
( 0.00500354 -0.010273 0.00511274 ) 0 
( 0.00319221 -0.00937092 0.000499681 ) 0 
( 0.00851438 -0.000621312 0.00375338 ) 0 
( 0.00731677 -0.00305484 0.00389165 ) 0 
( 0.0102363 -0.00192611 0.00186417 ) 0 
( 0.00648639 -0.00327629 0.00338034 ) 0 
( 0.00994579 -0.00106519 0.00402485 ) 0 
( 0.0111625 -0.0036769 0.00195182 ) 0 
( 0.0116752 -0.00440946 0.00555544 ) 0 
( 0.00934141 -0.00519529 0.00602495 ) 0 
( 0.00628001 -0.00151626 0.00350106 ) 0 
( 0.0073924 -0.00626726 0.00444547 ) 0 
( 0.00737228 -0.00104534 0.00217066 ) 0 
( 0.00480943 -0.0124534 0.00215838 ) 0 
( 0.00629442 -0.00735958 0.00112345 ) 0 
( 0.000245693 -0.0128538 0.0012542 ) 0 
( 0.00105926 -0.0092803 0.00125212 ) 0 
( 0.00888207 -0.00267465 0.00287021 ) 0 
( 0.0098776 -0.00468962 0.00049979 ) 0 
( 0.0103473 -0.00539056 0.00243009 ) 0 
( 0.0078304 -0.00917614 0.00532632 ) 0 
( 0.00325311 -0.00819919 0.00363492 ) 0 
( 0.00768183 -1.79063e-05 0.000499805 ) 0 
( 0.00382886 -0.0118591 0.00549728 ) 0 
( 0.000338565 -0.00267296 0.00606767 ) 0 
( 0.00504383 -0.00960492 0.000499641 ) 0 
( 0.0121825 -0.00375688 0.00266654 ) 0 
( 0.00735768 -0.00866838 0.000499826 ) 0 
( 0.0038203 -0.00257157 0.00568243 ) 0 
( 0.011452 -0.00502295 0.00368768 ) 0 
( 0.000609821 -0.0098801 0.00208629 ) 0 
( 0.00404686 -0.010934 0.000499763 ) 0 
( 0.00589907 -0.0028886 0.00661083 ) 0 
( 0.00738662 -0.000469318 0.0036288 ) 0 
( 0.0040263 -0.00522585 0.00425605 ) 0 
( 0.00618804 -0.00927144 0.00382911 ) 0 
( 0.00625265 -0.00740268 0.00578699 ) 0 
( 0.00478093 -0.00315685 0.00326229 ) 0 
( 0.0107625 -0.00223139 0.00281531 ) 0 
( 0.000855043 -0.00156397 0.000499791 ) 0 
( 0.00231273 -0.0100867 0.00218655 ) 0 
( 0.00945794 -0.0055694 0.00351869 ) 0 
( 0.00227495 -0.00513149 0.00497408 ) 0 
( 0.00372428 -0.00114729 0.000499728 ) 0 
( 0.00490379 -0.00428875 0.00677618 ) 0 
( 0.00916345 -0.00550831 0.00509226 ) 0 
( 0.000741072 -0.00528226 0.006201 ) 0 
( 0.00904268 -0.00733762 0.00557468 ) 0 
( 0.00178693 -0.0114313 0.00138537 ) 0 
( 0.00836752 -0.00634981 0.00202813 ) 0 
( 0.0122751 -0.00524928 0.00681308 ) 0 
( 0.000908712 -0.00148349 0.00641189 ) 0 
( 0.00421555 -0.012667 0.00594277 ) 0 
( 0.00654791 -0.00266558 0.00487484 ) 0 
( 0.0058165 -0.00332239 0.00468959 ) 0 
( 0.00535434 -0.00183542 0.00370386 ) 0 
( 0.0035715 -0.0109768 0.00137824 ) 0 
( 0.00573551 -0.00640829 0.00220654 ) 0 
( 0.00510217 -0.0105842 0.000691406 ) 0 
( 0.00678384 -0.009487 0.000499595 ) 0 
( 0.0109922 -0.00255784 0.00169347 ) 0 
( 0.00758211 -0.00246825 0.00118318 ) 0 
( 0.00485806 -0.00279154 0.00603325 ) 0 
( 0.00696655 -0.00134121 0.00694549 ) 0 
( 0.00593833 -0.00985633 0.000884404 ) 0 
( 0.0088209 -0.00429685 0.00310676 ) 0 
( 0.00990023 -0.00748571 0.00384098 ) 0 
( 0.00241343 -0.00442357 0.00416825 ) 0 
( 0.00868496 -0.000990444 0.00629676 ) 0 
( 0.00749382 -0.000432638 0.0013899 ) 0 
( 0.0056597 -0.00268649 0.00544516 ) 0 
( 0.00855937 -0.010245 0.00224058 ) 0 
( 0.00802204 -0.00197121 0.00608289 ) 0 
( 0.0115445 -0.00185106 0.00220027 ) 0 
( 0.00337875 -0.00537937 0.00527013 ) 0 
( 0.00999251 -0.00885297 0.000499799 ) 0 
( 0.0132374 -0.00172975 0.00706894 ) 0 
( 0.00404896 -0.0119708 0.00430275 ) 0 
( 0.00964262 -0.00789947 0.00183023 ) 0 
( 0.0111635 -0.00732115 0.00275798 ) 0 
( 0.0120429 -0.00576148 0.00489656 ) 0 
( 0.00525295 -0.00578867 0.00158764 ) 0 
( 0.000662274 -0.00677064 0.00450518 ) 0 
( 0.011183 -0.00520666 0.00520638 ) 0 
( 0.00410543 -0.00957657 0.00316359 ) 0 
( 0.0046731 -0.00031053 0.0068024 ) 0 
( 0.0133037 -0.000759302 0.00406968 ) 0 
( 0.0121302 -0.000674149 0.00384319 ) 0 
( 0.00209893 -0.00734347 0.00590871 ) 0 
( 0.00611843 -0.0103627 0.00614466 ) 0 
( 0.00360684 -0.0128535 0.00446249 ) 0 
( 0.00128927 -0.00897756 0.0038704 ) 0 
( 0.0081157 -0.00937867 0.00438968 ) 0 
( 0.0117104 -8.76054e-05 0.00535344 ) 0 
( 0.00721409 -0.00583843 0.000499853 ) 0 
( 0.00476428 -0.00236892 0.000499565 ) 0 
( 0.00269232 -0.00429178 0.00532404 ) 0 
( 0.00622419 -0.0089465 0.00276849 ) 0 
( 0.00699152 -0.00771287 0.000499652 ) 0 
( 0.000261745 -0.00735666 0.00595842 ) 0 
( 0.00322704 -0.00152061 0.00547085 ) 0 
( 0.0016857 -0.00534038 0.00575446 ) 0 
( 0.00772517 -0.00480506 0.00629274 ) 0 
( 0.00432563 -0.000606713 0.00769164 ) 0 
( 0.00577355 -0.00272874 0.00190057 ) 0 
( 0.00116762 -0.0100007 0.000499878 ) 0 
( 0.00658954 -0.00126655 0.00443494 ) 0 
( 0.00167037 -0.00314974 0.00159651 ) 0 
( 0.00807135 -0.00467606 0.00137271 ) 0 
( 0.0100841 -0.00874507 0.00704825 ) 0 
( 0.00252113 -0.000380393 0.00652959 ) 0 
( 0.0105943 -0.00150872 0.00464484 ) 0 
( 0.0063798 -0.00533047 0.00312982 ) 0 
( 0.00238683 -0.00372544 0.00120262 ) 0 
( 0.00360658 -0.00327893 0.00741168 ) 0 
( 0.00522178 -0.000924692 0.00738231 ) 0 
( 0.00885942 -0.00873253 0.00507 ) 0 
( 0.00347826 -0.00952921 0.00480161 ) 0 
( 0.00457311 -5.50171e-05 0.00429157 ) 0 
( 0.00928339 -0.00163269 0.00193818 ) 0 
( 0.00615172 -0.00400417 0.00795165 ) 0 
( 0.00382884 -0.00107416 0.00613287 ) 0 
( 0.00152237 -0.00962685 0.00459421 ) 0 
( 0.0102557 -0.00613664 0.0033148 ) 0 
( 0.0016457 -0.00188303 0.00700229 ) 0 
( 0.00663585 -0.00271244 0.00139477 ) 0 
( 0.00576989 -0.00523489 0.00224016 ) 0 
( 0.00296298 -0.000360351 0.0048354 ) 0 
( 0.00465466 -0.0125126 0.000499714 ) 0 
( 0.00739781 -0.00640792 0.00226494 ) 0 
( 0.000181265 -0.00395799 0.00268047 ) 0 
( 0.00216621 -0.0075944 0.0011298 ) 0 
( 0.00889432 -0.00418382 0.00738668 ) 0 
( 0.0037993 -0.00759137 0.00305854 ) 0 
( 9.12087e-05 -0.00554402 0.0077125 ) 0 
( 0.00919755 -0.00071522 0.00302949 ) 0 
( 0.000424629 -0.0060431 0.000940194 ) 0 
( 0.00311235 -0.00376319 0.00389256 ) 0 
( 0.011528 -0.00673328 0.00591983 ) 0 
( 0.00362724 -4.23444e-05 0.000499702 ) 0 
( 0.00465019 -0.00802947 0.00334832 ) 0 
( 2.43859e-05 -0.00535951 0.00387792 ) 0 
( 0.0107516 -0.00171304 0.00716496 ) 0 
( 0.0100675 -0.00466121 0.00559171 ) 0 
( 0.00664712 -0.000275253 0.00431786 ) 0 
( 0.00470816 -0.00688742 0.00140168 ) 0 
( 0.00152863 -0.00664782 0.000499796 ) 0 
( 0.00041438 -0.0124881 0.00574022 ) 0 
( 0.00245363 -0.00318367 0.00437233 ) 0 
( 0.00479294 -0.00213926 0.00527831 ) 0 
( 0.00224724 -0.00171417 0.00551909 ) 0 
( 0.00484929 -0.0089565 0.00291454 ) 0 
( 0.00158944 -0.0105528 0.00518669 ) 0 
( 0.00461271 -0.00234632 0.00413814 ) 0 
( 0.00499792 -0.00522392 0.00449622 ) 0 
( 0.00193018 -0.00221216 0.000499767 ) 0 
( 0.000572551 -0.01161 0.0052891 ) 0 
( 0.00224061 -0.000897224 0.00314426 ) 0 
( 0.00362815 -0.0112286 0.00338512 ) 0 
( 0.00214212 -0.0131772 0.0075599 ) 0 
( 0.00204997 -0.00121165 0.000499622 ) 0 
( 0.00139474 -0.00448512 0.00130362 ) 0 
( 0.0035692 -0.00837027 0.00457269 ) 0 
( 0.00852155 -0.0032201 0.00460406 ) 0 
( 0.00261411 -0.00696048 0.000499695 ) 0 
( 0.000720589 -0.0086255 0.00216199 ) 0 
( 0.000607807 -0.00226618 0.00390948 ) 0 
( 0.0081087 -0.00192267 0.00318076 ) 0 
( 0.00122485 -0.00676027 0.00712411 ) 0 
( 0.0100582 -0.00877857 0.00206249 ) 0 
( 0.0133465 -0.000270091 0.00243725 ) 0 
( 0.0131167 -0.0024853 0.00388046 ) 0 
( 0.00552916 -0.00507129 0.00365998 ) 0 
( 0.00480387 -0.00990242 0.0025265 ) 0 
( 0.0100089 -0.00113046 0.0013029 ) 0 
( 0.00735329 -0.00208251 0.00433929 ) 0 
( 0.000692155 -0.00518623 0.000499759 ) 0 
( 0.00695575 -0.00302236 0.000499685 ) 0 
( 0.00334881 -0.0108312 0.00552547 ) 0 
( 0.00444818 -0.00790702 0.00226436 ) 0 
( 0.00450504 -0.00180906 0.00315504 ) 0 
( 0.00937454 -0.00950471 0.00213415 ) 0 
( 0.0048979 -0.00842707 0.00581385 ) 0 
( 0.00678259 -0.00928279 0.00669578 ) 0 
( 0.00458756 -0.00493619 0.00335219 ) 0 
( 0.00337441 -0.00662065 0.00687359 ) 0 
( 0.00294805 -0.00416228 0.000499662 ) 0 
( 0.00571387 -0.00374578 0.007091 ) 0 
( 0.00139402 -0.0104753 0.00226254 ) 0 
( 0.00631761 -0.00700627 0.0067027 ) 0 
( 0.00270013 -0.000387024 0.00387118 ) 0 
( 0.0106594 -0.0030415 0.00638791 ) 0 
( 0.00592911 -0.00403808 0.00537856 ) 0 
( 0.00397011 -0.0109742 0.00428959 ) 0 
( 0.00557869 -0.0121287 0.00490614 ) 0 
( 0.00356166 -0.00609691 0.00260637 ) 0 
( 0.00607305 -0.00750384 0.00313249 ) 0 
( 0.000297712 -0.0111038 0.00384747 ) 0 
( 0.000118241 -0.00337798 0.00536452 ) 0 
( 0.0120235 -0.00497283 0.00207793 ) 0 
( 0.00246211 -0.012359 0.00122179 ) 0 
( 0.00579906 -0.00460743 0.00450352 ) 0 
( 0.00200617 -0.0118397 0.000499615 ) 0 
( 0.0118487 -0.000971315 0.00580021 ) 0 
( 0.0058821 -0.00198698 0.0061241 ) 0 
( 0.000735135 -0.0107054 0.00568302 ) 0 
( 0.00689271 -0.0114334 0.00782366 ) 0 
( 0.00792971 -0.00754867 0.00382089 ) 0 
( 0.000812791 -0.00926219 0.00731012 ) 0 
( 0.0125434 -0.00130924 0.00246282 ) 0 
( 0.00220212 -0.00691316 0.00334365 ) 0 
( 0.00878896 -0.000735305 0.000499738 ) 0 
( 0.00762138 -0.00111936 0.00435367 ) 0 
( 0.00365831 -0.01191 0.00172872 ) 0 
( 0.00344702 -0.00989956 0.00130904 ) 0 
( 0.00307525 -0.00884696 0.00250615 ) 0 
( 2.26909e-05 -0.00856265 0.00514588 ) 0 
( 0.0077091 -0.00557685 0.00291183 ) 0 
( 0.00144526 -0.010889 0.00704294 ) 0 
( 0.00663777 -0.0105128 0.00530359 ) 0 
( 0.00390005 -0.00336101 0.00200469 ) 0 
( 0.0066122 -0.00790291 0.00387397 ) 0 
( 0.0116615 -0.00118084 0.00477162 ) 0 