FoamFile
{version 2.0; format ascii;class vectorField; location 0;object  v;}
2522
(
( -0.000213579 0.000562658 0.00793468 )  
( -0.00526579 0.000408826 0.0113026 )  
( 0.000661824 -0.000447827 -0.000223303 )  
( 0.000293069 0.005427 0.0164628 )  
( -0.000106839 0.000998434 0.0102453 )  
( 0.000764702 0.000265684 -0.000595106 )  
( 0.000853499 0.00108243 0.0108924 )  
( 8.61915e-06 0.000106311 3.09196e-05 )  
( -0.00173787 -0.000121134 0.010384 )  
( 0.000180526 -0.000243744 4.67795e-06 )  
( 0.000293786 0.000380801 6.89975e-05 )  
( -0.00315423 -0.000680998 0.00874595 )  
( -0.00345438 0.00911919 -0.00380303 )  
( -0.00266979 -0.0025012 -0.000646047 )  
( 0.000996172 0.000156367 0.0118967 )  
( -0.000952526 0.00105031 0.00903887 )  
( -0.00369947 -0.000888844 0.00860189 )  
( 0.000330574 -0.00437332 -0.00148202 )  
( 0.00128414 0.00265331 0.0106011 )  
( 0.000786759 -0.000459542 0.0105695 )  
( 0.00183383 0.000790739 0.0123005 )  
( 0.000239946 0.00102895 0.00978408 )  
( 0.00416311 -0.00151835 0.00873532 )  
( 0.000723403 -0.000513681 -0.00014428 )  
( 0.00257115 0.0010131 0.00826709 )  
( 0.000626665 0.000711458 3.02227e-05 )  
( -0.00131109 -0.00139756 0.013002 )  
( 0.000347322 0.00175821 0.0103205 )  
( 0.000921126 3.50759e-05 0.0109759 )  
( 1.18626e-05 0.000113071 2.72766e-05 )  
( -0.000178118 -0.000484878 -1.54055e-05 )  
( -9.05975e-05 -5.89142e-05 3.09518e-05 )  
( -0.000225249 -0.000253078 -7.27482e-05 )  
( -0.00158693 -0.000451146 0.00953322 )  
( -0.000258944 -0.000589398 0.00929119 )  
( -0.000310267 -0.000183182 0.000119856 )  
( -0.00031149 0.000285827 -0.000233151 )  
( 0.000822459 -0.000118661 0.000554741 )  
( -0.000561465 0.000961337 0.0103491 )  
( 7.89138e-06 0.00131076 0.0102484 )  
( 0.000454308 -0.000215918 0.00927706 )  
( 2.21531e-05 0.00030833 -9.53676e-08 )  
( 2.43547e-05 0.00118209 0.0111376 )  
( 0.00113121 0.00119343 0.0104539 )  
( -0.000396411 -0.000226855 -0.000154003 )  
( 0.00108007 0.0003354 0.0105498 )  
( -1.25039e-05 0.000144636 2.45189e-05 )  
( 2.18244e-05 0.000161499 -5.22913e-05 )  
( -9.57338e-05 -0.000124603 4.10051e-05 )  
( 0.000885607 0.00140932 0.0112139 )  
( 0.000971362 0.0024492 -7.25758e-05 )  
( 0.000121798 0.000178368 4.47917e-05 )  
( -8.75811e-05 -5.21515e-05 2.10344e-05 )  
( -0.000922965 -0.00131805 -0.000622162 )  
( -0.000586435 0.000121395 -0.000207087 )  
( -1.80361e-05 4.1857e-05 -8.26301e-05 )  
( 0.00562344 -0.00129229 0.0111199 )  
( -0.000289955 0.000918 0.0104253 )  
( -0.000599829 0.000752805 -0.00033555 )  
( -0.000254913 0.000962649 0.00913074 )  
( 0.00192099 0.0012643 0.0106099 )  
( 0.000400879 0.00122722 0.0106528 )  
( -0.000763065 -0.000354336 -0.000260921 )  
( -0.00364025 -0.00450253 0.0193143 )  
( -0.000566692 -0.00140822 0.00845617 )  
( -0.000279358 4.57817e-05 0.00541285 )  
( 0.00156533 0.00374903 0.0118477 )  
( 0.000973442 0.00141059 0.0111633 )  
( -0.00140866 -0.00270744 -0.000408933 )  
( 0.00120063 -0.00178945 -1.18089e-05 )  
( 0.00100289 -0.000410355 0.0111663 )  
( 0.000233927 0.00200944 0.00720136 )  
( 0.000890079 -0.0020991 0.00852448 )  
( 0.000544742 0.000398897 0.0106061 )  
( -0.000554327 0.0014957 0.00961597 )  
( -0.000102246 0.000102863 0.00984591 )  
( 0.000458039 0.000673166 0.0112286 )  
( 0.000895409 -8.0831e-05 0.0101392 )  
( 0.000282908 0.00038826 0.00992717 )  
( -0.000429274 -0.00125559 0.00741405 )  
( 0.000111224 0.000230356 4.67635e-05 )  
( -0.0011102 -2.13335e-05 0.0103925 )  
( -0.00259452 -0.00167417 0.00754837 )  
( -0.00041143 0.00160331 -2.05037e-05 )  
( 0.00100912 -0.000377637 0.00952684 )  
( 0.00257774 0.000988456 0.00970843 )  
( 0.00252756 0.00106628 0.00998259 )  
( 7.99691e-05 -0.000155369 1.31579e-05 )  
( -0.000493584 0.00185088 0.000176212 )  
( 1.87834e-05 0.000756197 0.0103564 )  
( -5.57082e-05 -0.000931892 -0.000113695 )  
( 0.000508824 -0.000140132 0.00940108 )  
( 0.000253562 0.000935454 0.0102613 )  
( 0.00203924 -3.03304e-05 -0.000991531 )  
( -0.0010927 4.84094e-05 0.00957754 )  
( -0.000238016 -2.00281e-05 -0.000343914 )  
( 9.43739e-05 4.09266e-05 -0.000140561 )  
( 0.000108961 0.000797879 -0.000477541 )  
( 0.000963322 -0.00117837 0.00930433 )  
( -0.00069396 0.000244509 0.0109771 )  
( -0.000886762 0.00332189 0.00858728 )  
( 0.00141632 0.00077012 0.00945127 )  
( 0.000744742 0.000721377 0.011054 )  
( -0.000409146 -0.000421899 3.66969e-05 )  
( 0.000302694 0.00151854 0.010327 )  
( 0.000566874 0.00117676 0.00993957 )  
( 0.000945114 0.000814757 0.0095844 )  
( 8.39758e-05 0.000121776 -5.07713e-05 )  
( 0.000840188 -0.000514989 0.000134709 )  
( -4.95773e-05 0.000127012 0.000131687 )  
( -0.000165813 0.00113809 0.012117 )  
( -0.00124042 0.00111297 0.00809482 )  
( -0.00154385 -0.00117927 -0.00166361 )  
( 0.000196253 0.00084507 0.0101748 )  
( 0.00137718 0.000458073 0.0103807 )  
( -0.00108261 0.000922063 0.0104826 )  
( 0.00363821 -0.00145789 0.00913904 )  
( -0.000492801 0.00106781 0.00961862 )  
( -0.00431165 0.000165396 0.012924 )  
( 0.00187398 0.000513365 0.0113464 )  
( -0.00142879 0.00485808 0.0103096 )  
( 0.00133314 0.00282912 0.00532995 )  
( 0.00106798 -0.000979823 0.0118523 )  
( -5.85454e-05 0.000243261 0.00750837 )  
( 0.000479009 0.000998333 -0.000271693 )  
( 0.00252544 0.00164177 0.0103211 )  
( -0.000571055 -0.000357342 0.0097893 )  
( 4.67964e-05 -0.0037428 0.00940229 )  
( -0.000541412 -0.000486784 0.00870044 )  
( 0.000562129 -6.54131e-05 0.00883514 )  
( 1.54674e-05 3.65971e-05 -7.01787e-05 )  
( -0.0011663 0.00121676 0.0088871 )  
( 0.000900593 -0.000733753 0.00869291 )  
( -3.83619e-05 -0.000143536 -2.84914e-05 )  
( -0.00011836 -1.03684e-05 -2.11456e-05 )  
( 0.000608269 0.00211126 0.0104667 )  
( -0.000171895 -0.000528913 0.0112313 )  
( 0.001457 0.000459551 0.0115458 )  
( 0.0019093 0.00195179 0.00990953 )  
( -0.00222064 0.000771442 0.0122859 )  
( -0.000163714 -7.81999e-05 3.56949e-05 )  
( 0.000154524 -0.00170865 0.0101762 )  
( 0.00153873 0.00134664 0.0128236 )  
( -0.0011358 -0.00418102 -0.00180022 )  
( 0.000338159 0.000113976 -0.000567573 )  
( 0.00210188 0.000796913 0.00986121 )  
( -6.66784e-05 -0.000181927 3.81382e-05 )  
( 0.000594007 0.00101367 0.00893764 )  
( 0.00205454 0.00129353 0.010871 )  
( -0.000163734 0.000784026 0.0088407 )  
( -0.00039892 -0.000102122 -2.45725e-05 )  
( 0.00114835 0.000277431 0.0123323 )  
( 0.00134951 0.000610037 0.0108497 )  
( -0.000136906 1.21307e-05 0.000151677 )  
( 0.00130207 0.00154982 0.0114914 )  
( 0.00293421 0.00308879 0.0106928 )  
( -0.000810804 0.00167615 0.00896575 )  
( 0.000490953 0.000872607 0.00856153 )  
( 0.000578015 0.00100649 4.63819e-06 )  
( 0.000875002 0.000203095 0.000429959 )  
( -0.000479837 0.000914777 0.00940033 )  
( 0.00115333 0.00111736 0.010413 )  
( 0.000213829 -0.00057049 0.0105218 )  
( -0.00135561 -0.000245586 0.0116277 )  
( -1.53004e-05 -0.000242046 6.60054e-05 )  
( 0.00155982 -0.00268742 0.00870004 )  
( -0.000470123 0.00178189 0.00979809 )  
( -0.000118105 0.000542245 -5.10348e-06 )  
( 0.001444 -0.00352333 0.0123777 )  
( 0.00114474 0.00248726 -0.000376872 )  
( -0.000597908 0.00169303 -0.00171199 )  
( -0.00220087 0.000489403 0.0126573 )  
( 3.11999e-05 0.00208605 0.00933696 )  
( 0.000378973 -0.000987693 0.00955297 )  
( 0.000647244 0.000432188 0.0102156 )  
( 0.000447691 0.000922532 0.0102282 )  
( -0.000338711 0.00110651 0.00837641 )  
( -0.000305447 -0.000431432 0.0082645 )  
( -0.00123828 -0.000203105 0.0081756 )  
( 0.000210651 0.000533711 0.0115058 )  
( -0.000525548 0.00131941 0.0115502 )  
( 0.0018893 0.00195853 0.0104651 )  
( -0.00106522 0.00160984 0.00899973 )  
( 0.000302886 -9.22065e-05 0.000159785 )  
( 0.00127397 0.00026417 0.0104101 )  
( 7.53048e-05 0.00116225 0.0106213 )  
( -0.00124091 -0.000583972 0.0104754 )  
( -0.00138719 6.73263e-05 0.00978759 )  
( 0.00118281 -0.000793171 6.29717e-05 )  
( 0.000751116 0.000513757 0.00815884 )  
( 0.00156484 -0.000215734 0.0108431 )  
( -0.00162875 2.8036e-05 0.00872176 )  
( 0.000724382 0.00132356 0.0100373 )  
( 0.00308152 4.54901e-05 0.00954056 )  
( 4.32314e-05 0.000365804 0.0091031 )  
( 1.15279e-05 -1.26664e-05 -3.22525e-06 )  
( 3.06042e-05 0.00076024 0.00937727 )  
( -0.00341264 -0.000214274 0.013479 )  
( -0.000510757 -0.00176004 0.0086479 )  
( 0.00037341 0.00243943 0.0103367 )  
( -0.00194345 0.000548829 0.00992826 )  
( 0.000966694 0.00119348 0.00309434 )  
( 0.000446112 -0.000623401 0.000309553 )  
( 0.00046237 0.00104377 0.0104529 )  
( 0.0018531 -0.000593462 0.012012 )  
( 9.98632e-05 0.00158014 0.00856461 )  
( 0.00171449 0.00160909 -0.000468899 )  
( -0.000689863 -1.99196e-05 0.0130884 )  
( 0.00134586 -0.00083291 0.0118659 )  
( 0.0034881 0.00212403 3.32019e-05 )  
( -0.000211953 0.000378954 0.0108029 )  
( -0.000592085 -0.000260197 0.0119195 )  
( -0.000817593 0.0010451 0.0107703 )  
( -0.000263536 0.00100508 0.0103348 )  
( -0.0010797 -0.000954717 -0.00096151 )  
( 0.000431366 0.000339428 4.08215e-05 )  
( 4.38728e-06 -0.000502005 0.0101079 )  
( -0.000237214 0.000288713 0.0078183 )  
( -0.00156847 -0.000814755 0.00961489 )  
( 0.000603207 0.000478844 0.0109806 )  
( 0.000442093 -0.000280769 0.0115783 )  
( -0.00207381 -6.79176e-05 0.00863122 )  
( 0.00276207 2.11177e-05 -0.00136657 )  
( -4.30252e-05 0.000718842 0.0106851 )  
( 0.000412529 0.000351719 0.0108107 )  
( -0.00253987 0.00108131 0.0111734 )  
( -0.000221642 0.00063732 0.0101817 )  
( 0.00269991 0.000491814 0.000210316 )  
( -0.000804798 -0.00325536 0.0101767 )  
( -0.00236617 0.000128563 0.00362048 )  
( -0.00661197 -0.000605879 0.0120299 )  
( -0.000782267 0.000201311 0.00753751 )  
( 0.000445317 6.54564e-05 0.0101633 )  
( -0.00120578 -0.000687185 0.00580139 )  
( -9.71963e-05 -0.000329186 -7.96148e-05 )  
( -0.000249763 -0.000470502 -3.4791e-05 )  
( -0.000177195 0.00011026 -1.52839e-05 )  
( -0.00171867 -0.00122214 0.00890331 )  
( 1.20015e-05 0.00181854 0.00986108 )  
( 0.000585825 -7.10943e-05 0.0112361 )  
( 0.00114362 0.00222982 0.0104609 )  
( 0.00207668 4.293e-06 0.00985204 )  
( -0.00108531 -0.000510991 0.00897985 )  
( 0.000115658 7.36533e-05 -0.000108413 )  
( -7.05819e-05 -4.92853e-05 4.29329e-05 )  
( -1.37501e-05 0.000108237 8.20513e-05 )  
( -0.000559245 0.00154441 0.00708202 )  
( -0.0021639 0.00141353 0.00977668 )  
( 0.00221134 0.000710861 0.0109272 )  
( 0.000153877 0.00134688 0.00977367 )  
( -3.1506e-05 0.0005003 0.0118428 )  
( 6.06507e-05 5.97598e-05 0.00700245 )  
( 0.000849321 0.00113847 0.0102836 )  
( -0.000380053 -0.000198393 -0.000134555 )  
( 0.000600084 0.000787119 0.00955753 )  
( 0.000165174 -2.36935e-05 0.0100296 )  
( -0.00140548 0.00129083 0.0101526 )  
( -3.64256e-06 3.41626e-05 0.000108146 )  
( 5.42919e-05 0.000667332 0.0103436 )  
( 0.00030717 0.000616021 0.0121538 )  
( -4.10568e-05 0.00209097 0.00885923 )  
( 0.000935666 -0.00218092 -0.000771449 )  
( 0.000372487 0.000425104 0.0107874 )  
( 0.00103023 0.000481543 0.00906164 )  
( 0.00102629 0.00471199 0.00792268 )  
( 0.00133944 -0.000383307 0.00960333 )  
( 0.000212136 0.000123445 3.41068e-05 )  
( 0.000294019 0.00083582 0.0102324 )  
( -0.000395698 0.00170497 0.00738803 )  
( 0.00496154 0.000594253 0.0113629 )  
( 0.00179771 0.000267235 0.00897461 )  
( -0.000291735 6.6007e-05 0.0110817 )  
( 0.000981341 0.000381052 0.00924466 )  
( 0.000451814 -0.00100563 -0.0002755 )  
( -0.00177037 0.00189567 0.00900127 )  
( -6.98442e-05 0.000247179 0.000136695 )  
( -0.0043569 0.00102597 0.00472579 )  
( 0.000337963 0.00158309 0.010589 )  
( -0.0013521 0.000539877 0.00878476 )  
( 0.000744433 0.000249257 -4.67491e-08 )  
( -0.000249504 0.00122746 0.00777902 )  
( 0.00341178 -0.00487802 0.0101987 )  
( -0.000182652 -0.00077295 0.00608258 )  
( -0.00107162 -0.00177518 0.00895619 )  
( 0.000694027 0.000342206 0.00996352 )  
( 0.000890967 0.000835417 0.00988493 )  
( 0.000156223 0.00138456 0.0117485 )  
( 0.000660613 0.000491402 0.0107171 )  
( 1.60673e-05 0.00094782 0.00939281 )  
( 0.000500561 -1.27593e-05 -1.02734e-05 )  
( 2.43462e-05 -0.00105292 0.00716917 )  
( 0.00243697 -0.00099267 0.0119861 )  
( -0.000456442 0.00260904 0.00824785 )  
( 0.00191201 -0.000391373 0.00920762 )  
( 4.09855e-05 0.000856185 0.0107075 )  
( 0.00129088 0.00160257 0.00942956 )  
( -0.00089358 0.00115847 0.00971051 )  
( 0.000604206 0.00131885 0.0101425 )  
( 0.000562373 0.00109096 0.0108627 )  
( 0.00163214 0.00050895 0.0108015 )  
( 0.000567654 0.00144759 0.0104033 )  
( 0.000915934 -0.000610613 0.00930082 )  
( -0.00112492 -0.000292452 0.00969063 )  
( 0.000771301 -0.00122286 0.00948988 )  
( 0.000314923 -2.2954e-05 -2.67312e-05 )  
( 0.000551013 0.00198839 0.0108134 )  
( -6.64579e-05 -1.40962e-05 5.41097e-05 )  
( 0.00182837 0.000954805 0.0105481 )  
( 0.00218665 -3.53804e-05 0.00915555 )  
( 0.00130138 0.000586803 0.0112941 )  
( -0.000236087 0.00407565 0.00942101 )  
( 0.000105968 4.23956e-05 -1.55486e-05 )  
( -0.0026246 -0.0053571 0.0145029 )  
( 0.00243393 -0.00363156 0.00811721 )  
( -0.00169701 -0.000751183 0.00657123 )  
( 0.00147149 0.000979576 0.0109623 )  
( 0.00364376 0.00211307 0.0115941 )  
( 6.04812e-05 0.00239228 0.00765785 )  
( 0.00056749 -0.000943925 -0.000174409 )  
( 0.00163513 -0.00166136 -0.00124166 )  
( -0.000840933 -0.000807258 0.00855042 )  
( 0.000577682 0.000317287 0.00106456 )  
( 0.000547267 0.002011 0.00743184 )  
( 0.000536224 0.00310266 0.00996651 )  
( 0.0012358 0.000342885 0.0096937 )  
( -0.000190221 0.001439 0.00883683 )  
( -0.000256744 -5.43669e-06 0.00872038 )  
( 0.00117805 -0.000338999 0.00962916 )  
( 0.000480122 -0.00154823 -4.56159e-05 )  
( -1.62852e-05 7.96359e-05 -3.70327e-06 )  
( 0.000423926 0.00328134 0.0126604 )  
( -4.37513e-05 0.00115527 0.0108629 )  
( 0.000540438 0.000642702 0.0108268 )  
( 0.000872642 0.00031641 0.0115707 )  
( 0.00177321 0.00040124 0.00105131 )  
( 2.04431e-05 3.24721e-05 1.27894e-05 )  
( 0.000139844 -0.000133238 -0.000229906 )  
( 7.11246e-05 0.000856154 0.0110457 )  
( -1.78779e-05 -4.06897e-05 -2.59338e-05 )  
( 0.00380766 -0.00192075 0.00911793 )  
( -8.66755e-05 0.00221634 0.00966682 )  
( 0.000172859 -0.000207917 0.00852693 )  
( 9.85002e-05 -0.00272967 0.0068161 )  
( 0.000302187 -0.000597114 0.0110011 )  
( 0.000106409 0.000774523 3.94456e-05 )  
( -0.00280852 0.000206566 0.0112465 )  
( -0.00167504 -0.00142114 -0.00390662 )  
( 0.000829867 -0.000668274 0.0108836 )  
( 0.000723306 0.0019766 0.0110416 )  
( 0.00038673 0.000822719 0.00955077 )  
( 0.000142544 7.12454e-06 0.000145057 )  
( 0.00128373 0.00126558 0.0120435 )  
( 0.000820067 0.00156539 0.00909945 )  
( 0.000860292 -0.0008661 0.00875604 )  
( -0.00037053 -0.00042955 -0.000273132 )  
( -0.00398074 0.00452962 0.0128289 )  
( 0.00140439 0.00124205 0.012366 )  
( 0.00102003 -9.6876e-05 0.0109905 )  
( 0.00207319 0.000188946 -0.00077498 )  
( -0.000147323 -0.00111427 0.00904877 )  
( 0.000381086 0.00106179 0.0094812 )  
( 0.00122572 0.000687277 0.0109796 )  
( 0.000494327 0.00106741 0.0100716 )  
( 0.00213548 -0.000338636 0.00954909 )  
( 0.000460054 -0.00164607 0.00872895 )  
( 7.94746e-05 0.00034473 -0.000181943 )  
( 0.000118919 0.000638938 0.0100172 )  
( -2.01074e-05 0.00140535 -0.000492584 )  
( -0.00159 0.00170193 0.0179392 )  
( -2.62969e-05 0.000847699 0.010628 )  
( -0.0010147 0.00114921 0.00966685 )  
( 0.000245251 0.000288113 -1.53462e-05 )  
( -1.85515e-05 -0.000164101 1.10961e-06 )  
( 0.00118025 0.000752185 0.0106864 )  
( 0.000232755 0.000300779 0.00914695 )  
( 0.00156804 0.000134329 0.0111685 )  
( -8.78371e-05 0.000130071 -2.30654e-05 )  
( -0.00072013 -0.000463919 0.00681732 )  
( 0.000525262 -3.77968e-05 0.0113142 )  
( 0.000461767 0.000885031 0.0100926 )  
( 0.000882601 0.00106477 0.0101583 )  
( 0.000301784 -0.00106603 0.0109477 )  
( -0.000924403 -0.000879951 -3.00654e-05 )  
( -0.00136283 -0.00146462 0.00928943 )  
( -0.00157293 -0.00501641 -0.000190125 )  
( -0.000120465 2.52688e-05 -3.52186e-05 )  
( 7.80765e-05 5.71691e-06 -4.0959e-05 )  
( -0.00103078 7.01886e-05 0.0107342 )  
( 0.000139098 0.000704813 -0.00112126 )  
( 0.000543019 0.00120935 0.013726 )  
( 0.000301755 0.00145108 0.0117995 )  
( -0.000149753 -8.51118e-05 9.64163e-05 )  
( 0.0045647 0.00467831 0.0151623 )  
( -0.000543819 0.00164941 -0.000159587 )  
( 0.00113975 0.00201267 3.6125e-05 )  
( 0.000296526 0.000983298 0.0119347 )  
( -0.00125824 0.000463771 0.0101383 )  
( 0.00363636 0.00165408 0.0146629 )  
( -0.000984222 0.00199919 0.0100117 )  
( -4.77502e-05 -0.000287048 0.00906445 )  
( 0.000929957 0.000166754 -0.000306883 )  
( -0.00018102 -0.000120765 -1.65847e-05 )  
( 0.000152524 0.00490743 0.0113681 )  
( -0.000392941 -0.000487705 0.00948285 )  
( 0.000502499 0.000964007 0.010365 )  
( 0.00165106 0.00144533 0.00941704 )  
( -0.000379819 -0.00120456 0.00944 )  
( 0.00120146 0.00117613 0.0099835 )  
( 0.000580878 -0.00291102 0.00859265 )  
( -0.000102084 0.000207211 -3.28324e-06 )  
( -1.94388e-05 0.000287417 8.91521e-06 )  
( 0.00195076 0.000320399 0.0107837 )  
( 0.00579307 -0.00480372 0.012652 )  
( 7.22304e-05 -9.56494e-06 1.44717e-05 )  
( -0.00107401 -0.00037006 0.0111653 )  
( -0.00148595 0.000635847 0.00928207 )  
( 0.00256525 -0.000999193 0.00995196 )  
( 0.000446721 0.00107117 0.0110707 )  
( -0.000170845 0.000326665 0.0100918 )  
( 0.000256043 5.75324e-05 -0.000302343 )  
( 0.0019945 0.00337532 0.0123288 )  
( -4.96009e-05 0.00024665 -5.14792e-05 )  
( -0.000517534 0.00119106 0.0144422 )  
( 0.000724724 0.00232879 0.00922859 )  
( -0.0016766 -0.00126634 0.00521734 )  
( -0.000436594 -0.000661388 0.00858611 )  
( -0.00101613 -0.000528253 0.00889293 )  
( 0.00139152 0.00135772 0.0113685 )  
( -0.00312346 0.00236346 0.0115647 )  
( 0.000507518 2.22901e-05 0.0108428 )  
( -0.000586044 0.000826682 0.0100898 )  
( 0.000141979 3.36029e-05 -2.85147e-06 )  
( 3.7318e-05 0.00134484 0.0089569 )  
( 0.000474302 0.000387201 0.00963638 )  
( 0.000333758 0.00109515 0.00761682 )  
( 0.000440304 -0.000307512 -5.72761e-05 )  
( 0.00192659 0.000501816 0.0105782 )  
( 0.00113078 0.00174319 0.0123479 )  
( 0.00256621 0.00114908 0.0113905 )  
( -0.000983747 -0.00113663 0.00910263 )  
( 0.00266492 9.33659e-05 0.011395 )  
( -1.75464e-05 -6.21556e-05 6.89804e-05 )  
( 0.00174446 0.00249345 -0.000865236 )  
( 0.000828297 0.0014498 0.0100019 )  
( 0.000599836 0.00626087 0.0174425 )  
( -1.18674e-05 0.000710378 0.0112117 )  
( 0.00100782 0.000710107 0.0102786 )  
( 0.00214676 -0.000143312 -0.00154641 )  
( 8.47279e-05 -0.00132097 0.0103965 )  
( 0.00120809 0.000898705 0.0101035 )  
( -8.01896e-05 -0.000516421 1.63028e-08 )  
( 0.000233197 0.0013449 0.00841897 )  
( -0.00203606 0.00464751 0.00764953 )  
( -6.46727e-05 -0.000120557 -9.12256e-06 )  
( -0.000195758 -0.000849299 0.00630053 )  
( -0.000700781 1.84644e-05 0.00939222 )  
( 4.96487e-05 -0.000102202 -0.000161318 )  
( 7.53681e-05 -0.000113325 7.01659e-06 )  
( 0.00143501 -0.000290204 0.0107728 )  
( 0.00273953 0.000705996 0.010571 )  
( 0.000942249 0.00149785 0.0105739 )  
( -0.000322931 -0.000660067 9.56973e-05 )  
( 0.000281471 -0.000230928 -0.000106259 )  
( 0.00436053 0.00290518 0.0135562 )  
( -0.00113444 0.000179104 0.00748378 )  
( 0.00129115 -0.00282617 0.0099532 )  
( 0.00077958 -0.00126884 0.00767372 )  
( 0.000180915 0.000617819 0.00965996 )  
( 0.00260876 -0.00113555 0.0108184 )  
( 0.00152138 0.00196072 0.01538 )  
( 0.00184971 0.00190575 0.0115927 )  
( 0.000151238 0.00111224 0.0108871 )  
( 0.000643322 0.000990464 0.00743402 )  
( 0.00031403 0.00137279 0.00802918 )  
( -0.000801046 0.00140414 0.00811554 )  
( -0.00292736 0.00297329 0.00867573 )  
( 0.00125488 0.00178918 0.00675137 )  
( 0.00222927 -0.000303816 0.0119588 )  
( 0.000209209 2.21246e-05 0.0108652 )  
( -0.000636779 0.00150769 0.0103867 )  
( -0.000372153 0.000964738 0.00875079 )  
( -0.00414344 0.00247683 -0.0017276 )  
( 0.000333011 0.000126761 0.011102 )  
( -0.00153716 0.00105426 0.0129963 )  
( 0.00179557 0.00160927 0.0102475 )  
( 0.000545808 0.000773534 0.0100111 )  
( -0.000129765 0.00129216 0.0115721 )  
( -0.000479916 -0.000317192 0.00889342 )  
( -0.000737605 0.000123228 0.00973963 )  
( 9.28268e-05 0.000117371 2.74511e-05 )  
( 0.000569661 0.00130064 0.00894842 )  
( 0.00214252 0.00161981 0.0110722 )  
( 0.00364174 -0.00324006 0.00904338 )  
( 0.000428706 0.00229739 0.0100433 )  
( -0.000458656 0.000349163 0.0119402 )  
( 0.000143394 0.000180401 0.00983474 )  
( -6.16378e-06 -3.7165e-05 -1.85231e-05 )  
( 9.31533e-05 0.000196343 -0.000405467 )  
( 0.0045187 -0.00354952 0.0160156 )  
( 0.000551976 0.00194675 0.012261 )  
( 0.00118808 0.000172883 0.0103036 )  
( -0.000705773 0.00128565 0.00967184 )  
( 0.000917952 0.00691049 0.0116185 )  
( -0.000114835 -1.5825e-05 0.000103657 )  
( 0.000815872 0.000709508 0.0087449 )  
( -0.0029452 -0.00156232 0.00812152 )  
( 0.000695924 0.000122741 -0.000676225 )  
( -0.000156287 0.000464813 -0.000273247 )  
( -0.000100313 0.000273329 0.00940297 )  
( -6.68427e-05 -7.45469e-05 -6.53227e-05 )  
( 0.000387644 0.000783461 0.0101238 )  
( -0.000672105 0.000127386 4.066e-05 )  
( -0.000295743 -0.000462856 0.00904115 )  
( 8.38191e-05 0.000220515 2.79053e-05 )  
( 0.000170996 -0.000496916 0.011232 )  
( 0.00152321 -0.000191274 0.0109782 )  
( -5.75874e-06 -0.000266158 0.000250057 )  
( 0.00157163 0.00113944 0.0105902 )  
( -0.00018678 0.00200616 0.0100122 )  
( 0.00177015 -7.96616e-06 0.000269629 )  
( 0.000575744 0.000994861 0.0079131 )  
( 0.000499832 0.000386912 0.0101152 )  
( 0.000608023 0.000627892 0.0107048 )  
( 0.00165238 0.000830448 0.010575 )  
( 0.00107543 -0.00141557 -0.00145866 )  
( 0.00249472 0.00100106 0.00103105 )  
( 0.000770549 -0.000428193 -8.69427e-05 )  
( -0.000186382 -1.03501e-05 -0.000260158 )  
( -0.00235861 0.000248266 -0.00190093 )  
( 0.000273724 0.00135462 0.0125013 )  
( 0.000167742 -0.000205477 -3.76353e-05 )  
( 0.00186966 -0.000221938 0.00786289 )  
( 0.00194633 -0.00150003 0.00741609 )  
( 0.000299346 0.000950059 0.00974474 )  
( 0.00300608 0.00015798 4.49932e-05 )  
( -0.00113433 0.00124016 0.00902893 )  
( -0.000256558 0.00107649 0.0111664 )  
( -5.30565e-05 7.01756e-05 7.18135e-06 )  
( -0.00206791 0.000520383 0.0105875 )  
( -0.000142335 0.000100962 -2.49271e-05 )  
( 0.000629441 0.000481351 0.0103532 )  
( -0.00203092 -0.000356372 0.0107275 )  
( 0.000278952 0.000524853 -0.000635316 )  
( 0.000142146 5.36045e-05 4.43485e-05 )  
( 0.000955197 0.000141585 0.0117644 )  
( -0.000809057 0.000799366 0.0108967 )  
( 0.00127094 0.00100985 0.00989852 )  
( 0.000692573 -0.000244647 0.0105226 )  
( -0.00121919 0.000126426 0.0102175 )  
( 0.00175455 0.000955803 0.0111247 )  
( -0.000280296 0.00268255 0.0104653 )  
( -0.000458589 0.000390885 0.00015612 )  
( -0.000100177 0.00022078 -8.21693e-05 )  
( -0.000103371 0.00130971 0.0085605 )  
( 0.000172597 0.00187772 0.00970607 )  
( 0.000356923 0.00185422 -2.55517e-05 )  
( 3.76677e-05 0.00170585 0.0103513 )  
( -0.000182404 0.000722317 0.0099426 )  
( -0.000557716 0.000434213 0.0112157 )  
( -0.000333303 0.000491657 0.00851213 )  
( -0.000316217 0.00077602 -0.000525752 )  
( -0.000385686 7.55708e-05 -0.000527882 )  
( 0.000219086 0.000268364 0.00792621 )  
( 0.000415978 0.000842452 0.0101954 )  
( -0.00100481 -0.000165266 0.00666194 )  
( 0.000593052 0.00188083 0.0121059 )  
( 0.00163564 0.00101314 0.010436 )  
( 0.000211805 0.00150591 0.0108331 )  
( -0.000162463 0.000111419 -0.000131769 )  
( 0.00811076 0.00181486 -0.00646055 )  
( -0.000159827 9.16877e-06 5.76505e-05 )  
( -4.95403e-05 9.52589e-05 3.15324e-05 )  
( 0.000169902 6.60871e-06 6.98612e-05 )  
( -0.000415485 -0.000420039 -9.54558e-05 )  
( 0.000784308 0.0010563 0.0102452 )  
( -0.000956199 0.00286541 0.0131399 )  
( -0.000114879 0.000159354 -5.01553e-05 )  
( 0.00239092 0.00016701 0.0108325 )  
( 0.000624579 0.00214201 0.00919407 )  
( 0.00122801 0.000989255 0.00998404 )  
( -0.000471743 0.00117276 0.0113829 )  
( -0.000395606 -0.000385109 -0.000896584 )  
( 0.00120495 0.000696123 0.0105858 )  
( 0.000226312 0.000229999 -0.00198351 )  
( -0.000502717 -0.000834507 0.0119843 )  
( -0.00162438 -0.00286166 -0.00135412 )  
( 0.00150055 -0.000268879 0.0104944 )  
( 2.54871e-05 8.35676e-06 -4.74789e-06 )  
( -0.000138611 0.000741905 0.00913919 )  
( -0.00202613 0.000920639 0.00745493 )  
( -0.000189276 -4.74906e-05 -6.73969e-06 )  
( -0.00193021 -0.00273132 0.00922274 )  
( 0.000381402 0.000799396 0.00739681 )  
( 0.000826514 0.00145486 -0.00109484 )  
( 0.00031699 0.000395411 0.00838121 )  
( 0.000334355 0.000751605 0.00859716 )  
( 0.00119347 -0.000706112 0.00819547 )  
( -4.96521e-05 0.000375441 0.011311 )  
( -0.000579651 0.00371944 0.00925833 )  
( -0.00309013 0.00344363 0.00809939 )  
( -0.000985957 0.00113757 0.0088865 )  
( -0.000741563 -3.9122e-05 0.0067529 )  
( -0.000258776 -0.000128692 0.00879188 )  
( 0.00263336 -0.00106668 0.0107054 )  
( 0.00345036 -0.000425529 0.00741051 )  
( -0.000415941 -0.000776074 0.0116615 )  
( -0.000211552 0.0007145 -9.56942e-05 )  
( 0.000770058 0.00263524 -4.78114e-05 )  
( 0.00114159 0.00191801 0.0110314 )  
( -0.00383889 -0.00285089 0.0166579 )  
( 0.000707359 -0.000399626 -3.44835e-05 )  
( -0.000341959 0.000356727 0.0097503 )  
( 0.000601861 -0.000413535 0.0110546 )  
( 0.000623137 0.000584786 0.00964957 )  
( 0.000630755 0.00190814 0.00979489 )  
( -2.07083e-05 0.000554826 0.0113696 )  
( -0.00077417 0.0025763 -0.000649171 )  
( 0.00170983 0.00211851 7.68647e-08 )  
( 8.66616e-05 0.00276345 0.011627 )  
( 0.000698311 0.000576332 -0.000154977 )  
( 0.000911029 -0.000923689 0.000126312 )  
( 0.00217576 0.000549522 0.00699818 )  
( 0.000609328 0.000382004 0.0108003 )  
( 0.000456477 -8.8927e-05 0.0121216 )  
( 0.000119422 0.00116637 0.00774426 )  
( 0.000375732 0.00030299 -0.000323152 )  
( -0.000381806 0.00146879 0.0113096 )  
( -6.40336e-06 -0.000310751 0.0111488 )  
( 0.000556435 0.00138248 0.00804815 )  
( 0.000819626 0.00542134 0.0135322 )  
( 0.000286013 0.000719695 0.010331 )  
( 0.000644896 0.00199885 -0.000295261 )  
( 0.000745459 0.000983805 0.0110519 )  
( -0.000429963 7.12185e-05 0.0116127 )  
( 0.00370624 -0.000259381 0.0102704 )  
( -0.0018053 -0.000654921 0.00750223 )  
( 0.00199431 0.000234768 0.0114521 )  
( -0.000716353 0.00012285 -0.000585003 )  
( 0.000993296 -4.72767e-05 -9.91793e-05 )  
( 0.00158345 -0.00105239 0.0105024 )  
( 8.30054e-05 2.6613e-05 -7.01128e-05 )  
( -0.000249587 0.000649293 -2.77273e-05 )  
( 0.00369937 0.000905397 0.0126728 )  
( -1.54177e-05 0.000313396 -0.000196837 )  
( 0.00209358 -0.000449125 0.00965661 )  
( 0.000943281 -0.000748081 0.00879558 )  
( 0.00073553 0.000813213 0.0102885 )  
( -0.000720335 0.00164714 0.010296 )  
( -9.48633e-05 0.000220446 -4.06688e-05 )  
( 0.000634495 0.00134298 0.0103497 )  
( 0.00100741 0.00198617 0.00803776 )  
( 0.00121182 0.000959639 -0.000179298 )  
( 0.00189967 0.000514565 0.00827923 )  
( 0.000859754 -0.000984746 0.00963198 )  
( -0.000330827 3.16439e-05 0.0102443 )  
( 0.000931326 -0.00061323 0.008607 )  
( -0.00213343 0.0033149 0.0146629 )  
( -0.000258767 -3.45438e-06 -5.5204e-05 )  
( 0.000191877 -9.22127e-05 4.69931e-06 )  
( -0.00129603 0.000790821 0.00364893 )  
( 0.00210324 0.00155048 0.0119246 )  
( -0.00102383 0.00105893 0.0103485 )  
( 0.000396266 0.000611505 0.0101358 )  
( 0.00242208 -0.0011038 0.0102855 )  
( 0.00255215 -0.000254798 0.0114499 )  
( 0.00118464 -0.000224577 0.0108954 )  
( 0.00117523 -0.00145152 0.011439 )  
( -0.000435691 0.000566194 -0.000113447 )  
( 0.00296153 0.00138139 0.00611949 )  
( 0.00181213 0.000143341 0.0103061 )  
( -0.00427023 -0.00322771 0.0105339 )  
( 0.000261661 0.000675349 0.00930574 )  
( 0.000190406 0.000424737 3.19667e-05 )  
( 2.7432e-05 0.000174636 -2.27953e-05 )  
( -0.00180798 -0.00105166 0.0110428 )  
( 0.00307724 0.00115253 0.00982081 )  
( 8.73182e-05 0.000379306 -3.47445e-05 )  
( 0.0028123 0.00417332 -0.000565142 )  
( -0.000382997 0.000546138 0.0105407 )  
( 0.000820145 0.00084411 0.0106721 )  
( 0.00066925 0.00132247 0.0102805 )  
( -2.57962e-05 -4.50037e-06 -0.000166864 )  
( -0.000492879 0.00305171 0.00903181 )  
( 7.023e-05 0.00116408 0.00743571 )  
( -0.000527747 -0.00108443 0.00945316 )  
( 0.000904958 -0.000461009 0.00735532 )  
( 0.000288478 -0.000597719 -0.000333743 )  
( 0.00116603 0.000626408 0.0122395 )  
( 2.6754e-05 9.8686e-05 1.33313e-05 )  
( -0.000823164 -0.00132321 -6.68073e-05 )  
( -0.000777697 -0.000399895 0.00770995 )  
( 0.00280406 0.00105702 -0.000541678 )  
( 0.00402225 -3.19193e-05 0.0133684 )  
( 0.000104838 9.08482e-06 0.00114049 )  
( -0.000750726 -0.000290859 0.0103791 )  
( -0.000238782 2.65109e-05 0.00707377 )  
( -0.000639214 1.40895e-05 0.00982757 )  
( -0.000478481 0.000196956 0.0103221 )  
( 0.000108577 -0.000681828 -8.25871e-06 )  
( -0.000117763 0.000556935 0.0116249 )  
( -0.000362898 -0.000246063 -0.000183154 )  
( -0.000859344 0.00169137 0.00953962 )  
( 0.00229468 -3.87541e-05 0.0105213 )  
( -0.000251106 -0.000327615 0.0100518 )  
( 0.00158077 0.00173046 0.0113425 )  
( -0.00134393 0.00104515 0.00820278 )  
( -0.000384631 5.93963e-05 0.00538731 )  
( 0.00141817 -0.000451391 0.00919731 )  
( 0.00107454 0.000363195 0.00808525 )  
( 0.0029383 -0.00124622 0.0095753 )  
( 0.00108349 0.00111591 0.0109323 )  
( -5.29233e-05 -1.33594e-05 -9.26685e-05 )  
( 1.57118e-05 1.27538e-05 5.85995e-05 )  
( -0.000668761 -0.000572813 0.00941029 )  
( 0.000109347 -1.00467e-05 -4.89166e-06 )  
( -0.000880422 -0.00122726 0.0107672 )  
( 0.00133695 0.000617897 0.0107719 )  
( 0.00157337 4.5175e-05 0.0100346 )  
( -0.000412204 -0.00013966 0.00737261 )  
( 0.00144208 -0.00433678 0.0158598 )  
( -0.00157521 0.0013974 0.0143026 )  
( 0.000530711 0.00380822 0.00921798 )  
( 0.000867241 -0.00288911 0.0103913 )  
( -0.00118864 -0.000997086 -3.3284e-05 )  
( 5.02902e-05 0.000799393 0.0115164 )  
( -0.000391871 2.99179e-05 -0.000587997 )  
( 0.000737526 -0.000418291 -0.000604752 )  
( 0.000647105 -0.000141912 0.0103237 )  
( -7.92748e-05 -0.000735972 0.0102312 )  
( 0.00120398 -0.0014438 0.0118702 )  
( 0.000856192 0.00169128 0.0103292 )  
( -0.000619565 -0.00134792 0.00821477 )  
( -9.4717e-05 0.000359534 -0.00117862 )  