FoamFile
{version 2.0; format ascii;class vectorField; location 0;object  v;}
2469
(
( 0.00101399 -3.52099e-05 0.0110332 )  
( 0.000408433 1.38275e-05 0.0113374 )  
( -0.000123315 0.00096932 0.00944036 )  
( 0.000899532 0.000297524 0.0108789 )  
( -0.00303874 -0.000439562 -2.42588e-07 )  
( -2.6969e-05 0.000900208 0.0115539 )  
( -0.000322272 0.000678483 0.0100928 )  
( 0.000124477 0.000798991 0.0096693 )  
( 0.000126846 0.0018329 0.0103792 )  
( -0.0003228 0.0003998 0.0114844 )  
( -0.00143216 0.00206791 0.00772451 )  
( 0.00130589 0.00166069 -0.000219661 )  
( 0.000389805 -0.00016713 -1.9468e-05 )  
( -0.00101544 0.000954768 0.00968604 )  
( 0.000319847 0.000676187 0.00791436 )  
( 0.000408548 0.000120656 0.0106106 )  
( 0.000788943 -0.00256238 -0.0012822 )  
( -0.000374178 0.000497505 0.0114614 )  
( -0.000566915 0.00037734 0.0117224 )  
( -0.000201269 -1.28986e-05 8.25546e-07 )  
( 7.48936e-05 0.00120043 0.0108867 )  
( 7.27419e-05 0.000738323 0.00734505 )  
( -0.00181375 -0.000796273 0.00954269 )  
( -0.000129463 7.20013e-05 0.011003 )  
( 0.000331649 0.000421445 0.0105099 )  
( 0.000588992 0.000147944 0.0115871 )  
( -0.000242016 0.000184166 -0.000279274 )  
( 0.00289606 0.00345326 0.0117718 )  
( 0.00056773 0.000552422 0.0109201 )  
( -0.000780339 -0.000490928 0.0116871 )  
( 0.000631333 -0.000509467 -5.62432e-05 )  
( -9.1226e-05 6.52002e-05 7.21814e-05 )  
( 0.000578106 -0.00156808 0.012974 )  
( 0.00014797 -0.000133823 0.00692992 )  
( -0.000553768 0.000500979 0.00626428 )  
( -0.00262504 0.00522744 0.0127373 )  
( -0.000924955 -0.00201932 0.00856583 )  
( -0.00171775 -0.00022589 0.00979491 )  
( -0.000639562 0.000563721 0.00785949 )  
( 0.000141759 -0.000182157 -5.83013e-06 )  
( -0.000535557 -0.000156069 0.00742349 )  
( -0.000349427 0.00415338 0.00716689 )  
( -1.13266e-05 -0.000515927 0.00508916 )  
( -0.00136769 -0.000915439 0.0081744 )  
( 0.00189132 -0.000940632 0.00704166 )  
( -0.00254935 0.000692335 0.00766349 )  
( 1.61836e-05 0.00208124 0.010105 )  
( -0.00219541 0.000914195 0.0089286 )  
( 0.00139237 -0.00071934 0.0102867 )  
( 0.000133444 0.000518475 0.011295 )  
( 0.00132439 0.00279692 0.00891484 )  
( 0.000851171 -0.000392348 -0.000574756 )  
( -0.00028733 0.000302367 0.0104458 )  
( 0.00115067 0.000119839 0.00933748 )  
( 0.000129692 0.000122193 3.61602e-05 )  
( -0.000253147 0.000239648 0.0112057 )  
( 0.000338909 -8.11616e-05 0.0117084 )  
( 0.000508791 4.27198e-05 0.000482593 )  
( 0.000665962 -0.000119503 0.0109324 )  
( 0.000525317 -0.000945666 -0.000310282 )  
( 0.000713551 -0.000468566 0.01071 )  
( 0.00172165 -0.000963598 -0.000947767 )  
( 0.000669951 -1.04699e-05 0.0112742 )  
( 0.000604824 -0.00192059 0.00904425 )  
( 0.000227202 -7.10428e-05 4.36862e-06 )  
( -0.000285033 0.00290158 0.00976661 )  
( 0.00239508 0.0013613 0.000622854 )  
( 0.000253874 -0.00130526 -5.54125e-05 )  
( -0.00165234 0.00123669 0.0104199 )  
( -0.000735166 -0.00122677 0.00681746 )  
( -0.00176336 0.00338502 0.0130285 )  
( -0.000261545 -8.60252e-05 9.20878e-05 )  
( 0.000653481 0.000470091 0.0101498 )  
( 0.00162489 0.0025703 0.00839294 )  
( 0.00024987 -8.48755e-05 -5.25428e-06 )  
( -0.00103832 0.00168721 0.00653056 )  
( 0.00139903 0.000596933 0.0105421 )  
( 0.000256082 0.000182672 0.000163485 )  
( 0.0019999 -0.000761291 0.00985685 )  
( 0.0001722 0.00217388 0.00861061 )  
( 0.000273657 2.86722e-06 0.0110743 )  
( 0.000251154 0.000287245 -0.000153449 )  
( -0.000542122 0.00070978 0.0105752 )  
( 0.00480282 -0.00340131 -0.000691523 )  
( -0.000154851 0.00085978 0.00904783 )  
( -0.000153862 0.00112318 0.0103104 )  
( 6.44366e-05 0.00131872 0.0107333 )  
( -0.000815643 0.0010934 0.0109732 )  
( -0.000577804 0.000167768 0.00967429 )  
( -0.00086782 -1.95442e-05 -0.001987 )  
( -0.000635761 -0.000423895 0.00118518 )  
( 0.00111295 -0.000577904 0.0130224 )  
( -0.00157197 -0.00125821 -0.00034626 )  
( -0.00237986 0.000113889 0.0100265 )  
( 0.000660428 0.00062765 0.0123572 )  
( 0.000197408 -0.00056599 0.0104849 )  
( 0.000332044 -3.89144e-05 -0.000168775 )  
( -4.65809e-05 6.24038e-05 -0.000259509 )  
( 0.00105375 0.000619353 0.0105248 )  
( 0.000154046 0.000218331 0.0108749 )  
( -9.00224e-05 -0.00389237 0.00632626 )  
( 0.000258795 0.000673253 0.011307 )  
( 0.000565003 -0.000200291 1.15879e-05 )  
( 0.000440052 0.000252309 0.0109047 )  
( -0.000143539 0.000232973 0.00880753 )  
( -0.00014759 0.000133946 -0.000198642 )  
( -0.00101137 0.00555939 0.00794054 )  
( 0.00121256 -0.00191133 0.011757 )  
( -0.00158521 0.000959211 0.0115492 )  
( -4.59966e-05 0.000666353 0.0113426 )  
( -0.000987766 0.000577089 0.0121331 )  
( -0.00113886 0.00161534 0.00941502 )  
( 0.00119029 0.000260647 0.0110515 )  
( -0.00337173 0.000951127 0.00973648 )  
( 0.000550277 2.06367e-05 -0.00149597 )  
( 0.000252854 -4.70892e-05 -2.53489e-05 )  
( 0.000341081 -0.000688899 -1.5924e-05 )  
( 0.000196966 0.00119422 0.00986994 )  
( 1.28793e-05 -0.00012826 -3.13923e-05 )  
( -0.000420489 0.000148385 0.010109 )  
( 0.00157637 -0.000743639 -0.000476931 )  
( -0.000817533 -0.000812206 0.00854665 )  
( -0.00149459 0.00179576 0.011572 )  
( 0.000467198 -0.00151922 0.0107213 )  
( 0.000454689 0.000780306 0.0107368 )  
( 0.00101824 -0.00152418 0.0106067 )  
( -0.000734091 -0.000111267 -0.000205357 )  
( 0.00148915 -0.000674486 0.0105906 )  
( -0.00286512 -0.000501557 0.0110461 )  
( -0.000395199 0.00180874 0.00767761 )  
( -0.000370733 0.000243081 0.0104601 )  
( 0.000169045 -0.000243603 -1.18189e-05 )  
( -0.000141644 0.000765639 0.0107288 )  
( -0.00252036 0.00126648 0.00925937 )  
( 0.0042885 0.00135157 0.00855343 )  
( -0.000565841 -0.00121267 0.00791329 )  
( 0.00133731 -0.000174749 -0.00286234 )  
( -0.00105818 -0.00104604 0.0115189 )  
( -0.000725221 0.00118725 0.00801084 )  
( -0.000925261 0.000770243 0.0105876 )  
( -0.00015101 -0.000455783 0.0104715 )  
( 0.000738569 -0.00040848 0.0144789 )  
( 0.00181184 -0.00169605 0.0109945 )  
( -0.000692742 -0.000474504 0.00891885 )  
( 0.000977225 -3.81444e-05 -0.000184083 )  
( 5.8941e-05 -0.000101656 -0.000152111 )  
( 0.00134825 -0.000651233 0.00716757 )  
( -0.000132389 -0.000623693 -8.37056e-05 )  
( 0.000200524 -0.000433912 -0.000223378 )  
( 0.000495976 0.000793495 0.00964418 )  
( 0.000638157 0.000232385 0.00891031 )  
( 0.00141756 0.000754156 0.00914492 )  
( 0.00056996 0.00106409 0.00988679 )  
( 0.0017235 -0.000539584 0.00975737 )  
( 0.000408985 0.000401266 0.0100934 )  
( 0.00095018 4.19407e-05 0.010033 )  
( 0.000629897 0.000621499 0.0102365 )  
( 0.000745393 0.000874002 0.00909601 )  
( 0.00116968 0.000175181 0.0114725 )  
( -0.000255954 0.000193004 -0.000342764 )  
( 0.000180756 -0.000254835 0.0112019 )  
( 0.000552863 0.000740424 0.0119391 )  
( 9.7282e-05 -0.00016909 0.0107636 )  
( 0.00191914 0.000341655 0.0103965 )  
( -0.000178643 0.000616854 0.010325 )  
( -0.000259737 0.000925342 0.00107868 )  
( 0.0017498 0.00283497 0.0100656 )  
( 0.000816723 0.00172533 0.0122751 )  
( 0.000254916 0.00106699 0.00891625 )  
( 0.00050117 0.000211855 1.35169e-05 )  
( -0.00131336 -0.00198869 0.00670766 )  
( 0.000961331 0.000917974 0.00865953 )  
( 0.00257298 0.000123085 0.0127245 )  
( -0.000236431 0.000149562 -9.39438e-05 )  
( 0.000380185 0.000150252 0.0117072 )  
( 0.00160022 -0.000460751 -0.000250365 )  
( 0.00237243 0.00073676 -0.000120015 )  
( 0.00148977 0.000479543 0.0122127 )  
( 6.10173e-08 0.0012904 0.00834468 )  
( 0.000993684 0.000363055 0.0100177 )  
( -2.62957e-05 -0.000323187 0.0106965 )  
( 0.000669695 -0.000344968 0.0102549 )  
( 0.000521439 -0.00111364 -0.00160044 )  
( 0.00228763 0.000366818 0.0103263 )  
( -4.44671e-05 -0.00244873 -0.0029947 )  
( -0.000430055 -0.00121294 0.00957288 )  
( 0.000374094 0.000863521 0.010742 )  
( -0.00207246 -0.0023722 0.0155255 )  
( 0.000961991 -0.000518363 0.0111624 )  
( 0.000357494 -0.00146222 0.00723294 )  
( 0.000236309 0.000103095 -0.000349288 )  
( 0.00226049 -0.00205211 0.00516216 )  
( 0.000275393 0.000851967 0.00990936 )  
( 0.00022886 0.000228593 0.00970064 )  
( 0.00149108 -0.0041453 0.0158744 )  
( 0.00105091 -0.000132506 0.0107792 )  
( -0.00145377 -0.00205097 0.00454402 )  
( -0.00151701 0.00204722 -8.12446e-05 )  
( -0.000196047 8.65889e-05 0.010272 )  
( 0.00310145 0.000372827 0.011377 )  
( 0.00416336 0.000765426 0.00711474 )  
( 0.000163334 -0.000166431 6.57439e-06 )  
( -1.2509e-05 4.02274e-05 -1.2563e-05 )  
( 0.000597076 -0.000280461 0.00831102 )  
( 0.000235345 0.00019433 0.0113423 )  
( -4.51068e-05 7.21154e-05 -0.000218301 )  
( 0.000832119 -0.000549544 0.00960432 )  
( 6.88315e-05 -0.000595912 9.82991e-05 )  
( -0.000495143 -9.85506e-05 0.00832444 )  
( 0.00116067 0.0010019 0.0128134 )  
( -0.000311714 -0.000147622 7.34396e-05 )  
( -0.000107174 0.00148452 0.0102703 )  
( -0.000255163 -6.4544e-05 2.0673e-05 )  
( -0.000582735 -0.000241137 0.00982362 )  
( -0.000857541 -0.000459804 -2.88357e-05 )  
( 0.00165146 0.000152003 0.0105381 )  
( 0.00089116 -0.000834235 0.00922166 )  
( -0.000166109 0.000486222 0.0109581 )  
( 0.000575742 0.000953879 5.03719e-05 )  
( 0.000268407 0.00127057 0.0103752 )  
( 0.00279726 -0.0018096 0.0112833 )  
( 0.000537677 -0.00222467 0.00980896 )  
( -0.000241049 -1.09752e-05 -5.69831e-05 )  
( 0.000456145 0.00113707 -0.000963862 )  
( 0.000341664 0.000954265 0.00935393 )  
( -0.00109282 0.00143157 0.0064862 )  
( 0.00300816 -0.000303931 0.0113725 )  
( 6.72663e-05 -0.000287728 -2.67978e-05 )  
( 0.0021963 0.00336119 0.0179871 )  
( -0.000639312 -0.000421729 0.0103564 )  
( 0.000163363 -0.000114094 1.09319e-05 )  
( 9.85525e-05 -0.000572635 0.0103535 )  
( -0.000639709 0.00164172 0.0121862 )  
( 1.13421e-05 -6.94654e-05 -4.21742e-05 )  
( 0.00216012 -0.000704909 0.00946778 )  
( 0.00401419 -0.00291144 -0.00115084 )  
( 0.00142227 -0.00241966 0.00967013 )  
( 0.00131193 -0.000596248 0.00893578 )  
( -0.00130866 -0.000755049 0.0100324 )  
( 0.00170637 9.08236e-05 0.00837435 )  
( 0.000111894 -0.00116701 0.0100435 )  
( 0.00031158 2.07084e-05 -2.34956e-05 )  
( 0.000145548 0.000688991 0.00720477 )  
( 0.000265705 2.84784e-05 -6.89129e-05 )  
( 0.000206401 -0.000121177 -6.72392e-05 )  
( 0.000483092 -0.000340573 0.00026326 )  
( -0.000653813 -0.00109314 0.0074867 )  
( 0.00064858 -0.000166923 -4.87e-06 )  
( 0.00148278 -0.000563868 0.0138308 )  
( 0.000351087 -0.000606207 0.0109293 )  
( -0.000384265 0.00174438 0.0104354 )  
( -2.37552e-05 -0.00023746 -8.86144e-05 )  
( -0.000460147 0.00142255 0.0107676 )  
( 0.00047747 0.00142177 0.0100068 )  
( -0.000419028 0.000318129 0.0111088 )  
( 2.76748e-06 -0.00350121 0.000127955 )  
( 0.000191556 -0.00127104 0.0104873 )  
( 0.000265738 1.48774e-06 0.0105992 )  
( -0.000225727 -0.00138741 0.0104903 )  
( -0.000195901 7.53222e-05 -5.4113e-05 )  
( -0.000945647 0.000130296 0.0108306 )  
( 0.000418767 0.00116277 0.00480981 )  
( 9.39407e-05 0.00162113 0.0097479 )  
( -0.000164224 -7.8703e-05 8.76547e-06 )  
( -0.00156058 0.00127691 0.00686416 )  
( 0.00166254 0.00059629 0.00777031 )  
( -7.07479e-05 -0.000107684 -2.57701e-05 )  
( 0.000137081 -0.000140125 0.0110786 )  
( 0.000499849 0.000702901 0.0107339 )  
( -0.000334394 -0.000411142 -0.0007783 )  
( -0.000134768 -0.000488065 0.0106801 )  
( -0.000949612 0.00152764 0.00721236 )  
( 3.36466e-05 -3.01302e-05 -0.00104387 )  
( 0.000216751 1.05622e-05 -3.01826e-05 )  
( -0.000230407 0.00154526 0.0124365 )  
( -8.99403e-05 0.000136876 -2.50854e-05 )  
( 8.89844e-05 -6.2214e-05 -8.17965e-05 )  
( 0.00294954 0.000293165 0.00995552 )  
( -0.000174001 -3.55139e-05 0.0112191 )  
( 0.000431547 6.38329e-05 8.6767e-05 )  
( -0.00468318 0.00113513 -8.99765e-08 )  
( 0.00317715 -0.00125337 0.010078 )  
( 1.03809e-05 -2.78852e-06 6.17101e-05 )  
( -0.000107476 -0.000322294 5.31473e-05 )  
( -0.00140671 0.000526204 0.00645039 )  
( 0.000384531 0.000349673 0.00882676 )  
( -0.000372766 0.000404261 0.00010662 )  
( 0.00139882 0.00268537 0.0108476 )  
( -0.000303419 0.000749697 0.00839473 )  
( 1.93269e-05 0.000728118 0.0095127 )  
( -0.000216888 0.00149163 0.00985706 )  
( -4.31852e-05 -0.000599158 0.0110348 )  
( -0.000395893 0.0003796 0.000155117 )  
( 0.00129571 0.00101474 0.0126962 )  
( 0.000341858 0.000329537 -0.000388873 )  
( 0.00156221 0.00220055 0.0127797 )  
( -0.000799754 0.000658262 0.00984923 )  
( -0.00131128 -0.00134523 0.0116894 )  
( 0.00043701 0.00147923 0.0101191 )  
( 0.000162813 -0.000732735 0.0108096 )  
( 0.000541331 -0.0020363 0.00850819 )  
( -0.000436676 0.00258138 0.00768261 )  
( 0.0010165 -0.00144024 0.0110696 )  
( -5.54258e-07 0.00020071 0.00760251 )  
( 0.000293222 0.000247023 0.0102981 )  
( -0.000247092 0.00125148 0.0101748 )  
( -0.000223715 -0.000174284 4.4453e-05 )  
( 0.000112172 0.000284225 -0.000390438 )  
( 0.000197545 -1.82584e-05 -1.64343e-05 )  
( 0.000148298 0.000497496 3.2186e-05 )  
( 0.000438539 -0.000844305 0.0101439 )  
( 0.00224719 -0.00194165 0.00882987 )  
( 0.00013527 0.000316018 0.0104461 )  
( 0.00804276 -0.00166515 0.00865002 )  
( 0.000609516 -0.00258629 -0.000572098 )  
( 0.00240076 0.000848203 0.00841881 )  
( 0.000586362 -0.00147994 0.0109779 )  
( 0.00308488 -0.000612162 0.0113373 )  
( 0.00208262 0.000138297 0.00964159 )  
( 0.000140984 -9.06821e-05 0.0114915 )  
( 0.0047483 0.000329278 0.0131152 )  
( 0.000879909 -0.00111258 0.00978878 )  
( 0.00052079 0.000975484 0.0113825 )  
( 0.000587945 -0.000662971 0.00904254 )  
( 0.00322402 -4.72156e-05 0.0112212 )  
( 0.000709914 0.00211315 0.00996767 )  
( 0.000644556 0.000487015 0.0104243 )  
( 0.00132417 0.00181663 0.00912364 )  
( 0.000539395 -0.000343702 0.00755586 )  
( 0.00194011 0.00138239 0.00919029 )  
( 0.00116545 0.0015115 -0.000916741 )  
( -0.000555814 0.000433073 0.0105207 )  
( -0.000126381 -0.000263764 -2.58023e-05 )  
( 0.000939715 -0.000250724 0.011166 )  
( 0.000388834 0.00130331 -0.00399688 )  
( 0.000156726 -0.000369687 0.0100927 )  
( 0.000626064 0.00112945 -2.77682e-05 )  
( 0.000193886 -0.000297889 0.0103547 )  
( 0.000401303 -0.000469811 -0.000342233 )  
( 0.000356526 -0.000214822 0.010663 )  
( -0.000454067 0.00110492 0.00786069 )  
( -0.000402562 -0.000592533 0.000138962 )  
( -0.000363188 0.000813304 0.00899109 )  
( 0.000763053 0.00108975 -0.00144702 )  
( -0.00287754 0.00590334 0.0107902 )  
( 2.37363e-05 0.00231347 -0.000361524 )  
( 0.000746805 -0.00151674 0.000143905 )  
( 0.00164485 0.000720773 0.0103819 )  
( 0.000359855 0.000474573 2.11359e-05 )  
( -0.000308588 0.000542889 0.010769 )  
( -0.000421277 0.000818077 0.00991186 )  
( 0.00300569 -0.00026726 0.0139468 )  
( 3.7704e-05 0.000132127 0.010873 )  
( 0.000295488 0.000588879 0.0107248 )  
( -0.000909715 0.000991042 0.00980113 )  
( -0.000488035 1.52896e-05 9.87867e-05 )  
( 0.00144865 -0.00136845 0.0105719 )  
( 0.00275957 0.000811578 -0.00402031 )  
( -0.000673879 -0.00060945 0.00754658 )  
( -0.000162626 -2.03934e-05 2.95521e-06 )  
( 0.000202885 -0.00066032 -8.94141e-05 )  
( 0.0014119 -0.000214822 0.0103444 )  
( 0.00021836 -0.00161228 0.00758945 )  
( -4.76066e-05 0.000955841 0.0112421 )  
( 0.00022514 -0.000109271 0.00775426 )  
( 0.000995374 -0.000342947 0.000830179 )  
( 0.00338771 0.00192814 0.0105597 )  
( 0.00276722 -0.00231086 0.00618672 )  
( -0.000129248 0.00052723 0.0107516 )  
( 0.000232494 0.000989565 0.0128092 )  
( 8.46107e-05 0.00174734 0.0112429 )  
( 3.00404e-05 0.000104674 -3.84123e-05 )  
( -6.97514e-05 -0.000198631 0.0107702 )  
( 9.3482e-05 -4.84461e-05 -3.64822e-08 )  
( 0.00294762 -0.00189235 0.00891559 )  
( 0.00109734 -0.00057707 0.0105166 )  
( -0.00064266 -0.000656487 -0.000811842 )  
( 0.000137156 0.00174363 0.00869036 )  
( -0.000628604 0.000478487 0.00983947 )  
( 0.000579312 0.0015098 0.0103054 )  
( -0.00256054 -0.000580416 0.00764914 )  
( 0.00180478 -0.004026 0.0136634 )  
( -0.000303915 -0.000232389 0.0109301 )  
( -0.000538512 -0.00128113 -0.00027026 )  
( 3.91987e-06 -0.000104944 -0.000191272 )  
( 0.000707322 -0.00115959 0.00896297 )  
( 0.000131429 0.000273777 -0.000247872 )  
( -0.00105728 0.000913824 0.00896064 )  
( -0.00287247 -0.00112044 0.00618115 )  
( 0.00012557 -0.00106676 0.00894949 )  
( 0.000679393 6.6209e-05 0.0103456 )  
( 0.000733351 -0.000401132 0.00925338 )  
( 0.000920956 0.000488219 -5.89106e-05 )  
( -0.00207037 0.00285104 0.00803345 )  
( 0.00185567 -0.000945405 0.0118195 )  
( -0.0015221 0.000610359 0.00955719 )  
( -0.00128606 -0.00101514 0.0129114 )  
( 0.000369937 0.000509335 0.0107343 )  
( 0.000323461 -2.02818e-05 0.000337245 )  
( -0.000283005 -0.000426597 0.000546205 )  
( -0.00117444 0.00108026 0.00915141 )  
( -0.000327673 -0.00101471 0.00879841 )  
( 0.000532153 0.00150401 0.00963143 )  
( 0.000126457 3.65235e-05 1.19585e-05 )  
( 0.000812148 0.00100011 0.0115386 )  
( -0.00124727 0.00310033 0.0133768 )  
( 0.000438877 -0.000855635 0.0101216 )  
( 4.16482e-05 0.000463635 0.0065203 )  
( -0.00735388 0.00424273 0.0138158 )  
( -0.00148153 0.000440322 0.00720324 )  
( 0.00117225 0.000942962 0.00736491 )  
( 0.000555598 -0.00043182 0.0111205 )  
( 0.000192275 0.000764676 0.011369 )  
( -0.000348594 0.000605852 0.010717 )  
( 8.35219e-05 0.000315465 0.0111087 )  
( 0.000807314 -0.000501388 0.0118561 )  
( 1.92334e-05 0.00108872 0.0108139 )  
( 0.000136032 6.29778e-06 -3.42814e-05 )  
( -0.000690333 0.000872304 0.00738394 )  
( 0.000215545 0.000341489 0.0105977 )  
( 0.00128229 0.00146131 0.000350772 )  
( 0.00403212 0.00628864 -0.00317068 )  
( 0.000859193 -0.00193031 0.0112975 )  
( -9.54687e-05 -0.000441841 0.0109637 )  
( -0.000263308 0.00235157 0.00935597 )  
( -0.000836793 0.00100148 0.00755642 )  
( 0.00247389 0.000196122 0.0119522 )  
( 9.61471e-05 -1.18958e-05 -0.000356158 )  
( 0.00156513 0.0009217 0.010779 )  
( 0.00109012 -0.00184109 0.0117761 )  
( -0.000121553 0.000836156 0.0105995 )  
( 0.00197933 -0.00281562 -0.000480352 )  
( -0.000338484 5.11367e-05 2.27938e-05 )  
( -0.000739271 -0.0015338 0.00923608 )  
( 0.000242138 -0.000276618 0.0100726 )  
( 2.91599e-05 -0.000232039 -3.61396e-05 )  
( 0.000304094 -0.000251336 0.000472275 )  
( -0.00239346 -0.00074579 0.0107931 )  
( 0.00143517 0.00163578 0.00956768 )  
( 0.00109177 -2.44887e-05 0.0121168 )  
( 0.000676549 0.000607147 0.0109145 )  
( 0.00119909 -0.000772841 0.0100796 )  
( 0.00068599 0.000807669 0.0100702 )  
( 0.000742285 0.000156549 0.0106 )  
( -0.000302327 -0.00375769 0.0142701 )  
( 0.000740887 0.000912862 0.00823341 )  
( -1.35417e-05 -8.40459e-05 -2.13076e-05 )  
( -0.000690599 0.000446461 0.0104777 )  
( -0.0046047 -0.0015095 -0.00167686 )  
( 0.00140785 -0.00255167 0.0184696 )  
( -0.000666908 -0.000127098 0.0131122 )  
( -0.000436293 -0.00136563 0.00959028 )  
( 0.00113312 -0.000953461 -0.000239306 )  
( 8.33449e-05 -0.00126295 0.00975676 )  
( 0.00199505 0.000426366 0.0110453 )  
( 0.00157211 -0.00119968 0.0111119 )  
( 0.000397004 0.000627076 0.0108721 )  
( 2.22052e-05 -0.000740673 0.0101367 )  
( 0.000202806 -0.000449212 0.0105908 )  
( 0.000840991 -0.00168161 8.22335e-05 )  
( -0.000242138 -0.00114943 0.000511144 )  
( 0.000408698 -0.000286763 0.00811343 )  
( 0.000738584 -0.000930351 -0.000146702 )  
( -0.000108314 -6.01727e-05 -5.23284e-05 )  
( -0.000611324 -0.000678527 0.0113519 )  
( 0.000332275 -0.000422634 0.011246 )  
( 0.000341017 1.84108e-06 0.0105567 )  
( 0.000744718 -0.000459124 0.00808145 )  
( 0.000118002 -0.000707302 0.00990989 )  
( 0.000266042 -0.000862268 0.0108542 )  
( 4.0493e-05 -0.000120507 1.08457e-05 )  
( -0.000297151 0.00272249 0.0080888 )  
( 3.97435e-05 8.89666e-05 -5.01375e-05 )  
( 0.00109117 0.00186855 -0.00108138 )  
( -0.000685857 0.00210551 0.00743237 )  
( 0.000561467 0.00082829 0.00636139 )  
( 0.00036353 0.000290496 8.3632e-05 )  
( 0.00158093 -0.00119407 0.0091584 )  
( 0.00335754 -0.00178899 0.0104418 )  
( -3.77542e-05 1.19762e-05 -0.000112133 )  
( 7.70336e-05 -8.60289e-05 -0.000412986 )  
( 0.00066002 -0.00025186 -7.35154e-06 )  
( -0.00209617 0.000129429 0.00956704 )  
( -0.00162288 -0.00235912 0.0105962 )  
( 0.00228524 0.00141162 0.00876076 )  
( 0.00319126 -0.00142646 -0.000298799 )  
( 0.000731908 0.00159714 0.00976151 )  
( 0.00213033 -0.000107199 0.01152 )  
( 0.000320976 0.000654825 0.000326935 )  
( -9.76752e-05 8.5985e-05 2.02874e-05 )  
( -0.00377434 0.00154125 0.0118007 )  
( 0.00114047 0.00053113 0.00982439 )  
( 0.00262134 -0.0007716 0.0118455 )  
( -0.00140724 2.74286e-05 0.00840088 )  
( -0.00213828 0.00197727 -0.00435 )  
( 0.000706078 0.00117115 0.0119439 )  
( -0.00305266 0.00676352 0.00913448 )  
( 0.00126917 0.000780744 0.000114628 )  
( -0.000454693 -0.00103079 0.00998393 )  
( -8.34122e-06 -0.000592802 0.0111986 )  
( 0.000241919 -6.2773e-05 0.00985306 )  
( 0.000936623 -0.000469615 0.0108993 )  
( -0.00150611 0.00245993 0.0100542 )  
( -0.00160441 9.36403e-05 3.66582e-05 )  
( 7.81973e-06 0.000980225 0.00874346 )  
( 0.00348017 7.156e-05 0.0140714 )  
( 0.00389068 0.00163321 0.00937567 )  
( -0.000316345 -5.74099e-05 0.0100612 )  
( -0.000201434 -0.00230255 0.0117082 )  
( -0.00156779 0.00304021 0.0083932 )  
( 0.00035432 0.00100604 0.0104053 )  
( 2.99333e-05 -0.000279776 -7.53562e-05 )  
( 0.000450008 -0.000163125 0.00792705 )  
( -3.73428e-05 0.00015123 2.98331e-05 )  
( 0.000431112 -0.000335939 0.00447552 )  
( -0.000409523 0.000890387 0.00998128 )  
( -0.000614169 0.000827617 0.00946237 )  
( 0.000246182 2.57101e-05 0.010713 )  
( -0.00111274 0.000279619 0.0093881 )  
( 0.00162679 -0.000167049 0.0114534 )  
( 0.000924431 -0.000149126 0.00787516 )  
( 0.000169768 0.000221437 0.011068 )  
( 0.000660091 8.79433e-05 0.0106223 )  
( 0.000651864 0.000891924 0.0109766 )  
( -0.00253971 -0.000221225 0.00805485 )  
( -0.00100308 0.00320653 0.00910393 )  
( 0.00228541 -0.000146237 -0.000629696 )  
( -0.000216597 -8.55618e-05 -5.68536e-05 )  
( -0.000541734 0.00117078 0.00978095 )  
( -0.000570599 0.000120427 -0.00049325 )  
( -1.39258e-05 7.98908e-05 -6.95583e-06 )  
( 0.000744163 -0.000914509 0.00949693 )  
( -0.000182657 0.000427784 0.00889826 )  
( -0.000911673 0.0021774 0.0106314 )  
( 0.000314242 0.000366403 -2.54512e-05 )  
( 0.00146675 -0.000981486 -0.0003025 )  
( -0.000321212 -0.00179628 0.010004 )  
( 0.000505337 -0.00248658 0.0108168 )  
( -0.000304518 0.000899869 0.011293 )  
( 0.00121699 0.00214299 0.0124023 )  
( -0.000408652 0.000185136 0.0105272 )  
( 0.000189373 0.00114967 0.000259597 )  
( 0.000103876 -0.000938555 0.0109877 )  
( 0.00125738 -0.000584512 0.00038815 )  
( 0.000381731 -0.000817026 -6.0137e-05 )  
( 0.000338537 0.00019736 -2.02834e-06 )  
( 0.000949365 -0.00122804 -0.00115686 )  
( -0.00137205 -0.000476519 0.0124566 )  
( -0.00043883 -0.000706475 -6.66739e-05 )  
( 0.00197106 -0.00152619 -0.00123326 )  
( 0.000352488 0.00150879 0.0106789 )  
( 0.00125884 -0.0012831 0.0110635 )  
( 0.00350987 -0.00130605 0.00987683 )  
( 0.00237737 -0.000828805 0.011018 )  
( 0.000389358 0.0019963 0.00897809 )  
( -7.74985e-05 0.00286548 0.0126022 )  
( 4.94387e-06 0.000184992 -1.88864e-05 )  
( -0.00223274 0.00250395 0.0108768 )  
( 0.000296943 0.00158334 0.0102438 )  
( -0.00145954 -0.00115293 0.0107558 )  
( -0.000733855 -0.000299763 -9.49805e-05 )  
( 0.000162861 -1.2093e-05 -4.78105e-05 )  
( -2.28899e-05 -0.000128534 3.15596e-05 )  
( -0.00035617 -0.00123448 -0.00217584 )  
( 0.000219616 -0.000150076 1.1835e-05 )  
( 0.000438608 -0.000228223 1.47501e-05 )  
( -0.000841515 0.000334558 0.00256646 )  
( 3.89178e-05 5.29183e-06 -3.44165e-05 )  
( 0.00139153 -0.000540255 0.00800179 )  
( 0.00162532 -2.68575e-05 -0.000620057 )  
( -0.000697975 0.00128957 0.0128812 )  
( -0.000575067 -0.000664419 0.00820626 )  
( 1.81752e-06 2.21082e-05 0.0114773 )  
( 0.000743265 0.000300347 -0.000179972 )  
( -0.000164549 0.000496567 2.07773e-05 )  
( -0.000702232 0.000626638 -0.000758103 )  
( 0.000841195 0.000698743 0.00908768 )  
( -0.00287392 0.00312169 0.0116239 )  
( -0.00059227 8.88544e-05 0.000105162 )  
( 0.00096302 -0.000688003 0.0109366 )  
( -0.000240668 -0.000311824 -5.57485e-05 )  
( 0.00066376 -0.000198156 0.00808137 )  
( 0.000490569 -0.000418931 0.0107609 )  
( -0.000156415 -0.00089912 0.00917802 )  
( 0.000149176 -0.000158763 -5.89049e-05 )  
( 0.000862754 0.000318888 0.0110156 )  
( 0.000252311 -0.000970774 0.00923741 )  
( 0.00263928 -0.00247626 0.0114396 )  
( 0.000454362 -0.00104414 0.0106112 )  
( 0.00173577 0.00227512 0.00691526 )  
( -0.00090601 -0.000857937 0.0110098 )  
( 0.000306747 -0.000407924 -3.17185e-06 )  
( 0.000968489 -0.00111881 0.0115837 )  
( -0.000884242 0.000570508 0.016935 )  
( -0.000622331 0.0015112 0.011565 )  
( 0.00200705 -0.000100372 0.0109627 )  
( -0.00217851 0.00195438 0.00934833 )  
( -0.00101714 0.00147658 0.00637517 )  
( 0.000863737 0.00208862 0.0134928 )  
( -6.56451e-05 -0.000549897 0.0113315 )  
( -0.000290225 -0.00214481 -0.000750461 )  
( 0.00417711 -0.00160873 0.0103438 )  
( -2.97838e-05 -9.09105e-05 -3.19686e-05 )  
( 0.00079571 -0.000329789 3.07097e-06 )  
( 0.000470636 0.00037891 0.0100656 )  
( 0.00017589 0.000295551 0.0109694 )  
( 0.000834747 -0.00119495 0.00820202 )  
( -0.00118658 -0.000888033 0.00719186 )  
( 0.000299607 -0.000817986 0.00564528 )  
( -0.00196544 -0.00291834 0.00985816 )  
( -0.000148935 9.56335e-06 -0.000329744 )  
( -0.000454109 -0.00123369 -0.000222612 )  
( -8.29291e-05 -0.000174492 0.0107778 )  
( 4.88692e-05 -0.000437776 -1.99182e-05 )  
( 0.000198739 -0.00049764 0.0118065 )  
( -0.000382767 0.00113021 0.00883395 )  
( 0.000742609 -0.00236908 0.00825463 )  
( -0.00151472 -0.00013328 0.00896848 )  
( 0.000942738 -1.48832e-05 0.00805374 )  
( 0.000201188 6.7031e-05 0.000100727 )  
( 8.01195e-06 -0.000165197 -0.000142358 )  
( 0.000129032 0.0013705 0.00982487 )  
( -0.000891314 0.0012716 0.00796989 )  
( -0.00120342 0.000824213 0.00928917 )  
( 0.000181133 -0.000131445 0.00780575 )  
( -0.00133554 -0.00019647 0.00813062 )  
( -0.000568235 0.000837988 0.00819937 )  
( 0.000572126 -9.54913e-05 0.0101618 )  
( 0.000236135 0.000446703 0.0102623 )  
( 0.000252143 -0.00278538 0.0102186 )  
( -4.52472e-06 0.0018289 1.56909e-05 )  
( 0.00056061 -0.000479926 0.0138628 )  
( 0.00106964 -0.000339511 7.53774e-05 )  
( -0.0012288 0.00108614 0.0108352 )  
( -0.00215235 0.00237251 0.0086802 )  
( -0.000987164 0.00168937 0.00905537 )  
( -1.43405e-05 -0.000321041 -0.000109921 )  
( 0.0074375 0.00370123 0.0147124 )  
( 0.000226772 0.00165429 0.00732139 )  
( 0.00202282 0.000501597 0.0114757 )  
( -0.000487139 -5.108e-05 0.0101245 )  
( -4.56247e-05 0.000553143 0.0111615 )  
( 4.03203e-05 -6.90578e-05 -4.07596e-05 )  
( 0.00105721 -0.00171714 0.00922291 )  
( -0.000172315 6.4547e-05 -1.61502e-05 )  
( 0.00131944 0.00195239 0.0111026 )  
( -3.04359e-05 6.68721e-05 -1.76377e-05 )  
( 0.00135472 -4.43011e-05 0.0107751 )  
( -0.000174948 0.00132063 0.00794905 )  
( 0.000206327 -3.87468e-05 0.0104898 )  
( 0.000124447 -0.000146296 1.20554e-05 )  
( -0.000333306 0.00108351 4.84906e-08 )  
( 0.000855675 0.00127353 0.0109045 )  
( -4.23546e-05 -0.00100496 0.00929638 )  
( 0.00054962 0.000564776 0.00923571 )  
( -2.40209e-05 4.87387e-05 5.26428e-05 )  
( 0.000368991 6.47419e-05 0.0103736 )  
( -0.000812885 0.00133064 0.0099915 )  
( 0.00127289 0.000229253 -6.4028e-07 )  
( 0.0013114 -0.00158668 0.00852193 )  
( -0.000690206 0.000377446 0.00813201 )  
( 0.00123433 0.00183197 0.0105133 )  
( -0.00119735 0.000796325 0.007746 )  
( -0.000136132 0.00116288 5.95437e-05 )  
( -5.33151e-05 -4.62351e-05 -0.000101297 )  
( -0.000811539 -3.1572e-05 0.00935273 )  
( -0.000107793 -0.000677854 0.00977655 )  
( 0.000541706 -0.00328425 -0.00255775 )  
( -0.000782504 0.00178472 0.0111792 )  
( 0.000779644 -0.000467164 -0.000325081 )  
( 0.00165046 -0.000781095 -8.03438e-05 )  
( 0.000134917 -0.000278783 0.0107513 )  
( 0.00319133 -0.00371438 0.0102629 )  
( -0.000132851 -4.18982e-05 0.000317299 )  
( 9.10314e-05 0.000713661 0.00932029 )  
( 0.00220153 0.000684594 0.010399 )  
( 0.000682182 0.000930997 0.00970819 )  
( 6.82186e-05 6.05595e-05 -0.000212633 )  
( 0.000534275 -0.000408662 6.07017e-06 )  
( -0.00212162 0.00031418 0.0108629 )  
( -0.00158127 -0.000140863 0.00828836 )  
( 0.000979603 0.000322974 0.00834751 )  
( 0.000465167 -0.000133815 -0.000115539 )  
( 0.000220478 0.00028822 0.00798405 )  
( 0.00175429 -0.000575059 -0.00120641 )  
( 0.000776105 0.000873169 0.00895356 )  
( 0.000325709 -3.54617e-05 5.70852e-05 )  
( 0.000127097 0.000181948 0.00848077 )  
( 0.00208996 0.00165496 0.0104232 )  
( 0.000484262 -0.000152032 0.00693597 )  
( 0.000416419 0.000367116 0.00869824 )  
( -0.000543403 5.19727e-05 0.0102269 )  
( 0.000262376 0.00129881 0.00983766 )  
( -9.18225e-05 0.000331567 0.010736 )  
( 0.00382492 -0.00159918 1.87009e-06 )  
( -0.000298093 0.000159081 -4.40645e-05 )  
( 0.000370815 0.001439 0.00887844 )  
( 0.000121145 0.00076991 0.0111571 )  
( 0.000923552 -0.000664182 0.0083632 )  
( 0.00212889 7.95279e-05 -0.00124946 )  
( -0.000685465 -0.00106527 -0.00126661 )  
( -1.60391e-05 -0.000640605 -1.08799e-05 )  
( -0.000485413 0.000143052 9.45783e-06 )  
( 0.000209408 0.00197718 0.00946613 )  
( 7.53252e-05 0.000205199 -8.69762e-05 )  
( 0.0019438 0.000683572 0.0102602 )  
( -0.000462307 0.000203481 -0.000169062 )  
( 0.00241762 0.00107139 0.00883578 )  
( 0.00046745 -7.26482e-05 0.0107592 )  
( -0.000383406 -0.000307085 2.83277e-05 )  
( -0.000176088 0.00263731 0.0065605 )  
( 0.00113551 -0.000340632 -6.95915e-05 )  
( 4.67214e-05 -0.000129358 0.0103689 )  
( 0.00178471 0.00249176 0.0117724 )  
( 5.71105e-05 0.00301498 0.00875021 )  
( 0.00103571 -0.000541779 0.00869831 )  
( 0.00127626 -0.000167857 0.0113031 )  
( -0.000324441 0.00112058 0.010453 )  
( 0.000910508 -0.00168917 0.0113063 )  
( -0.000132802 0.00076697 3.96632e-05 )  
( -0.000685989 0.00116444 0.0113707 )  
( 0.000636615 -0.00199988 0.0120219 )  
( 0.000125543 0.00121944 0.00886486 )  
( 0.000227783 0.000115936 -0.000102302 )  
( -0.000257047 0.000124457 -0.000213442 )  
( 0.0026274 -0.000236693 0.00895623 )  
( -0.00114129 -0.000876665 0.0111925 )  
( 0.000529126 0.000104244 -0.000100663 )  
( -0.00133689 -0.000368387 0.00611205 )  