FoamFile
{version 2.0; format ascii;class vectorField; location 0;object  v;}
2496
(
( -0.000736297 7.46763e-06 0.000654056 )  
( 0.000583029 0.000706296 0.00742523 )  
( 0.000262398 0.000519283 0.000142617 )  
( 0.00091943 0.000589064 0.000138464 )  
( -0.00167353 0.000344582 0.00933028 )  
( -0.000880605 -0.000276761 0.00656276 )  
( -0.00224419 -0.000886377 0.0118005 )  
( -0.000545961 -2.49146e-05 0.000306779 )  
( -4.86012e-05 -0.000166282 1.15292e-05 )  
( 8.53276e-05 0.00039808 0.0104632 )  
( -0.000634638 -0.00070534 0.0095944 )  
( -0.00127846 0.00199591 0.00892464 )  
( 4.21809e-05 0.000418 0.000470822 )  
( -0.00278894 4.85454e-05 0.00816275 )  
( -0.00025459 0.000121314 7.61704e-05 )  
( -0.000960636 -3.67927e-05 0.000358212 )  
( -0.000372575 -0.000697033 0.0117714 )  
( -0.00106506 6.69303e-05 0.00963775 )  
( -7.05328e-05 0.00096881 0.0108921 )  
( -0.000276421 0.000810736 0.0112283 )  
( -0.000872038 0.000378934 0.0095804 )  
( -0.00198374 0.00259863 0.00722369 )  
( 0.000631664 0.00105008 0.0110144 )  
( 0.000905026 0.00171538 0.00994635 )  
( -0.00046452 0.000172126 0.0107189 )  
( -0.000114483 0.00124279 0.0110555 )  
( -0.00212644 0.000924198 0.00986603 )  
( -0.00111857 0.00167907 0.00822376 )  
( -0.000408089 0.000751211 0.00988831 )  
( 2.295e-05 0.00109805 0.011258 )  
( -0.000897699 0.000304257 0.0101609 )  
( -0.00154904 0.00129802 0.0120276 )  
( -0.000469269 0.000178344 -7.44668e-05 )  
( 0.000400945 -0.00199777 0.00113844 )  
( -0.000549044 -0.000909419 0.00946492 )  
( -0.000501044 -0.00211099 0.0115901 )  
( 0.000879165 -0.000727379 0.00641018 )  
( 0.0036987 -0.00119928 0.0144788 )  
( -9.20674e-05 1.1634e-05 0.000180054 )  
( -0.00054237 -0.000556078 -0.000618982 )  
( -0.00191002 -0.00179395 0.00813838 )  
( -0.00152817 -0.00127142 0.00772045 )  
( -0.00160676 -0.00107157 0.000107024 )  
( 0.000424151 -0.00111126 0.00711134 )  
( 0.000296817 -1.52997e-05 -8.20833e-06 )  
( -2.25872e-05 -1.35859e-05 -5.81012e-06 )  
( -0.00328496 -0.00341622 0.00942023 )  
( -0.00054493 0.000826022 0.000476941 )  
( -0.0030621 -0.00207182 0.00848498 )  
( -0.00104515 -0.00168395 0.0052911 )  
( -0.000635697 -2.02551e-05 0.000338316 )  
( -0.000515912 -0.000374666 0.0111706 )  
( -0.000293844 0.00031004 0.00814076 )  
( -0.000890971 -0.000403727 0.00992654 )  
( 0.00145858 -0.000617058 0.00802143 )  
( -0.00102205 -0.000917924 0.01011 )  
( -0.0012396 0.000165365 0.00233408 )  
( 4.90499e-05 -4.42071e-05 -0.000117929 )  
( -0.0015819 -0.00267595 0.00940912 )  
( 6.11568e-05 0.000150527 -3.97981e-05 )  
( -0.00121428 -0.00292378 0.0094903 )  
( 0.000672456 -0.0011091 0.00643358 )  
( -0.00101457 -0.00212686 0.00848865 )  
( -0.000781118 0.000130324 4.9733e-05 )  
( -0.000286588 -0.000521584 -0.000427588 )  
( -0.000223501 -0.000569232 0.00748297 )  
( 0.000807381 0.000857403 -0.000259412 )  
( -0.00183772 -0.00333588 0.00971602 )  
( -3.02027e-05 0.000220389 -0.000102397 )  
( 0.000218823 -0.000144798 0.0081976 )  
( -0.00161591 -6.56647e-05 -0.000397268 )  
( 7.90571e-05 -4.181e-05 0.0120046 )  
( 0.00208959 -0.00107258 0.00908318 )  
( -0.000814578 -0.00198916 0.00848348 )  
( -0.00111766 0.000857528 -0.000241984 )  
( 0.000826233 -0.00196477 0.00723338 )  
( -0.00101735 0.000135961 0.0102219 )  
( 0.00166494 -0.00331149 0.00471172 )  
( -0.00049877 -0.0012668 0.00529708 )  
( -0.0012755 0.000458013 -0.00232628 )  
( -0.00112073 -0.00163558 0.00816778 )  
( -0.000549951 0.000409376 -0.000281606 )  
( 0.000507585 -0.00149952 0.00934813 )  
( -0.00110464 -0.00214335 0.0102708 )  
( 0.000202918 -2.69951e-05 3.78428e-05 )  
( 0.000597469 0.000632186 3.34401e-05 )  
( -0.00150596 -0.00280126 0.00854007 )  
( -0.000123779 0.000551929 0.00939024 )  
( -0.0021015 6.87248e-05 0.00626968 )  
( -0.000304992 -0.00228734 0.00977351 )  
( 0.00199418 -0.000201557 0.0101435 )  
( -2.7374e-07 -0.00202353 0.00972301 )  
( -0.000596104 -0.00156257 0.00891213 )  
( 0.00367774 -0.000403149 0.00789012 )  
( -6.58985e-05 -0.000250697 -9.54469e-05 )  
( -0.000496533 -0.00140003 0.00160548 )  
( -0.00254322 0.000816656 0.00942419 )  
( -0.000131714 0.000233154 -0.000915228 )  
( -0.000832731 -0.000660055 0.0109711 )  
( -0.00122108 -0.00015212 0.0114379 )  
( -0.00132604 -0.00062474 0.00905278 )  
( 0.000936653 -0.000751283 0.00772996 )  
( -0.000160908 0.000141273 1.90561e-05 )  
( -0.00123767 -2.79134e-05 -0.000684354 )  
( 0.000649324 0.000914046 0.00759564 )  
( 7.99306e-05 -0.00114806 0.00549955 )  
( 0.00154091 -0.00213494 0.00878515 )  
( 0.000140258 -7.93502e-05 -3.12345e-05 )  
( -0.000465427 -0.00218043 0.00826565 )  
( -0.00020816 -0.000753903 0.00802481 )  
( -0.000781358 8.13447e-06 1.80734e-05 )  
( -0.00124958 -0.000790438 0.0129345 )  
( -0.000229404 0.000279843 0.00930887 )  
( 0.00046493 0.000154846 5.56308e-06 )  
( -6.05072e-05 -0.000294642 0.00990893 )  
( -0.00211283 0.00115534 -0.00301004 )  
( 0.00126047 -0.000787316 0.0110294 )  
( 0.00153138 0.000174827 0.00261418 )  
( 2.46593e-05 0.00016887 0.00865335 )  
( -0.00108978 -0.00134187 0.00840632 )  
( -0.000913644 -0.000224884 0.00126698 )  
( -0.000327686 -0.00131763 -0.000209111 )  
( 0.000115421 -0.00275742 0.0113605 )  
( -0.00110319 0.000526416 -1.04609e-05 )  
( 0.000106555 -0.00213091 0.00729701 )  
( -0.00350565 -0.00473721 0.012045 )  
( -0.000283214 1.8419e-05 0.000540982 )  
( 0.00162037 -0.00049415 0.0077324 )  
( -0.00185676 0.000784362 0.0096273 )  
( 0.00241133 -0.00407847 0.00804435 )  
( -8.62511e-05 -0.0017558 0.0107093 )  
( -0.000570217 0.000622926 0.000522164 )  
( -0.000684172 -0.000342628 -0.00239191 )  
( -0.00192554 -0.000726814 0.0121337 )  
( 0.000978511 -0.00352749 0.00873959 )  
( -0.000372684 -0.00175314 0.00802066 )  
( -0.000314578 0.000823144 0.009328 )  
( -0.000141634 -0.000542442 0.0115935 )  
( -0.000427247 -0.000332689 0.000157392 )  
( 0.000714254 -0.00275248 0.00924489 )  
( -0.00115548 -0.000143652 0.0108856 )  
( 0.00125073 -0.000772216 0.00856911 )  
( -0.00039797 0.000683749 -7.2436e-05 )  
( -0.000397504 0.000955854 0.00678619 )  
( -0.000853072 -0.00135301 0.0099452 )  
( -0.000959637 -0.000595139 0.0111372 )  
( -0.000251521 -0.00326953 0.00887856 )  
( 0.000838659 -0.000356153 0.0140175 )  
( 0.000904455 -0.00044882 0.00224933 )  
( 0.00465512 0.00377312 0.0111055 )  
( -0.000520361 -0.00202951 0.00708863 )  
( 0.000363426 -0.00154801 0.0105087 )  
( -7.16267e-05 0.00014491 -7.88685e-05 )  
( 6.8644e-05 -0.000760455 0.0103921 )  
( 0.000845892 -0.000535467 0.0109176 )  
( -0.00130765 -0.000995273 0.00447323 )  
( -0.000437046 -0.00163155 0.00993266 )  
( -0.0016393 0.00142527 0.00812316 )  
( -0.000420192 0.000397149 0.000165535 )  
( 0.000376874 0.000583 0.00894191 )  
( 0.00025508 -0.000261503 0.0110474 )  
( -0.00158642 -0.00294792 0.0116457 )  
( 0.00106984 -0.0010722 0.00686753 )  
( -0.000589758 -0.000302895 0.00652122 )  
( 0.000659195 -0.00314106 0.00640893 )  
( -0.00360607 -0.000141262 0.00658563 )  
( -0.000481467 -0.00134302 0.00946915 )  
( 6.23738e-05 0.000286019 0.0114831 )  
( -0.000301272 -0.000697927 -2.32891e-05 )  
( 0.000536712 -0.00149251 0.00724618 )  
( -0.000424568 -0.00148132 0.00795565 )  
( -0.00222435 -6.68851e-05 0.0129067 )  
( 0.000143528 -9.16052e-05 0.000259467 )  
( -0.0031194 -0.00257207 0.00953212 )  
( 0.000266531 -3.43809e-05 -0.000368134 )  
( -0.000285386 0.00114072 2.20757e-05 )  
( 0.00221982 -0.00120372 0.00779242 )  
( -0.00150623 0.000649022 0.00505406 )  
( -0.000199781 -0.00443753 0.00816973 )  
( 0.00010046 7.78644e-06 -8.22156e-05 )  
( 5.08045e-05 -0.0010067 0.00778625 )  
( -0.000446249 -0.00123704 1.66743e-05 )  
( -0.000337361 -0.000314581 -1.30424e-05 )  
( 0.000946074 0.000380598 0.000245708 )  
( -0.000591488 -0.000557929 0.000781072 )  
( 0.000450941 -0.00272913 0.00629033 )  
( -8.11164e-05 -0.000239836 -0.000497097 )  
( -0.000912191 -0.000592396 0.0105843 )  
( -0.00272115 -0.00174164 0.00983083 )  
( -0.000501288 -0.00160775 0.00637634 )  
( -0.00124978 0.000714792 0.000416101 )  
( -0.000845641 0.00152487 0.000826532 )  
( -0.000500278 -0.000792635 0.00707298 )  
( -0.000121682 0.000143145 -0.000454814 )  
( -0.000866229 -0.00043484 0.008865 )  
( -0.000946044 -0.000812351 0.00870534 )  
( -1.16635e-05 0.000829835 0.000168535 )  
( -0.00143908 -0.00127855 0.00816061 )  
( -0.000305752 -0.000367021 0.0102455 )  
( 0.000528815 -0.00147614 0.00744988 )  
( 0.00103252 0.00171545 0.00420827 )  
( -0.00254842 0.000662635 -0.0215271 )  
( 1.00143e-05 2.23473e-05 -2.6052e-05 )  
( -0.000720543 0.000146811 -0.000131269 )  
( -0.000760657 0.000744571 0.00638225 )  
( -0.00392697 -0.00155799 0.0105837 )  
( -0.000432244 0.000654838 0.0118198 )  
( -0.00352418 0.00189424 0.00860316 )  
( -0.000697077 0.000191214 1.92473e-05 )  
( -0.000182443 -0.000472205 -6.26468e-05 )  
( 0.00019077 0.00159107 0.00625172 )  
( -0.000532964 -0.00213388 0.00903143 )  
( -0.000763698 -0.00361052 0.00848505 )  
( -0.000363822 0.000767335 -0.000415036 )  
( -0.000139868 -0.000189971 0.00893632 )  
( 0.00052659 -0.00135599 0.0103018 )  
( 0.00220348 0.000272377 0.00909109 )  
( -0.00168382 0.00120428 0.00966294 )  
( 0.000343588 0.000143902 -0.000463207 )  
( -0.000316883 -0.00155545 -0.000521516 )  
( -0.00032381 -0.00220237 0.00925592 )  
( -0.000817206 -0.00110982 0.00851408 )  
( 0.000398325 -0.00073294 0.0101897 )  
( -0.00107424 -0.00129928 -0.000619377 )  
( 0.000394055 2.42161e-05 0.00596466 )  
( -0.000453773 -0.000517622 0.00774394 )  
( -0.000630317 0.00069313 0.000470542 )  
( -0.000923539 -0.000719033 -0.000114139 )  
( 9.98683e-05 -0.00178833 0.0106561 )  
( -0.00180202 -0.000347897 0.00978945 )  
( -0.00100215 -0.000687276 0.00878804 )  
( -0.000255042 0.000572179 -0.00034139 )  
( 0.00117873 0.0029026 -0.00129686 )  
( 0.000641646 0.000650814 0.00734876 )  
( -0.000265237 0.000213977 -4.36747e-05 )  
( 0.000639426 0.000435364 -1.12961e-05 )  
( 3.74143e-05 0.000267174 7.59547e-05 )  
( -9.44328e-05 9.98173e-05 0.000159423 )  
( 0.000796471 -0.00077523 0.00865325 )  
( 0.000469334 -0.00152979 8.05235e-07 )  
( 0.00105137 -0.000961494 -0.000519829 )  
( -0.000457654 -0.000805706 0.01022 )  
( -0.000838797 -0.000676009 0.0116792 )  
( 0.00180646 -0.000143594 0.0102767 )  
( -0.000590699 -0.000734809 0.0102543 )  
( -0.00171711 -0.00549721 0.0121369 )  
( -0.000613485 0.000510341 0.00218245 )  
( 2.00862e-05 3.88867e-05 -0.000932784 )  
( 0.000236839 -0.000921743 -0.00010607 )  
( 9.96937e-05 -0.000458941 5.10682e-06 )  
( -0.000387013 -0.00129258 0.0090421 )  
( -0.0011956 -0.000917952 0.00911273 )  
( -0.00136374 -0.000284847 0.00981916 )  
( -0.000940421 -0.000281241 0.0101267 )  
( 9.19825e-05 -0.000456504 -0.000146019 )  
( -0.00126921 -0.00244139 0.00839585 )  
( -0.000128014 -0.00175792 -0.000472782 )  
( -0.00262642 0.00142018 0.00983925 )  
( -9.13301e-05 -0.000981319 -0.000500992 )  
( -0.000621362 0.000205955 0.010782 )  
( 0.000552252 -0.000720458 2.52144e-05 )  
( 2.30152e-05 0.000443215 -7.23183e-06 )  
( -0.000809141 -0.0015376 0.00792319 )  
( -9.12282e-05 0.000152006 2.46861e-05 )  
( 0.000210848 0.000119873 0.00891519 )  
( -0.0016726 -0.00147999 0.00799142 )  
( -0.000679534 -0.00187745 0.0101369 )  
( 0.000461271 4.65402e-05 -0.0002971 )  
( -0.000947478 -6.239e-05 0.00587312 )  
( -0.00171376 0.00156261 0.0107198 )  
( -0.00146205 -0.00181671 0.0093851 )  
( -0.000613151 -0.00335786 0.0070886 )  
( 4.02959e-05 0.000277773 -3.9904e-05 )  
( -2.69774e-05 -0.000179063 0.0126851 )  
( -0.000412498 -3.36965e-05 0.00796421 )  
( -0.000289422 -0.00141102 0.0103033 )  
( -8.74546e-05 0.000264167 -0.000227979 )  
( -0.000854843 -0.00119881 0.00866078 )  
( -0.000138327 -0.000462793 0.00896837 )  
( -0.00173448 -0.00161786 0.0120663 )  
( -0.000202562 -0.000434735 -0.000180358 )  
( -0.00116219 5.56991e-05 0.0108875 )  
( -0.00141804 0.000249266 0.000238267 )  
( -7.11265e-05 -0.00163291 8.57994e-05 )  
( 0.000337165 -0.00093999 -0.000345153 )  
( 0.000284017 -0.00105151 0.00857116 )  
( -0.000494428 -0.00395512 0.00873604 )  
( 0.00114291 -0.00298848 0.0146734 )  
( -0.000742543 -0.000159492 0.0104224 )  
( -0.00159095 -0.00209749 0.0100369 )  
( 0.000811565 -0.00137604 0.00146913 )  
( -0.00186233 -0.000802693 0.00849226 )  
( 0.00010852 0.00134405 -0.00146095 )  
( 0.00111946 -0.00198238 0.00791713 )  
( -0.00021564 -0.00183945 0.0118379 )  
( 0.00207088 -0.00283167 0.0105238 )  
( -0.000784375 0.00124353 0.0107215 )  
( -0.00209451 -0.00216542 0.00856507 )  
( -0.00174694 -0.000650263 0.00814949 )  
( -0.00013574 -0.000197126 -4.21821e-05 )  
( -0.00026404 0.00147647 -0.000535214 )  
( -0.00173568 -0.000277035 0.00783814 )  
( -0.000626032 -0.000604676 -0.0097122 )  
( 0.0007408 -0.000180379 0.000185463 )  
( -0.00144429 -0.00306201 0.00813458 )  
( -0.00104466 9.56624e-05 0.000180943 )  
( -5.55128e-05 -0.00125655 0.0105399 )  
( -0.00151622 -0.000252209 0.0121036 )  
( -0.00200646 -0.00073992 0.00799276 )  
( -0.00137085 -7.15797e-06 0.00526025 )  
( -0.000145757 4.0176e-05 6.95294e-05 )  
( 1.48425e-06 -0.00154485 0.00874616 )  
( 6.74737e-05 0.0008106 0.000106916 )  
( 0.00188926 -0.00257534 0.00543323 )  
( 9.65958e-05 -0.000399267 0.00572508 )  
( -0.000189279 0.00053891 -8.56792e-05 )  
( 0.0026684 0.000695705 0.0102171 )  
( -0.00052772 -0.000139141 6.26583e-05 )  
( 0.000226742 -0.000606513 -0.000186463 )  
( 0.000723198 -0.000885601 0.0108542 )  
( -0.00147693 0.00177935 0.0118567 )  
( -0.000136865 0.00207765 0.00925674 )  
( -0.000158985 -0.000353788 0.000253033 )  
( -0.000108995 -0.0020621 0.00807021 )  
( -3.22799e-05 0.00026436 0.0100255 )  
( 0.000499071 0.000513621 -5.94986e-05 )  
( 0.00134699 0.000320997 0.0103596 )  
( -0.000950161 -0.00251107 0.00799955 )  
( -0.00132862 -0.00152493 0.00748493 )  
( 0.000109964 -0.00104766 0.00615322 )  
( -0.000381126 -0.00171409 0.00939842 )  
( -0.000147888 3.69188e-05 0.0058555 )  
( -0.001258 -0.00181741 0.00736689 )  
( 0.000749823 -0.00137133 0.00907548 )  
( 0.000444188 0.000894692 0.00950847 )  
( 0.00323049 0.00607538 -0.00203596 )  
( 0.000446027 0.000558927 -0.00114825 )  
( 0.000195395 0.000292373 -0.000141418 )  
( -0.00267244 -0.00231296 0.00606292 )  
( -0.000284788 6.09073e-05 -1.18607e-05 )  
( -3.2745e-05 -0.0018951 0.0105571 )  
( -0.00382605 -2.82652e-05 0.0148984 )  
( 0.00270401 0.000917504 0.00896488 )  
( -0.000492528 -0.000543206 0.00162673 )  
( -0.000326417 -0.00102073 0.00759757 )  
( -0.000144693 0.000470559 0.0079041 )  
( 0.00501941 0.000176881 0.0101323 )  
( 0.00167452 0.00101131 0.00766852 )  
( -5.88757e-05 0.00161691 0.00368677 )  
( -0.000448583 -0.000812332 0.00986578 )  
( -0.000654429 -0.00176994 0.00919409 )  
( 0.000127085 -2.89135e-05 -2.01205e-05 )  
( -0.000669097 -0.00126224 0.00875863 )  
( -0.000424489 -0.000157952 -0.000187338 )  
( -0.000701612 -0.002292 0.00961694 )  
( -0.00166728 -0.00103007 0.000305184 )  
( -1.8548e-05 -0.00129832 0.00766435 )  
( -0.000213102 0.00113262 0.00143895 )  
( -0.00102464 -0.000796288 0.00923498 )  
( -0.000376065 -0.000282893 0.0100197 )  
( 0.00229711 -0.0021725 0.0099892 )  
( -0.000722274 0.00241298 0.00965974 )  
( 0.00149714 -0.00119876 0.000860605 )  
( -0.000640777 -0.00198398 0.00895907 )  
( 7.53569e-05 -1.23021e-05 -0.000245155 )  
( -0.00155327 -0.0011163 0.00962296 )  
( -0.00114422 0.00018444 3.52046e-05 )  
( 0.000446653 -0.0021471 0.00731293 )  
( -0.000375545 -0.000139324 0.0080497 )  
( 0.0022018 -0.00166229 0.0094427 )  
( -0.0008439 -0.00211418 0.00924539 )  
( 0.000680713 3.94643e-05 0.00898555 )  
( -0.000428007 -0.000301021 0.00928983 )  
( -8.92671e-05 -0.00122226 0.013559 )  
( 3.86993e-05 0.000722048 0.000218534 )  
( -0.000629724 -0.000758838 0.000115432 )  
( -6.3935e-05 0.000400283 0.00910508 )  
( -6.33193e-05 -0.00235483 0.00907 )  
( -0.00135504 -0.000689373 0.00125183 )  
( 0.00027809 -0.000145015 0.0118379 )  
( 0.000363565 0.000792833 0.00798988 )  
( 0.000246888 -0.000502369 8.67191e-06 )  
( 0.001569 -0.00160909 0.0063609 )  
( -0.000888406 -0.00153101 0.0073737 )  
( 0.000516488 0.000678259 -0.000165526 )  
( -0.00124896 -0.00112496 0.00837151 )  
( -1.45769e-06 0.000107995 -9.73543e-05 )  
( -0.000397689 -0.00261125 0.00581617 )  
( -0.000230664 -0.000665979 0.00974995 )  
( 0.000539199 -0.000214813 0.000802757 )  
( -5.14628e-05 0.000136531 -1.44054e-07 )  
( -4.62479e-05 0.000318171 -0.000206287 )  
( -0.00530433 0.00119077 0.0120692 )  
( -0.000958971 -0.00147731 0.00777835 )  
( -0.000192887 -0.00126453 1.27347e-05 )  
( 4.08965e-05 0.000321048 -7.66628e-05 )  
( 0.000149764 -5.39086e-05 0.0101002 )  
( 0.000260952 0.000172316 -0.000503257 )  
( -0.00135948 -0.00145944 0.0103236 )  
( -0.000139382 -0.00229148 0.0102087 )  
( 1.4027e-06 -0.00111425 0.00929947 )  
( 0.000221503 -0.00031156 6.69242e-05 )  
( 0.000188055 -6.52527e-06 2.42653e-05 )  
( -0.000344939 0.000173125 -2.1749e-07 )  
( -0.00166759 0.000543153 5.08307e-05 )  
( 0.000546767 -0.00070265 0.00974877 )  
( -0.000435152 -0.000514371 0.00932653 )  
( 0.00257557 -0.00285407 0.0105459 )  
( -0.000596138 0.00313201 0.00942777 )  
( 0.000566808 0.00105203 -0.00137365 )  
( 0.000266041 0.000241506 0.00116591 )  
( 0.000268672 -0.000845506 0.000173584 )  
( 0.000262282 9.15326e-05 0.00943713 )  
( -0.00209403 -0.00107977 0.00658965 )  
( -0.000717669 -0.0003468 -0.000127018 )  
( 0.000160304 -0.000635334 -7.28747e-05 )  
( 0.000976125 -0.000849264 0.00686296 )  
( -0.000781834 -0.000847831 0.0097624 )  
( -0.00025764 -0.000230776 3.88799e-05 )  
( 0.000226432 -0.000916343 -0.00105357 )  
( -0.00019309 -0.00167939 0.00978664 )  
( 0.000307151 -0.00100755 0.00846083 )  
( -0.00389462 0.000908937 0.00461214 )  
( 0.000388143 0.00106768 0.00749112 )  
( -0.000321132 0.00150963 -0.000273523 )  
( 0.00126198 -0.00105938 0.0074566 )  
( -0.000456132 0.000586652 0.0114321 )  
( 0.000283533 -0.000148006 0.00352595 )  
( 0.000966478 0.00240867 -0.00023101 )  
( 3.35044e-05 0.000225486 -0.00125753 )  
( -0.00142659 -0.00065148 0.00114591 )  
( -0.00153005 -0.00279459 0.0104666 )  
( 0.000262894 0.000109412 -7.50853e-05 )  
( -0.00100247 -3.90364e-05 0.00993422 )  
( -0.000322805 0.000811566 8.61705e-05 )  
( 0.000229543 -0.00030334 0.0102191 )  
( -0.000149464 -0.00287882 0.00862619 )  
( 0.000730133 -0.00104452 0.0115365 )  
( -0.00342108 -0.000423856 0.0105889 )  
( -0.000635535 -6.35409e-05 -1.79694e-05 )  
( -0.000220575 -0.000535216 0.00874967 )  
( 0.000323939 -0.000289843 8.52803e-07 )  
( -0.000331062 0.000885191 -0.000481113 )  
( -0.0005107 -0.000822029 0.00831851 )  
( -0.000234506 -0.000742025 0.00693664 )  
( -0.000553408 -0.000183355 0.00902184 )  
( 0.000336704 -0.000575338 -0.000364304 )  
( -4.57053e-05 0.000781547 -9.09607e-05 )  
( 0.000169078 0.000219138 -0.000811535 )  
( 0.000786057 9.51742e-05 0.00914516 )  
( -0.000224431 -0.000335233 8.71076e-06 )  
( -0.000367802 0.000385299 2.28857e-05 )  
( -0.000728394 -0.00181206 0.0080381 )  
( 3.42521e-05 2.66735e-05 -4.62343e-05 )  
( -0.00138467 -0.000658412 0.00543221 )  
( 0.000339974 -0.000484714 0.00500098 )  
( -0.000612626 -0.000639387 0.0107617 )  
( -0.000735092 0.000690767 -0.000158979 )  
( 0.000551531 -0.000461181 0.00317095 )  
( 0.000358542 -0.000282567 0.000899159 )  
( -0.00041185 0.000441085 0.000715864 )  
( -9.98799e-05 -0.000870392 0.00357279 )  
( 0.00296351 0.000755462 0.00977988 )  
( 0.000410966 -0.000563636 0.01019 )  
( 0.000350385 0.000454929 0.000245276 )  
( 8.38762e-05 -0.000747349 0.0091087 )  
( -0.000610561 -0.000415699 0.00559937 )  
( 0.00017952 -0.00138563 0.00765394 )  
( -0.00356179 -0.0013943 0.00983748 )  
( -0.00015269 -0.00219755 0.00840761 )  
( -0.000260753 0.00075162 0.000114403 )  
( 0.00196618 -0.00205057 0.010523 )  
( 0.000127016 -0.00084533 0.00960811 )  
( 0.00132714 -0.00225179 0.0109473 )  
( -0.000258388 -0.000875233 -0.000324484 )  
( 0.000212277 0.00110343 0.0097383 )  
( 9.84118e-05 -0.0031943 0.0098903 )  
( -0.000378837 0.00049472 -2.08549e-05 )  
( -0.000884663 -0.000567846 0.00124063 )  
( -3.42088e-05 -0.00110962 0.000131561 )  
( -3.62405e-05 -0.00026855 -9.33399e-05 )  
( -0.000192373 0.0004025 0.00168253 )  
( -0.000158723 -0.00152918 0.00840648 )  
( -7.48129e-05 -0.00187266 0.00784022 )  
( -0.000346922 -0.000718793 0.0100915 )  
( -0.00276833 -0.00152754 0.0116001 )  
( -0.000509419 -0.00226031 0.0133411 )  
( -0.000555219 -0.00211817 0.00738783 )  
( 0.000154792 0.000183953 -4.22397e-05 )  
( -0.00220894 -0.000249365 0.0090229 )  
( -0.000382735 0.000104692 0.00757806 )  
( 0.00160979 0.00133759 0.0127427 )  
( -0.0031396 -0.000743681 0.00842456 )  
( -0.00060054 -0.000849471 0.00856289 )  
( -3.12452e-05 -6.43273e-06 4.91774e-05 )  
( -0.000717759 -0.00169002 0.00929175 )  
( 6.73529e-05 0.000114845 -0.000227541 )  
( -1.93247e-05 -0.00167734 0.00746125 )  
( -0.000664119 0.000110215 7.28038e-05 )  
( -0.000400667 -9.12797e-05 0.00799915 )  
( -0.00142673 -0.00367394 0.00888361 )  
( -0.00194813 -0.00162189 0.00521478 )  
( -0.000641575 0.00166206 -6.82524e-05 )  
( 0.000435589 -0.00286239 0.0100781 )  
( 0.000205384 -0.00206891 0.00777528 )  
( -0.000284045 -0.000183756 0.00990929 )  
( -0.00159371 -0.0016813 -0.00105658 )  
( -0.000801158 -0.000967133 0.00993649 )  
( -0.000739516 0.000276555 0.00131709 )  
( 4.31031e-06 6.91919e-05 2.41811e-05 )  
( -0.000694017 -0.00195373 0.00823599 )  
( 2.9054e-05 -1.07514e-05 3.88105e-06 )  
( -0.00101309 -0.000270877 0.00998637 )  
( -0.00133001 4.04634e-05 0.00980017 )  
( -0.000391576 0.000515049 0.00995677 )  
( 0.00445606 -0.0018724 0.0117232 )  
( -0.00108999 0.000183384 -0.000708638 )  
( -0.000765514 -0.00127049 0.0095518 )  
( -0.000595854 0.000688615 0.00991117 )  
( -0.00119479 0.00216797 0.0119837 )  
( 1.51209e-05 -0.000384061 4.09478e-06 )  
( -0.00198075 -0.00117814 0.00575762 )  
( 0.00245559 -0.00170505 0.00699099 )  
( -0.00251481 -0.000765239 0.00768307 )  
( -0.000571341 0.00112339 0.000233063 )  
( -0.000703223 -0.000136706 8.51911e-06 )  
( -0.000655096 0.000134597 0.00026484 )  
( -0.000673914 -0.002577 0.00712062 )  
( -8.04294e-05 -6.81531e-06 1.89297e-05 )  
( 0.000137354 -0.00178247 0.00711854 )  
( -0.000686656 -0.00244908 0.00852695 )  
( -0.000761213 0.000179336 0.000790976 )  
( -0.000230394 7.59481e-05 5.70404e-05 )  
( -0.00190755 -0.00163814 -0.00178769 )  
( -0.00144245 -0.00145563 0.0101451 )  
( -0.00175607 -0.0005594 -0.00110274 )  
( -0.000367855 0.000228037 0.00655125 )  
( -0.0012489 -0.000475476 0.00130436 )  
( -0.000391351 0.000186277 3.19807e-05 )  
( 9.01147e-05 0.000442587 -0.000213853 )  
( 0.00117782 -0.000545333 0.0101072 )  
( 0.000410632 -0.000927556 0.00759798 )  
( -0.000510516 -0.00046699 0.00678773 )  
( -0.00185671 0.000846278 5.33354e-07 )  
( 0.000262673 8.44324e-05 0.00897437 )  
( -0.00127682 0.000365148 -0.000151028 )  
( 0.000706844 -0.00117934 0.00987392 )  
( -0.000861153 -0.0011907 0.0092762 )  
( 0.000409565 -0.00179092 8.48974e-07 )  
( -0.000475204 0.000671679 0.000316129 )  
( -0.000299079 -0.00345736 0.0105364 )  
( -0.000185903 0.000509523 0.0105137 )  
( -0.00111499 0.000380266 0.000929204 )  
( 0.000152075 -0.00050564 -0.000183823 )  
( -0.000611859 -0.00240783 0.0103224 )  
( -0.000985163 -0.000480239 0.0105165 )  
( 0.000348346 -0.000465525 0.0101415 )  
( -0.000633051 -0.000403202 0.00602334 )  
( -0.000464222 -0.000487899 0.00763095 )  
( -0.00108306 -0.000666135 0.0114289 )  
( -0.00489998 0.00239752 -6.82944e-06 )  
( -0.000454248 0.000539035 -9.33233e-05 )  
( -0.000765493 0.000442043 3.77839e-05 )  
( -0.00125306 -0.000646104 0.00986365 )  
( 0.000490892 -0.00114046 0.0114669 )  
( -0.000127051 -0.000948949 0.0131964 )  
( -0.000717169 0.000153326 1.69036e-05 )  
( -0.000607227 -0.00192781 0.010132 )  
( 0.000826349 -0.00169489 0.00820778 )  
( -0.000574786 -0.000373002 0.000358328 )  
( 6.21038e-05 0.00152554 0.00821294 )  
( -0.000334065 -0.000374849 0.00910272 )  
( -0.000143269 -0.000684915 0.00822956 )  
( -0.000862955 -0.000368538 -0.000924509 )  
( -0.000219968 -0.000375776 0.000344914 )  
( 5.73206e-05 -8.55617e-05 -8.66671e-06 )  
( 0.00122349 -0.00017168 0.0077833 )  
( -0.000830536 0.000849668 0.0109351 )  
( -0.000652373 -7.06475e-05 0.000391001 )  
( -0.000535878 0.000368409 0.00037994 )  
( 0.000116306 5.54818e-05 -0.000250055 )  
( 0.0001067 -0.00247916 0.00504889 )  
( 2.31832e-05 -0.0003107 0.00974249 )  
( 0.000395565 0.00174301 0.00799749 )  
( -0.00117658 0.00196119 -3.58774e-05 )  
( -0.000896496 0.00136038 0.0109493 )  
( -8.87065e-05 0.000639839 0.00974661 )  
( -6.69898e-05 0.000346922 0.00856944 )  
( -0.00125601 0.000158177 0.00910406 )  
( -0.00092657 -0.000531125 0.00799077 )  
( -0.0001881 -0.000471651 0.00879269 )  
( -0.00145249 -0.00103552 0.00970106 )  
( -0.000159188 -0.000481506 0.00929175 )  
( 0.000859531 0.000943653 -0.000328046 )  
( -0.0011098 -0.000417769 0.00930552 )  
( 0.000354879 -0.00168548 0.0108735 )  
( -0.000302898 -0.00024595 1.9094e-05 )  
( -0.00171616 -0.00152913 0.00916773 )  
( 0.000118062 -0.000144085 -2.80213e-05 )  
( -0.000532041 -0.00259501 0.0081351 )  
( -0.001603 5.84402e-05 0.00522611 )  
( 0.000109713 -0.00163189 0.00869801 )  
( 0.000482451 -0.000213989 0.0087307 )  
( -0.00183385 -0.000604292 0.00792085 )  
( -0.000353429 0.000211657 2.34063e-05 )  
( 0.000671632 0.00055576 0.00904672 )  
( -0.000217611 -0.000230515 0.00919425 )  
( 0.000205326 -0.00120628 0.0116408 )  
( -0.00255286 0.000109906 0.0075852 )  
( -0.000741218 -0.000900431 0.00128189 )  
( -0.000230361 0.00099286 -0.000118441 )  
( -0.0028596 -0.000865373 0.00801751 )  
( -0.00264957 0.00178999 0.0116845 )  
( -0.000288905 0.0037556 0.00325423 )  
( 8.59688e-05 -0.00257079 0.00866717 )  
( -0.000665436 -0.00171946 0.00668512 )  
( -0.00080618 -0.00053209 0.00046286 )  
( -0.000595924 -0.00105045 0.00811798 )  
( -0.00184175 0.000258066 0.00612175 )  
( 0.000194379 0.00135633 0.00551553 )  
( -0.000343068 0.000381329 0.00776591 )  
( -0.000237888 -0.00159713 0.00400715 )  
( -0.000664937 -6.78994e-05 -0.000121485 )  
( -0.000727679 -0.00267665 0.00719879 )  
( -0.00251162 -0.000166513 0.0076856 )  
( 9.10802e-06 6.96015e-05 -1.84124e-05 )  
( 5.76171e-05 0.000207307 -0.00146146 )  
( -0.00167588 -0.000253535 0.0130156 )  
( -0.00381546 0.00072395 0.00192284 )  
( -0.00040838 -0.000105317 -3.44056e-05 )  
( -0.000521239 -0.000777752 0.00991878 )  
( 3.57874e-05 0.000361494 4.17345e-05 )  
( -0.00204615 0.00123485 0.00630241 )  
( -0.000436183 -0.000677304 0.00969912 )  
( 6.91011e-05 -0.00180091 0.0149999 )  
( -0.000853905 -0.00133403 0.00921614 )  
( -0.000211353 0.00107177 -4.6689e-06 )  
( 0.000698 -0.0021319 0.0085528 )  
( 0.000982655 0.000284559 -0.000555697 )  
( 0.000918349 -0.000922301 0.000509435 )  
( -0.001468 -0.00107733 0.00839122 )  
( -0.000843353 -0.0013804 0.00936054 )  
( 8.30741e-05 4.96018e-05 -0.000866058 )  
( -0.000237695 0.000327083 0.000244293 )  
( -0.00024527 -0.000336199 0.00780593 )  
( -0.000321198 -0.00103231 1.12127e-05 )  
( -0.000146128 0.000358585 0.0093906 )  
( -0.000155047 -0.00131187 0.00158738 )  
( 0.00517351 -0.00171788 0.00112068 )  
( -0.000703373 -0.00106956 0.0101255 )  
( -0.000252114 -0.000836931 0.00968818 )  
( -0.00012814 -0.000175506 5.30099e-05 )  
( -0.000161724 -0.00139569 0.00146069 )  
( -0.000322111 -0.00140395 0.008678 )  
( -0.000476077 1.82893e-05 -4.85676e-05 )  
( -0.000476695 -0.00127222 0.00869963 )  
( -0.00242361 -0.000513124 -0.00158396 )  
( 9.61749e-06 -5.79028e-06 3.39798e-05 )  
( -9.11218e-06 -0.000147397 0.000187484 )  
( 0.00053149 -0.000319596 0.000114108 )  
( 0.000570894 -0.00161899 0.0115976 )  
( -0.00105467 0.00156653 -0.00134036 )  
( 0.000507576 -0.000370824 -0.000147041 )  
( 1.41861e-05 0.00198929 0.00410293 )  
( 0.000333517 0.000317742 -0.000106623 )  
( -0.00119875 -0.00115327 0.00131735 )  
( -5.94438e-05 -0.000646681 -6.16806e-06 )  
( -4.74769e-05 0.00027587 8.23826e-06 )  
( 0.00113171 0.000892831 2.50908e-05 )  
( -0.00154011 -0.000326829 0.00972057 )  
( -2.92199e-05 1.04508e-05 -4.4941e-05 )  
( -0.000153773 0.000342853 0.000629512 )  
( -0.000520039 0.000720872 0.00969861 )  
( -0.000276417 -0.000374283 0.00845387 )  
( 0.000138023 1.96232e-06 4.62316e-05 )  
( -0.000165367 0.000344784 -2.8986e-05 )  
( -0.000121249 0.00219156 0.00940087 )  
( 0.000313853 0.000855741 0.00371611 )  
( -0.000464906 -0.00185896 0.00805074 )  
( 0.000461385 -4.90275e-05 -0.00172715 )  
( 0.000206737 -0.00197724 0.00850613 )  
( -4.6174e-05 -0.00109386 0.00960036 )  
( 0.000465554 0.000345044 0.00941835 )  
( 4.35589e-05 7.66989e-05 1.63267e-06 )  
( -0.000532682 0.0014165 0.0106944 )  
( 6.94516e-05 -4.69923e-05 -1.24365e-05 )  
( 0.000251436 -0.000330196 0.00704076 )  
( 8.99553e-05 0.00032215 -0.000300658 )  
( -0.00251077 -0.00069021 0.0100259 )  
( -0.00112542 -0.00465701 0.0134281 )  
( 4.53639e-05 5.84245e-06 1.06182e-05 )  
( -0.000493892 8.65043e-05 0.000256487 )  
( 0.00188458 -0.000113753 0.00959647 )  
( -0.00106517 7.43173e-05 0.00117064 )  
( -9.38276e-06 5.96788e-05 0.0106467 )  
( 0.000662554 -0.00198672 0.0126646 )  
( -0.0019636 -0.00145619 0.0131287 )  
( 0.000834241 -7.37401e-05 0.00981051 )  
( -0.00176238 -0.000566502 0.00839544 )  
( -0.000482041 -0.000651263 0.00876597 )  
( -0.00192499 -0.00209011 -0.00127022 )  
( -0.00036514 -0.000649679 0.00123002 )  
( 0.00105863 -0.000354097 0.00965369 )  
( -0.00115318 -0.000503055 0.000131468 )  
( -0.000756895 -0.00031368 -0.00078231 )  
( 0.00199267 0.00302803 0.0112525 )  
( 0.000180424 0.00017164 -9.0447e-05 )  
( 0.00177287 -0.00100682 0.000108252 )  
( -0.00185862 0.00117494 0.00960258 )  
( 0.000672335 -0.00112356 0.00853617 )  
( -0.00118977 1.72841e-05 0.000711417 )  
( -0.000479009 -3.66405e-05 0.000476583 )  
( -0.00211724 0.000531603 0.00958393 )  
( -0.000125221 0.000668266 -0.000308293 )  
( 0.000152351 -6.19079e-05 -0.000126982 )  
( -0.00149753 -0.00103991 0.0120155 )  
( -0.000709259 -0.00195311 0.00928217 )  
( -0.000420627 -0.000764402 0.00963472 )  