FoamFile
{version 2.0; format ascii;class Cloud<passiveParticle>; location 0;object  positions;}
2497
(
( -0.00235229 0.000119374 0.00186336 ) 0 
( -0.0123561 0.000644382 0.00320923 ) 0 
( -0.0123496 0.000399794 0.00223974 ) 0 
( -0.00875839 0.000185386 0.00563318 ) 0 
( -0.00848754 8.7372e-05 0.00371802 ) 0 
( -0.0022117 0.000644904 0.00762551 ) 0 
( -0.00319373 0.000165144 0.00132619 ) 0 
( -0.0119635 0.000115625 0.00136251 ) 0 
( -0.00428839 0.000141682 0.00607028 ) 0 
( -0.00029655 9.48833e-05 0.00287306 ) 0 
( -0.0110737 9.53165e-05 0.00644995 ) 0 
( -0.0133437 0.000417342 0.00213617 ) 0 
( -0.00586811 0.000174684 0.00339122 ) 0 
( -0.00375231 0.000121937 0.000498677 ) 0 
( -0.00831838 0.000280041 0.0027258 ) 0 
( -0.00525007 0.000407673 0.00811968 ) 0 
( -0.00938999 1.93102e-05 0.0129877 ) 0 
( -0.00485999 1.1244e-05 0.0128897 ) 0 
( -0.0110883 0.00151994 0.0141723 ) 0 
( -0.0112637 0.00328146 0.0149747 ) 0 
( -0.00775752 0.000635367 0.0142261 ) 0 
( -0.00668457 0.000215563 0.0145138 ) 0 
( -0.000894836 0.000118631 0.0106681 ) 0 
( -0.00691165 4.35378e-05 0.0131026 ) 0 
( -0.0127345 0.000249149 0.0120559 ) 0 
( -0.0108611 0.000565364 0.013977 ) 0 
( -0.00827068 0.000493543 0.0129035 ) 0 
( -0.00593954 0.00027296 0.0131448 ) 0 
( -0.00234423 6.92258e-05 0.0115686 ) 0 
( -0.00283898 8.94959e-06 0.0090024 ) 0 
( -0.00911245 0.000992647 0.00162615 ) 0 
( -0.00113856 0.00974737 0.00123862 ) 0 
( -0.00616898 0.00410361 0.004027 ) 0 
( -0.00541261 0.00376463 0.00699371 ) 0 
( -0.00202155 0.00569596 0.00325173 ) 0 
( -0.000618669 0.011628 0.00750333 ) 0 
( -0.00112516 0.0120301 0.0015481 ) 0 
( -0.012508 0.00187804 0.00144362 ) 0 
( -0.00651313 0.00615357 0.00476687 ) 0 
( -0.00263971 0.0109381 0.00733177 ) 0 
( -0.0120458 0.00259674 0.000499704 ) 0 
( -0.00345204 0.00876647 0.00454214 ) 0 
( -0.00998464 0.00261689 0.000499436 ) 0 
( -0.0098318 0.00765005 0.000499118 ) 0 
( -0.0105098 0.00658399 0.00291368 ) 0 
( -0.00728127 0.0043069 0.00211344 ) 0 
( -0.00429032 0.00553531 0.00336145 ) 0 
( -0.00328338 0.00544039 0.00325534 ) 0 
( -0.0108971 0.00563919 0.00118967 ) 0 
( -0.0120943 0.000958878 0.00591329 ) 0 
( -0.00756644 0.00631466 0.00621978 ) 0 
( -0.0025792 0.00166041 0.00546701 ) 0 
( -0.00391163 0.00886035 0.00542473 ) 0 
( -0.00525592 0.00439276 0.00488702 ) 0 
( -0.00548774 0.00603019 0.00218207 ) 0 
( -0.00672564 0.00932591 0.000499327 ) 0 
( -0.000371192 0.00523917 0.00438213 ) 0 
( -0.0110965 0.00311054 0.000499758 ) 0 
( -0.0010887 0.0105167 0.00322902 ) 0 
( -0.00859483 0.00921748 0.00577174 ) 0 
( -0.000681952 0.00732855 0.00538923 ) 0 
( -0.00634758 0.000458503 0.00203863 ) 0 
( -0.00533339 0.00934239 0.00200712 ) 0 
( -0.0123111 0.00516464 0.00475793 ) 0 
( -0.00166775 0.00498972 0.00124192 ) 0 
( -0.000913769 0.00356118 0.00337015 ) 0 
( -0.0126533 0.00425665 0.000499648 ) 0 
( -0.00086625 0.00780406 0.00381201 ) 0 
( -0.00693644 0.00974368 0.00238627 ) 0 
( -0.00550777 0.00222487 0.00735695 ) 0 
( -0.00335981 0.00945067 0.00601951 ) 0 
( -0.00172933 0.00779915 0.00668843 ) 0 
( -0.0104483 0.00319943 0.00228514 ) 0 
( -0.0036464 0.00615452 0.00499894 ) 0 
( -0.00112206 0.00437743 0.0067434 ) 0 
( -0.00134114 0.0094601 0.00331013 ) 0 
( -0.0110821 0.00466407 0.0034238 ) 0 
( -0.00314486 0.00872868 0.000499439 ) 0 
( -0.000563096 0.0126819 0.003884 ) 0 
( -0.0106256 0.00159917 0.00135574 ) 0 
( -0.00844149 0.0037535 0.00380567 ) 0 
( -0.00896641 0.00803346 0.00567705 ) 0 
( -0.00504703 0.0030763 0.000948666 ) 0 
( -0.00201876 0.00442049 0.000499039 ) 0 
( -0.00165338 0.0104427 0.0040501 ) 0 
( -0.00297441 0.00233902 0.00484738 ) 0 
( -0.00945545 0.000334795 0.00427385 ) 0 
( -0.0037646 0.0103531 0.00587316 ) 0 
( -0.00322189 0.012042 0.00685616 ) 0 
( -0.006984 0.0032499 0.00499551 ) 0 
( -0.00800138 0.00457736 0.0034517 ) 0 
( -0.00323301 0.00553067 0.00567266 ) 0 
( -0.0100407 0.00724267 0.00138703 ) 0 
( -0.00164838 0.00131991 0.00294687 ) 0 
( -0.0057406 0.00712369 0.00337337 ) 0 
( -0.001047 0.00802236 0.00217497 ) 0 
( -0.00580516 0.00138553 0.00689094 ) 0 
( -0.00262214 0.00111137 0.00684273 ) 0 
( -0.000626076 0.00501379 0.00332841 ) 0 
( -0.00386078 0.00978727 0.00505488 ) 0 
( -0.00724498 0.0100266 0.00136648 ) 0 
( -0.00431059 0.0106946 0.00216613 ) 0 
( -0.00533788 0.00835938 0.00496976 ) 0 
( -0.0059667 0.0104383 0.00641512 ) 0 
( -0.0119517 0.00483875 0.00388432 ) 0 
( -0.00498404 0.00286031 0.0019221 ) 0 
( -0.00185598 0.0108061 0.00637565 ) 0 
( -0.00215409 0.004469 0.00455849 ) 0 
( -0.00556703 0.000594385 0.00141596 ) 0 
( -0.00221478 0.000789514 0.00580591 ) 0 
( -0.00967049 0.00397325 0.00500059 ) 0 
( -0.0104284 0.0030949 0.0012907 ) 0 
( -0.00147094 0.00675683 0.0068529 ) 0 
( -0.00267178 0.00565109 0.0024935 ) 0 
( -0.00797703 0.000519816 0.00716407 ) 0 
( -0.0121313 0.00245653 0.00322582 ) 0 
( -0.00287529 0.0112475 0.00414669 ) 0 
( -0.00059382 0.0105162 0.00655229 ) 0 
( -0.0027184 0.00283092 0.00243502 ) 0 
( -0.00194746 0.00979349 0.00190448 ) 0 
( -0.00441352 0.00579535 0.0067165 ) 0 
( -0.00597334 0.00529391 0.00144354 ) 0 
( -0.0068865 0.0028903 0.00375216 ) 0 
( -0.00681469 0.00128902 0.00725627 ) 0 
( -0.00449491 0.00350544 0.00250758 ) 0 
( -0.0109168 0.00413732 0.00639876 ) 0 
( -0.00891132 0.00587042 0.00393173 ) 0 
( -0.00413495 0.00236801 0.00283547 ) 0 
( -0.00301285 0.00258935 0.00588762 ) 0 
( -0.00012401 0.00308616 0.00196537 ) 0 
( -0.00326513 0.00900128 0.0026958 ) 0 
( -0.00667759 0.0115579 0.00534546 ) 0 
( -0.00238841 0.00715672 0.00464705 ) 0 
( -0.00774862 0.00259672 0.00334014 ) 0 
( -0.00337981 0.00324155 0.00469117 ) 0 
( -0.0114289 0.000788584 0.00518709 ) 0 
( -0.00991921 0.00741732 0.00236325 ) 0 
( -0.0111961 0.00430738 0.00435048 ) 0 
( -0.00098983 0.00341695 0.00774627 ) 0 
( -0.007705 0.00663168 0.00715765 ) 0 
( -0.00167742 0.000813493 0.000499492 ) 0 
( -0.0130411 0.00285967 0.00593796 ) 0 
( -0.00384153 0.00652429 0.00709118 ) 0 
( -0.00095475 0.00164949 0.004617 ) 0 
( -7.15283e-05 0.00954388 0.00445876 ) 0 
( -0.00242437 0.00895875 0.00406862 ) 0 
( -0.000147853 0.00389237 0.00255628 ) 0 
( -0.0120174 0.00581439 0.0054664 ) 0 
( -0.0079203 0.0075369 0.00679256 ) 0 
( -0.00476647 0.0040877 0.00768536 ) 0 
( -0.0121642 0.00290234 0.00144425 ) 0 
( -0.00448159 0.0034928 0.00597223 ) 0 
( -0.0038154 0.00513555 0.00717024 ) 0 
( -0.0100347 0.00201738 0.00361572 ) 0 
( -0.0106362 0.00533015 0.00569486 ) 0 
( -0.00951277 0.000689988 0.00520676 ) 0 
( -0.00609861 0.00143446 0.00131485 ) 0 
( -0.003299 0.000792147 0.00365901 ) 0 
( -0.00764776 0.000212331 0.00808578 ) 0 
( -0.0113163 0.00708249 0.00464409 ) 0 
( -0.00338623 0.0108174 0.00340309 ) 0 
( -0.00454686 0.000514314 0.00481663 ) 0 
( -0.00508968 0.00262517 0.00309517 ) 0 
( -0.00881885 0.00626602 0.00301837 ) 0 
( -0.00445314 0.00788588 0.00693971 ) 0 
( -0.00582619 0.00067146 0.00597358 ) 0 
( -0.00554962 0.00794975 0.00207425 ) 0 
( -0.00307143 0.00692906 0.00534503 ) 0 
( -0.00283805 0.00761402 0.00603512 ) 0 
( -0.00126252 0.000379684 0.00746024 ) 0 
( -0.0128004 0.000719998 0.00134441 ) 0 
( -0.00971838 0.00629687 0.00345298 ) 0 
( -0.0119088 0.00108195 0.00161145 ) 0 
( -0.00282589 0.0108032 0.000499743 ) 0 
( -0.00439685 0.00835641 0.00463246 ) 0 
( -0.00831125 0.00451524 0.00250354 ) 0 
( -0.00171182 0.00294379 0.00347766 ) 0 
( -0.00343565 0.0129013 0.0019143 ) 0 
( -0.00369005 0.00841674 0.00730595 ) 0 
( -0.00335485 0.00953108 0.00126817 ) 0 
( -0.00512146 0.0114087 0.00127175 ) 0 
( -0.011353 0.00126532 0.000499676 ) 0 
( -0.00325197 0.00203328 0.00215414 ) 0 
( -0.00534581 0.0102798 0.005648 ) 0 
( -0.00230949 0.00648884 0.00128175 ) 0 
( -0.0030615 0.000275715 0.00566719 ) 0 
( -0.00965855 0.00819094 0.00293992 ) 0 
( -0.0130511 0.00275181 0.00693143 ) 0 
( -0.00520697 0.0069711 0.00248915 ) 0 
( -0.00792794 0.00544844 0.00131324 ) 0 
( -0.00655344 0.00780749 0.00593491 ) 0 
( -0.00459004 0.00767881 0.00214602 ) 0 
( -0.0059619 0.0119451 0.00319252 ) 0 
( -0.00306707 0.0115539 0.00507817 ) 0 
( -0.00874361 0.0086703 0.00135057 ) 0 
( -0.0104604 0.000795222 0.00484883 ) 0 
( -0.00318709 0.00579237 0.00675464 ) 0 
( -0.00293883 0.00940547 0.00511384 ) 0 
( -0.010896 0.00114364 0.00347153 ) 0 
( -0.00368578 0.00579241 0.000886669 ) 0 
( -0.00966859 0.00566486 0.00051902 ) 0 
( -0.00217786 0.0122827 0.00250421 ) 0 
( -0.00496246 0.0100656 0.00258817 ) 0 
( -0.00692478 0.00509345 0.00506533 ) 0 
( -0.00602698 0.000909947 0.0077414 ) 0 
( -0.00702919 0.00699223 0.00443396 ) 0 
( -0.00555782 0.0016313 0.000498833 ) 0 
( -0.00382417 0.0107458 0.000499787 ) 0 
( -0.00331179 0.0011749 0.00496831 ) 0 
( -0.00189709 0.00821196 0.00366403 ) 0 
( -7.60868e-05 0.00574526 0.0028713 ) 0 
( -0.011544 0.00195855 0.00120311 ) 0 
( -0.00486018 0.00164589 0.00547025 ) 0 
( -0.00441397 0.00348492 0.00696924 ) 0 
( -0.00249052 0.00429397 0.00548399 ) 0 
( -0.00977753 0.00248736 0.00445847 ) 0 
( -0.00968776 0.00376505 0.00131157 ) 0 
( -0.00152761 0.0106393 0.00157557 ) 0 
( -0.00139231 0.00902409 0.00616348 ) 0 
( -0.00230201 0.0107077 0.00476298 ) 0 
( -0.00213261 0.00466804 0.00651121 ) 0 
( -0.00383571 0.00417264 0.00204271 ) 0 
( -0.00409251 0.0010132 0.00557136 ) 0 
( -0.000334934 0.00679625 0.0033203 ) 0 
( -0.00746927 0.00457302 0.00116815 ) 0 
( -0.00780953 0.0108279 0.00208587 ) 0 
( -0.0084611 0.00249762 0.0068235 ) 0 
( -0.00718281 0.00208627 0.00631944 ) 0 
( -0.00624147 0.00220849 0.00415528 ) 0 
( -0.00427842 0.00862063 0.00202641 ) 0 
( -0.00813537 0.00364207 0.00204939 ) 0 
( -0.0109068 0.00770008 0.00619349 ) 0 
( -0.00914219 0.00133497 0.000499945 ) 0 
( -0.00562412 0.00376243 0.000499358 ) 0 
( -0.00773158 0.00599128 0.000498578 ) 0 
( -0.00402946 0.0123192 0.00136021 ) 0 
( -0.00307936 0.00468264 0.00619202 ) 0 
( -0.00503093 0.000180563 0.000499793 ) 0 
( -0.0120777 0.00230207 0.00223979 ) 0 
( -0.00488699 0.0111827 0.00393571 ) 0 
( -0.00328111 0.000403453 0.00709535 ) 0 
( -0.01125 0.00195686 0.00718066 ) 0 
( -0.00205056 0.00388399 0.00784882 ) 0 
( -0.00429157 0.00338585 0.00347869 ) 0 
( -0.00271226 0.0114303 0.00271923 ) 0 
( -0.00138966 0.0132776 0.00182625 ) 0 
( -0.0121474 0.00402827 0.00179866 ) 0 
( -6.56829e-06 0.00298511 0.000502935 ) 0 
( -0.00859343 0.00494486 0.00416884 ) 0 
( -0.000879559 0.00832591 0.00667275 ) 0 
( -0.00293288 0.00678986 0.00676998 ) 0 
( -0.00681059 0.00902497 0.00306979 ) 0 
( -0.00596482 0.00770559 0.00118985 ) 0 
( -3.20637e-05 0.0105202 0.00570912 ) 0 
( -0.00972126 0.00845196 0.00134292 ) 0 
( -0.00978501 0.00161583 0.00494739 ) 0 
( -0.0114847 0.00463489 0.00136128 ) 0 
( -0.0022891 0.00197208 0.00722681 ) 0 
( -5.77019e-06 0.00820113 0.00413834 ) 0 
( -0.00169136 0.00642017 0.000499079 ) 0 
( -0.00753461 0.00697291 0.000499759 ) 0 
( -0.00309391 0.00958173 0.00703798 ) 0 
( -0.00209826 0.0122504 0.00148936 ) 0 
( -0.00204036 0.0131933 0.00469883 ) 0 
( -0.00562196 0.0121084 0.00540739 ) 0 
( -0.00735838 0.00498178 0.00416949 ) 0 
( -0.00281001 0.00738434 0.00131027 ) 0 
( -0.00430188 0.00585988 0.00569314 ) 0 
( -0.0123475 0.00226663 0.00418278 ) 0 
( -0.00440393 0.00301369 0.00442127 ) 0 
( -0.00106622 0.00426811 0.00268002 ) 0 
( -0.00399166 0.00976132 0.00200327 ) 0 
( -0.0062326 0.00157113 0.00846722 ) 0 
( -0.00370998 0.0128251 0.00571831 ) 0 
( -0.00669177 0.00807377 0.00335579 ) 0 
( -0.00133847 0.0027855 0.00132282 ) 0 
( -0.00445264 0.00381038 0.0050232 ) 0 
( -0.008927 0.00353253 0.00551128 ) 0 
( -0.00480508 0.00548515 0.00762612 ) 0 
( -0.00015822 0.0120118 0.00129321 ) 0 
( -0.00172184 0.00301756 0.00829651 ) 0 
( -0.00371485 0.0029313 0.00212416 ) 0 
( -0.000177569 0.00718538 0.000499209 ) 0 
( -0.00011134 0.00995963 0.00222059 ) 0 
( -0.00852341 0.00606426 0.00639177 ) 0 
( -0.00127619 0.00929361 0.00520783 ) 0 
( -0.00586345 0.00252172 0.00509024 ) 0 
( -0.00218238 0.0034376 0.00589775 ) 0 
( -0.0101884 0.00743608 0.00332594 ) 0 
( -0.000112784 0.0108501 0.00282618 ) 0 
( -0.00101594 0.00846183 0.00307392 ) 0 
( -0.00509157 0.00506588 0.00185445 ) 0 
( -0.00168499 0.00528481 0.00422142 ) 0 
( -0.00540982 0.0103162 0.00399596 ) 0 
( -0.00141216 0.0059343 0.00493065 ) 0 
( -0.0037119 0.00394373 0.00642349 ) 0 
( -0.00985451 0.00900682 0.00715777 ) 0 
( -0.00137365 0.00753244 0.00299322 ) 0 
( -0.00611864 0.0110812 0.000501101 ) 0 
( -0.00251445 0.00443849 0.00136622 ) 0 
( -0.00711466 0.00611034 0.00396979 ) 0 
( -0.0119587 0.00356982 0.000712896 ) 0 
( -0.0116729 0.00159052 0.00302955 ) 0 
( -0.00635476 0.0102389 0.00433229 ) 0 
( -0.00924414 0.000307372 0.00234121 ) 0 
( -0.00448527 0.00217815 0.00789148 ) 0 
( -0.00278039 0.0130524 0.00398823 ) 0 
( -0.0097963 0.00786461 0.00462896 ) 0 
( -0.000325333 0.00774587 0.00297235 ) 0 
( -0.00733545 0.000122914 0.00170972 ) 0 
( -0.00991521 0.00340305 0.00395192 ) 0 
( -9.63326e-05 0.00046463 0.00193771 ) 0 
( -0.0055218 0.00932832 0.00539817 ) 0 
( -0.00676896 0.0050536 0.00325503 ) 0 
( -0.00360837 0.00451682 0.00107988 ) 0 
( -0.0113112 0.00184306 0.00618953 ) 0 
( -0.00462392 0.00198732 0.000499674 ) 0 
( -0.000120011 0.000545341 0.000499637 ) 0 
( -0.00385498 0.00163385 0.00733819 ) 0 
( -0.000647029 0.00593402 0.00371804 ) 0 
( -0.00720429 0.00771933 0.0051079 ) 0 
( -0.00390672 0.00237281 0.00131731 ) 0 
( -0.00685592 0.00892888 0.00668794 ) 0 
( -0.00709248 0.00823524 0.00425781 ) 0 
( -0.0083676 0.00271052 0.00143383 ) 0 
( -0.00398194 0.00285423 0.00538824 ) 0 
( -0.000720835 0.0101987 0.00506 ) 0 
( -0.00159707 0.0113989 0.00302628 ) 0 
( -0.0133129 0.00100724 0.0058034 ) 0 
( -0.0084037 0.00279069 0.00406964 ) 0 
( -0.00921844 0.00965627 0.00508569 ) 0 
( -0.000278445 0.00730062 0.00447511 ) 0 
( -0.00987475 0.00698475 0.00416088 ) 0 
( -0.00928016 0.00779702 0.00377626 ) 0 
( -0.0118339 0.00618024 0.00147577 ) 0 
( -0.00292113 0.00978203 0.00213345 ) 0 
( -0.0108703 0.00774976 0.000499808 ) 0 
( -0.00337606 0.00638745 0.00281379 ) 0 
( -3.54622e-05 0.00126593 0.0011885 ) 0 
( -0.00471533 0.00452081 0.00571786 ) 0 
( -0.000644222 0.00164835 0.00703827 ) 0 
( -0.0116134 0.00487128 0.00598437 ) 0 
( -0.000565402 0.00505943 0.00233166 ) 0 
( -0.00405727 0.0111353 0.0064221 ) 0 
( -0.00893077 0.00686214 0.00381318 ) 0 
( -0.0127018 0.00365491 0.0054362 ) 0 
( -0.0125227 0.00462861 0.00557457 ) 0 
( -0.0110471 0.00212349 0.00360155 ) 0 
( -0.00739017 0.00171908 0.00386334 ) 0 
( -0.000703871 0.00973213 0.00594347 ) 0 
( -0.00286135 0.0130402 0.000499511 ) 0 
( -0.00673958 0.00604006 0.00707655 ) 0 
( -0.00819886 0.000620611 0.00178928 ) 0 
( -0.0128327 0.00368022 0.00647101 ) 0 
( -0.00805367 0.00764517 0.00228176 ) 0 
( -0.00929974 0.0041764 0.0040951 ) 0 
( -0.00179253 0.0114806 0.00204951 ) 0 
( -0.0100064 0.00883783 0.00471507 ) 0 
( -0.00323158 0.00118168 0.00605371 ) 0 
( -0.0123307 0.00198931 0.00613115 ) 0 
( -0.0114252 0.000286079 0.00327753 ) 0 
( -0.000940219 0.00744599 0.00109005 ) 0 
( -0.00691225 0.0103895 0.00609445 ) 0 
( -0.00329913 0.00772667 0.000499796 ) 0 
( -0.0108662 0.00598713 0.00641174 ) 0 
( -0.00674635 0.00440591 0.000498612 ) 0 
( -0.0014946 0.00193232 0.00382406 ) 0 
( -0.00838483 0.00848479 0.00641853 ) 0 
( -0.010045 0.00370077 0.00588614 ) 0 
( -0.00595243 0.00687446 0.00718885 ) 0 
( -0.0117974 0.00171072 0.00532649 ) 0 
( -0.00130844 0.00657091 0.00332215 ) 0 
( -0.00128924 0.00181717 0.00556773 ) 0 
( -0.00210675 0.00235692 0.00179811 ) 0 
( -0.000468278 0.00968451 0.000499343 ) 0 
( -0.00488439 0.000937541 0.00617684 ) 0 
( -0.00115053 0.00685469 0.00427553 ) 0 
( -0.000850123 0.00686457 0.00246652 ) 0 
( -0.00148058 0.0123952 0.00444352 ) 0 
( -0.00499211 0.0113539 0.0067003 ) 0 
( -0.000792513 0.00128534 0.000499789 ) 0 
( -0.0108964 0.00363703 0.00367131 ) 0 
( -0.00194052 0.0116444 0.00722817 ) 0 
( -0.00317893 0.00369737 0.00145745 ) 0 
( -0.00122406 0.00977954 0.00679602 ) 0 
( -0.00949185 0.00431106 0.000498503 ) 0 
( -0.0101678 0.00705252 0.00511387 ) 0 
( -0.000583174 0.00431698 0.00759405 ) 0 
( -0.01192 0.00327398 0.0024141 ) 0 
( -0.00873071 0.00600958 0.000499427 ) 0 
( -0.00872983 0.00117044 0.00253208 ) 0 
( -0.00166815 0.0114988 0.00401868 ) 0 
( -0.00648894 0.00701431 0.00527496 ) 0 
( -0.011026 0.000657609 0.00141281 ) 0 
( -0.0108599 0.00213506 0.000498506 ) 0 
( -0.00265387 0.0053272 0.00746085 ) 0 
( -0.00411347 0.011325 0.00141652 ) 0 
( -0.00940235 0.00628554 0.00469705 ) 0 
( -0.00192877 0.00624835 0.00411429 ) 0 
( -0.004858 0.00773768 0.00603789 ) 0 
( -0.00417578 0.00288106 0.000499512 ) 0 
( -0.00956495 0.00668632 0.000499793 ) 0 
( -0.00542833 0.00221982 0.00129629 ) 0 
( -0.00629643 0.00533852 0.00049915 ) 0 
( -0.00268009 0.00528715 0.00478909 ) 0 
( -0.00632518 0.00411448 0.0072498 ) 0 
( -0.00239268 0.00622126 0.00499962 ) 0 
( -0.0106323 0.00176195 0.00443731 ) 0 
( -0.00182876 0.00416519 0.00204013 ) 0 
( -0.00350015 0.00666331 0.00135562 ) 0 
( -0.0070196 0.0029337 0.00274566 ) 0 
( -0.00381328 0.00416117 0.00739355 ) 0 
( -0.00810491 0.0106072 0.00492036 ) 0 
( -0.000658823 0.0111557 0.00142001 ) 0 
( -0.00751664 0.00812842 0.000498842 ) 0 
( -0.0031556 0.00225328 0.00312445 ) 0 
( -0.00039144 0.00570499 0.00628826 ) 0 
( -0.00105142 0.00353862 0.00199747 ) 0 
( -0.00356012 0.0104933 0.00144622 ) 0 
( -0.00428637 0.00677614 0.00450121 ) 0 
( -0.00561796 0.00460644 0.00775617 ) 0 
( -0.0108464 0.00540015 0.00279043 ) 0 
( -0.0124938 0.00470577 0.00657057 ) 0 
( -0.011271 0.00166114 0.00211676 ) 0 
( -0.0106109 0.00264977 0.00519829 ) 0 
( -0.00468742 0.00441479 0.00671941 ) 0 
( -0.00461337 0.00864637 0.00361711 ) 0 
( -0.00105728 0.012141 0.00253917 ) 0 
( -0.0130968 0.00259251 0.00181781 ) 0 
( -0.00918771 0.00184008 0.00311624 ) 0 
( -0.00451317 0.00220028 0.00379206 ) 0 
( -0.00459019 0.00935139 0.00131542 ) 0 
( -0.00996863 0.00213624 0.00689748 ) 0 
( -0.00744441 0.00579442 0.00774067 ) 0 
( -0.000342371 0.0124777 0.00705649 ) 0 
( -0.00146456 0.00199666 0.00780009 ) 0 
( -0.00759673 0.003738 0.00288628 ) 0 
( -0.00228009 0.00176758 0.000499083 ) 0 
( -0.00800876 0.00486284 0.00499555 ) 0 
( -0.00318448 0.00275183 0.000499422 ) 0 
( -0.00859907 0.00175785 0.00123725 ) 0 
( -0.0106791 0.00168019 0.00543253 ) 0 
( -0.00563103 0.00107275 0.00302143 ) 0 
( -0.00829206 0.00402863 0.00610164 ) 0 
( -0.00743877 0.00893821 0.00108224 ) 0 
( -0.00272105 0.00382592 0.00233685 ) 0 
( -0.00220114 0.00271002 0.000822909 ) 0 
( -0.00491694 0.00745768 0.00487237 ) 0 
( -0.00927784 0.0066049 0.00148335 ) 0 
( -0.00668053 0.0014424 0.000499062 ) 0 
( -0.00159417 0.0103411 0.00552516 ) 0 
( -0.00973101 0.00495675 0.00122218 ) 0 
( -0.00749591 0.000417458 0.003277 ) 0 
( -0.0128884 0.00348027 0.00760015 ) 0 
( -0.000375999 0.00297424 0.00613448 ) 0 
( -0.00555024 0.00440771 0.00125882 ) 0 
( -0.00642754 0.00359212 0.00320782 ) 0 
( -0.00361887 0.00728587 0.00228022 ) 0 
( -0.000913257 0.00445256 0.00161793 ) 0 
( -0.0104383 0.00285479 0.00324783 ) 0 
( -0.00572713 0.00777004 0.00654358 ) 0 
( -0.00234522 0.00275909 0.00661341 ) 0 
( -0.0113818 0.000683638 0.00236139 ) 0 
( -0.00926996 0.00552111 0.00559322 ) 0 
( -0.00683663 0.0114668 0.00745482 ) 0 
( -0.00402821 0.00863408 0.0063911 ) 0 
( -0.000294388 0.00259269 0.00706199 ) 0 
( -0.00074653 0.00635857 0.00562069 ) 0 
( -0.000442551 0.00366693 0.00121629 ) 0 
( -0.00512716 0.00678876 0.00580643 ) 0 
( -0.000302991 0.00639344 0.00700717 ) 0 
( -0.0046458 0.00694268 0.00666934 ) 0 
( -0.00590374 0.00870623 0.00148925 ) 0 
( -0.00621093 0.00990213 0.00313594 ) 0 
( -0.000555741 0.00872804 0.00478573 ) 0 
( -0.00959795 0.00178946 0.00126799 ) 0 
( -0.000554236 0.00601356 0.00203566 ) 0 
( -0.00126956 0.00908628 0.000499739 ) 0 
( -8.11208e-05 0.00198818 0.000499351 ) 0 
( -0.00110086 0.0026501 0.0024503 ) 0 
( -0.00538262 0.00469391 0.00384509 ) 0 
( -0.000918627 0.0110377 0.00576411 ) 0 
( -0.00242399 0.00296977 0.00758709 ) 0 
( -0.00702139 0.0113547 0.0044291 ) 0 
( -0.00586835 0.00153949 0.00530125 ) 0 
( -0.000330084 0.0111127 0.00496109 ) 0 
( -0.00681423 0.0114807 0.00144371 ) 0 
( -0.00065622 0.0123202 0.00612115 ) 0 
( -0.00877901 0.00127628 0.0055624 ) 0 
( -0.010304 0.00848426 0.00368151 ) 0 
( -0.00435544 0.00658444 0.00284259 ) 0 
( -0.00860538 0.00568372 0.00486455 ) 0 
( -0.0123943 0.000376819 0.000499031 ) 0 
( -0.00698797 0.00418637 0.00464694 ) 0 
( -0.00882865 0.0050335 0.000690647 ) 0 
( -0.00589613 0.00899237 0.0069583 ) 0 
( -0.00422751 0.00103353 0.000499453 ) 0 
( -0.00932213 0.00829008 0.00670848 ) 0 
( -0.000686865 0.0106985 0.00412521 ) 0 
( -0.00027641 0.00291638 0.00294893 ) 0 
( -0.0045504 0.00381813 0.000499214 ) 0 
( -0.0059481 0.0111539 0.00385246 ) 0 
( -0.00794734 0.0101046 0.00328874 ) 0 
( -0.00744966 0.00263956 0.00711192 ) 0 
( -0.0099533 0.00889692 0.00220746 ) 0 
( -4.98169e-05 0.00357171 0.00804805 ) 0 
( -0.00117786 0.001703 0.00214161 ) 0 
( -0.0047884 0.0124622 0.000500172 ) 0 
( -0.0100692 0.00610594 0.00541975 ) 0 
( -0.00774709 0.0108457 0.00108939 ) 0 
( -0.00771434 0.00167814 0.00706082 ) 0 
( -0.00317423 0.00465285 0.00798401 ) 0 
( -0.00207896 0.00373048 0.00686118 ) 0 
( -0.0125675 0.0026145 0.00509316 ) 0 
( -0.00983684 0.00579414 0.00175647 ) 0 
( -0.00222126 0.00721186 0.00733098 ) 0 
( -0.00712422 0.00436172 0.00670101 ) 0 
( -0.00694057 0.000468484 0.0049612 ) 0 
( -0.00196982 0.0100931 0.00285787 ) 0 
( -0.00835758 0.00187641 0.00366966 ) 0 
( -0.00433132 0.00930321 0.00431771 ) 0 
( -0.00322708 0.0121807 0.00420175 ) 0 
( -0.00842879 0.0046041 0.00150021 ) 0 
( -0.00961397 0.00159288 0.00224768 ) 0 
( -0.00719097 0.000950693 0.0022518 ) 0 
( -0.0046445 0.0121355 0.00565388 ) 0 
( -0.0114508 0.00686491 0.000498882 ) 0 
( -0.00685349 0.00698484 0.00677224 ) 0 
( -0.000196165 0.00786731 0.00609346 ) 0 
( -0.00183242 0.000955612 0.00203436 ) 0 
( -0.0101356 0.00144604 0.000498859 ) 0 
( -0.00799415 0.00945914 0.00172924 ) 0 
( -0.00817369 0.00311512 0.00498658 ) 0 
( -0.00821826 0.00708963 0.00309545 ) 0 
( -0.00903721 0.00868696 0.00491976 ) 0 
( -0.00425009 0.0126556 0.00258424 ) 0 
( -0.00862022 0.000561437 0.00087178 ) 0 
( -0.00712223 0.00293173 0.00049972 ) 0 
( -0.00568493 0.00756208 0.00550451 ) 0 
( -0.00739618 0.00727182 0.00598415 ) 0 
( -0.00402621 0.0118339 0.00492235 ) 0 
( -0.00533023 0.0050823 0.000499934 ) 0 
( -0.00548726 0.00519156 0.00695678 ) 0 
( -0.00426792 0.00924077 0.00281069 ) 0 
( -0.00953059 0.00295877 0.00727142 ) 0 
( -0.000389991 0.00717279 0.00789301 ) 0 
( -0.000877988 0.0043328 0.000499798 ) 0 
( -0.000941603 0.000973765 0.00149245 ) 0 
( -0.00945262 0.00511158 0.00468354 ) 0 
( -0.00165875 0.00605104 0.00589214 ) 0 
( -0.00696369 0.00533541 0.00156907 ) 0 
( -0.00909747 0.00753636 0.00116797 ) 0 
( -2.30001e-07 0.00688842 0.0060336 ) 0 
( -0.00767593 0.00919511 0.00618174 ) 0 
( -0.00576822 0.00493106 0.00555531 ) 0 
( -0.00804311 0.00096041 0.00391272 ) 0 
( -0.00292438 0.0130236 0.00513347 ) 0 
( -0.00055934 0.00255679 0.00475638 ) 0 
( -0.00460748 0.00577321 0.000499525 ) 0 
( -0.0100288 0.000803029 0.00127663 ) 0 
( -0.00363263 0.00185831 0.000500428 ) 0 
( -0.00591027 0.00128214 0.00433264 ) 0 
( -0.0063276 0.000529456 0.00682644 ) 0 
( -0.000367549 0.00146699 0.00540581 ) 0 
( -0.00490465 0.00130555 0.00118244 ) 0 
( -0.00820787 0.00926925 0.00702486 ) 0 
( -0.00862766 0.00348264 0.00686764 ) 0 
( -0.00830938 0.0054782 0.00223602 ) 0 
( -0.0116741 0.00148308 0.00404429 ) 0 
( -0.00664308 0.00495682 0.00603763 ) 0 
( -0.00867954 0.00647819 0.00731517 ) 0 
( -0.00538046 0.0122181 0.00242726 ) 0 
( -0.00459909 0.00193859 0.00189316 ) 0 
( -0.00495237 0.00980197 0.000499617 ) 0 
( -0.0107689 0.00437318 0.00543909 ) 0 
( -0.00152619 0.00273751 0.00443893 ) 0 
( -0.00311166 0.000992268 0.00188175 ) 0 
( -0.00729337 0.00625657 0.00135593 ) 0 
( -0.00681121 0.00890336 0.00185957 ) 0 
( -0.00893042 0.00992375 0.00333356 ) 0 
( -0.00963004 0.00113677 0.00715118 ) 0 
( -0.0124447 0.0013347 0.00466371 ) 0 
( -0.00437073 0.00480186 0.000499629 ) 0 
( -0.00637181 2.55606e-05 0.00424183 ) 0 
( -0.0050111 0.0115202 0.00486761 ) 0 
( -0.00389305 0.00394725 0.00420347 ) 0 
( -0.00761403 0.00574902 0.00475603 ) 0 
( -0.0112001 0.000973596 0.00735297 ) 0 
( -0.000768147 0.00345022 0.00436046 ) 0 
( -0.00124253 0.00578425 0.00687061 ) 0 
( -0.0124292 0.00138164 0.00241052 ) 0 
( -0.00913529 0.0032434 0.00457746 ) 0 
( -0.00526588 0.00199806 0.00631356 ) 0 
( -0.00597892 0.0109325 0.00147981 ) 0 
( -0.00861749 0.00210513 0.00476509 ) 0 
( -0.0106287 0.000576595 0.000499448 ) 0 
( -0.00479719 0.0111082 0.00575184 ) 0 
( -0.00733332 0.00836608 0.00252914 ) 0 
( -0.0102725 0.00436493 0.00395561 ) 0 
( -0.00334795 0.0105747 0.00471487 ) 0 
( -0.00244552 0.0025379 0.00402247 ) 0 
( -0.00808641 0.00131962 0.00049924 ) 0 
( -0.00289999 0.00742745 0.00366031 ) 0 
( -0.00287287 0.0107124 0.00558348 ) 0 
( -0.00110263 0.00234016 0.00639907 ) 0 
( -0.00670358 0.00688748 0.00349509 ) 0 
( -0.0105624 0.00816635 0.00251543 ) 0 
( -0.00794924 0.0015602 0.00202258 ) 0 
( -0.00974065 0.00358299 0.0028801 ) 0 
( -0.00619076 0.0033903 0.00626606 ) 0 
( -0.013307 0.000909012 0.00381392 ) 0 
( -0.00192814 0.00721814 0.00376274 ) 0 
( -0.00340198 0.0105125 0.00684627 ) 0 
( -0.00466743 0.000726985 0.00212732 ) 0 
( -0.00738721 0.00657562 0.00526862 ) 0 
( -0.00923684 0.00167327 0.00410979 ) 0 
( -0.0133461 0.00018971 0.00311318 ) 0 
( -0.00358992 0.000226307 0.00482008 ) 0 
( -0.0024974 0.00496098 0.003737 ) 0 
( -0.00652616 0.00444198 0.00147195 ) 0 
( -0.00640011 0.00932498 0.00393062 ) 0 
( -2.21906e-05 0.00105413 0.00295529 ) 0 
( -0.0123314 0.00511503 0.000898654 ) 0 
( -0.00135792 0.00855345 0.00138692 ) 0 
( -0.00159181 0.00126292 0.00712811 ) 0 
( -0.00982379 0.00554751 0.00279972 ) 0 
( -0.00263364 0.000209023 0.00049939 ) 0 
( -0.00223979 0.00488293 0.00825486 ) 0 
( -0.0128623 0.00357575 0.00120127 ) 0 
( -0.0104787 0.000247777 0.00362007 ) 0 
( -0.00742944 0.00249465 0.00449313 ) 0 
( -0.0129174 0.00336957 0.0041228 ) 0 
( -0.00778012 0.0108491 0.00400656 ) 0 
( -0.0023834 0.00088396 0.00120359 ) 0 
( -0.000486471 0.00620366 0.00466736 ) 0 
( -0.00642401 0.00495811 0.00232132 ) 0 
( -0.00277068 0.00560303 0.00132343 ) 0 
( -0.00163843 0.00380113 0.00401547 ) 0 
( -0.00818048 0.00178092 0.00618345 ) 0 
( -0.00853416 0.00698905 0.000518989 ) 0 
( -0.00294036 0.00174687 0.0012487 ) 0 
( -0.0040395 0.0011968 0.00428347 ) 0 
( -0.00604768 0.00871984 0.00247863 ) 0 
( -0.00250156 0.00060771 0.00482731 ) 0 
( -0.00195674 0.00225686 0.00278385 ) 0 
( -0.00141663 0.0080971 0.000499573 ) 0 
( -0.0031315 0.00433801 0.00471857 ) 0 
( -0.000477694 0.00520502 0.0071489 ) 0 
( -0.00501572 0.0123729 0.00151032 ) 0 
( -0.00386142 0.00821167 0.00283779 ) 0 
( -0.00495651 0.00154434 0.00447674 ) 0 
( -0.00763161 0.000469222 0.000762953 ) 0 
( -0.0069733 0.0103886 0.00356216 ) 0 
( -0.00318504 0.00492211 0.00192685 ) 0 
( -0.0114151 0.00513461 0.000499264 ) 0 
( -0.000425545 0.0133438 0.00211395 ) 0 
( -0.000667214 0.0128722 0.00126658 ) 0 
( -0.0104133 0.00680165 0.00605023 ) 0 
( -0.00276549 0.00470664 0.00280809 ) 0 
( -0.00563338 0.0068497 0.00158669 ) 0 
( -0.0116535 0.00461298 0.00256691 ) 0 
( -0.00942841 0.00277302 0.00131537 ) 0 
( -0.00616133 0.00668781 0.00257891 ) 0 
( -0.00395397 0.00975431 0.000499677 ) 0 
( -0.00355883 0.00369087 0.000499968 ) 0 
( -0.0105042 0.00506459 0.00190753 ) 0 
( -0.00737853 0.00912695 0.00388832 ) 0 
( -0.0102473 0.00855833 0.000499594 ) 0 
( -0.00436059 0.00675021 0.00185663 ) 0 
( -0.00286219 0.00430431 0.00710029 ) 0 
( -0.00760725 0.00472931 0.00590667 ) 0 
( -0.00528333 0.0079403 0.000499126 ) 0 
( -0.000163959 0.0109514 0.000498906 ) 0 
( -0.00387802 0.0117757 0.00335815 ) 0 
( -0.0126187 0.00435866 0.00262041 ) 0 
( -0.00297515 0.00778419 0.00701062 ) 0 
( -0.0019283 0.0077934 0.0017618 ) 0 
( -0.00631282 0.00954668 0.00612105 ) 0 
( -0.00492673 0.00530427 0.00513268 ) 0 
( -0.00338502 0.00251138 0.00747471 ) 0 
( -0.00709055 0.0113126 0.000498452 ) 0 
( -0.00114611 0.00286959 0.00550561 ) 0 
( -0.00210206 0.0123899 0.000499575 ) 0 
( -0.0127564 0.000238641 0.00611518 ) 0 
( -0.00570779 0.00347581 0.00158318 ) 0 
( -0.00478219 0.00104832 0.00358618 ) 0 
( -0.00257981 0.00651548 0.00340436 ) 0 
( -0.00685836 0.0103409 0.00049963 ) 0 
( -0.010184 0.0023256 0.0018794 ) 0 
( -0.00605157 0.00689538 0.00618157 ) 0 
( -0.00547355 0.000250745 0.00247548 ) 0 
( -0.0122773 0.00524418 0.00302679 ) 0 
( -0.00681589 0.00231838 0.00531611 ) 0 
( -0.00108374 0.000105021 0.00635944 ) 0 
( -0.00764914 0.00351167 0.0066666 ) 0 
( -0.00386189 0.00637935 0.00368756 ) 0 
( -0.00473791 0.0103881 0.00644737 ) 0 
( -0.000215284 0.00749196 0.00201155 ) 0 
( -0.00824759 0.00862401 0.00221716 ) 0 
( -0.00607683 0.00837107 0.00408598 ) 0 
( -0.00291945 0.0066115 0.000499508 ) 0 
( -0.00682414 0.01067 0.00202782 ) 0 
( -0.00795109 0.0039475 0.0075281 ) 0 
( -0.00138839 0.00222001 0.000499745 ) 0 
( -0.00305898 0.00511657 0.000499279 ) 0 
( -0.00687096 0.00396872 0.00581725 ) 0 
( -0.00887546 0.00508829 0.00640345 ) 0 
( -0.00519011 0.00505066 0.00284935 ) 0 
( -0.00379442 0.000239886 0.00212143 ) 0 
( -0.00207682 0.012299 0.00648131 ) 0 
( -0.00222343 0.00335453 0.00160902 ) 0 
( -0.00429971 0.00776543 0.000498643 ) 0 
( -0.00662972 0.0115878 0.00634339 ) 0 
( -0.00711743 0.0041583 0.00365666 ) 0 
( -0.00928904 0.00572521 0.0070703 ) 0 
( -0.0047945 0.00593827 0.00146746 ) 0 
( -0.00195102 0.00643079 0.00256918 ) 0 
( -0.00374962 0.00433342 0.00550411 ) 0 
( -0.000977584 0.00322239 0.000499114 ) 0 
( -0.00499312 0.0098875 0.00727836 ) 0 
( -0.00410363 0.000589693 0.00301245 ) 0 
( -0.006134 0.00241629 0.00604699 ) 0 
( -0.00456289 0.00966767 0.00575636 ) 0 
( -0.00533288 0.000477406 0.00420039 ) 0 
( -0.00254944 0.008343 0.00120338 ) 0 
( -0.00594313 0.000530407 0.00499082 ) 0 
( -0.00381668 0.0127939 0.00472491 ) 0 
( -0.000758458 0.00196854 0.0012345 ) 0 
( -0.010686 0.00282517 0.00421541 ) 0 
( -0.00305673 0.00834386 0.00538772 ) 0 
( -0.00158207 0.000118363 0.00251965 ) 0 
( -0.00393477 0.00519851 0.00503936 ) 0 
( -0.00371693 0.000858047 0.00842245 ) 0 