FoamFile
{version 2.0; format ascii;class vectorField; location 0;object  v;}
2497
(
( 1.72895e-05 -6.42162e-05 0.000381668 )  
( -0.0012318 -0.000498634 0.000524299 )  
( 0.000130495 -0.000249862 0.000367271 )  
( 8.53441e-05 -0.000203216 0.000277288 )  
( 0.000497407 -0.000175439 0.000380246 )  
( -2.32289e-05 0.000798832 0.00112005 )  
( 0.000140694 -0.000174977 0.000162977 )  
( -0.000163418 -6.71753e-05 8.29868e-05 )  
( -1.86698e-05 0.000304449 0.00132268 )  
( -0.000274173 -0.00049651 0.000598451 )  
( -0.000574298 -0.00016152 0.00139242 )  
( 3.50493e-05 0.000344841 0.000501653 )  
( 0.000266027 -0.000631266 0.000280263 )  
( 0.000139785 -0.000137022 0.000122312 )  
( 0.000786039 0.000250351 0.000438457 )  
( 0.000168573 2.92244e-05 0.0013116 )  
( -0.000184602 -0.000242351 0.00108157 )  
( -0.000235851 0.000151111 0.00135511 )  
( -2.67696e-05 -1.44348e-05 0.00119068 )  
( -0.00153953 0.00226326 -0.00114947 )  
( -0.000499351 0.000451908 0.00115262 )  
( -0.00011423 0.000123631 0.00136009 )  
( -9.32003e-05 1.23151e-05 0.000910776 )  
( -0.00013571 0.000202635 0.00131189 )  
( -0.000256466 -7.24586e-05 0.000378037 )  
( -5.86786e-05 0.00019603 0.000542733 )  
( -0.000110752 0.000258258 0.00110546 )  
( -7.08795e-05 0.000122092 0.00124048 )  
( -3.26204e-05 4.12108e-05 0.00127172 )  
( 8.26157e-07 -0.000319264 0.000898409 )  
( 0.000433458 5.28688e-05 0.000152649 )  
( -9.39396e-05 1.58579e-06 1.15318e-05 )  
( 0.000109924 -3.72843e-06 0.000226292 )  
( -0.000862051 -0.000373025 0.0025835 )  
( 0.000227871 0.000456699 0.00094102 )  
( -0.000274215 -0.000230943 3.98399e-05 )  
( 0.000121814 -0.000341684 0.000101468 )  
( 0.000148691 -0.000131027 0.000200948 )  
( -0.000562096 0.00102492 0.00107657 )  
( 8.24288e-05 -0.000408787 0.000451816 )  
( 0.00164454 -0.00244787 1.61611e-05 )  
( -0.00065807 0.0001485 0.000464221 )  
( 0.00023715 -0.000177573 3.80529e-05 )  
( -0.00023033 -0.000350305 3.66587e-05 )  
( -7.133e-05 1.54141e-05 0.000533814 )  
( 6.98589e-05 0.000258582 0.000107723 )  
( -0.00101006 -0.000124994 0.00064299 )  
( 2.64999e-05 0.000965046 0.000665283 )  
( -0.000398497 0.00042415 4.45761e-05 )  
( -6.05112e-05 -9.70755e-05 0.000209633 )  
( -0.000455702 -9.46389e-05 0.000506479 )  
( 0.00025879 0.000245823 0.000916938 )  
( -0.000426063 -0.000348559 0.000606723 )  
( -0.000148081 -0.000466463 0.000638189 )  
( 0.00024943 -0.00014817 0.00028024 )  
( -8.34365e-05 -0.000372624 -6.8162e-05 )  
( 0.000140766 0.000201764 0.00176367 )  
( 0.000785697 -0.00109095 3.07278e-06 )  
( -0.000434138 -5.35781e-06 0.000413375 )  
( -0.000293245 -0.000209717 -0.00050558 )  
( 0.000617498 0.000346043 0.000920073 )  
( 0.000424636 2.7008e-06 0.00013976 )  
( 0.000254979 1.37569e-05 -0.00081497 )  
( 4.57029e-05 5.74192e-05 -1.2253e-05 )  
( -9.06836e-05 -0.000244893 0.00038526 )  
( 5.13544e-05 0.000249703 0.000832934 )  
( 1.9261e-05 -1.89015e-05 1.96247e-05 )  
( -0.000235404 -0.000205348 0.000235453 )  
( -0.000687728 0.00041793 0.000621967 )  
( 0.000261544 -0.000889866 0.00110117 )  
( 0.000152183 0.000760688 0.00137784 )  
( -0.000514919 0.000755076 0.00108303 )  
( -4.5404e-05 4.88407e-05 -0.000364319 )  
( 0.000141134 -0.000371436 0.000670279 )  
( 0.00100354 0.000717108 0.00597993 )  
( 0.000140087 -1.30466e-05 0.000125119 )  
( 0.00029822 -0.00018994 0.00043078 )  
( 0.000307042 -0.000528558 2.45217e-05 )  
( 0.00109648 -0.000322014 0.0010808 )  
( 0.000334381 -0.000371359 0.000221624 )  
( 6.27247e-05 -0.000161931 0.000806083 )  
( -3.75614e-05 -0.000511774 0.00353671 )  
( 0.000367893 0.000196565 7.22756e-06 )  
( 0.000184715 -0.000178261 9.42693e-05 )  
( -0.000460797 -0.00033969 0.000456862 )  
( -0.0005432 0.000193962 1.63742e-05 )  
( 0.000173919 -0.00014169 0.000451893 )  
( 0.000159511 0.000636657 -0.000122457 )  
( 0.00131736 0.000618194 0.00324215 )  
( 0.000399673 -0.000574901 0.000440324 )  
( 9.51586e-05 -0.000177282 0.000466033 )  
( -0.000833054 -0.00121839 0.00298154 )  
( -0.000237456 -0.000335899 8.66201e-05 )  
( 5.52149e-05 0.000151794 0.00041404 )  
( 4.5779e-05 0.000235466 0.000505574 )  
( -9.06814e-06 -1.39763e-05 0.000303306 )  
( 0.000279788 -0.000263742 0.000729397 )  
( 0.000197476 0.000635009 0.000881116 )  
( 0.000214557 -0.000270075 0.000139493 )  
( -0.000591483 -0.000225883 0.000512995 )  
( 0.000121071 -0.000202135 -0.000152915 )  
( -0.000288362 -0.000219133 0.000513 )  
( -0.000126027 7.6658e-05 0.000444186 )  
( -0.000299984 0.00127614 0.000405457 )  
( 0.000271889 -0.000156795 0.000199335 )  
( 0.000997799 0.000311904 -1.53026e-06 )  
( 0.000233095 -5.8723e-05 0.000348553 )  
( 0.000471329 0.000435628 -5.92032e-05 )  
( 0.000437933 0.000154887 -1.13074e-05 )  
( -0.000312389 -0.000170965 0.0011723 )  
( 8.31769e-05 -4.03784e-06 0.00057777 )  
( -0.000136318 6.09832e-06 3.17269e-05 )  
( 8.77423e-05 -0.000190806 0.000962525 )  
( 0.000465817 -5.35965e-05 0.000656185 )  
( -0.000214796 -0.000550866 0.000381189 )  
( -0.000213768 -0.000339194 0.000142224 )  
( -0.000138057 -0.00037059 0.000814928 )  
( -0.00017179 -1.84861e-06 0.000442956 )  
( -0.000427715 0.000152471 0.000361298 )  
( 1.12607e-05 -0.000197299 0.000231791 )  
( 0.000262808 -0.000176622 0.000603801 )  
( 0.000316127 1.64674e-05 8.8974e-05 )  
( 0.000327994 0.000172967 0.000270836 )  
( 0.000238561 -0.000346059 0.000806406 )  
( -0.000252364 0.00012953 0.00138627 )  
( 0.000118542 -0.000295568 0.000566983 )  
( -0.000139413 0.000267601 0.000507378 )  
( -6.19253e-05 -0.000635561 -0.000325873 )  
( -1.96559e-05 -0.000122968 0.00107332 )  
( 0.000239993 0.000159105 0.000399136 )  
( -3.97368e-05 0.000260776 0.000122864 )  
( 0.000111048 -0.000458337 0.00143479 )  
( -0.00039787 -0.000421948 0.000992437 )  
( 0.000110561 0.000252116 0.000692841 )  
( 0.000325116 -4.14444e-05 0.000625106 )  
( 0.00105459 -0.00024708 0.00123944 )  
( -0.000160065 -0.000495751 0.000144853 )  
( 0.000345299 -0.00024695 0.00038674 )  
( -0.000305941 -0.000112618 0.000619629 )  
( 0.000136201 0.000409195 0.000491819 )  
( 0.000245447 0.000352165 8.10625e-05 )  
( 1.63314e-05 -9.69914e-05 0.00014246 )  
( 6.47225e-05 -0.000214212 0.000914761 )  
( -9.53322e-06 0.000111848 0.00161664 )  
( -0.000295246 8.88069e-05 0.000111527 )  
( 0.000114906 -0.000212811 0.00120922 )  
( -0.00022736 -0.000157152 0.000809224 )  
( 0.000515571 0.000905233 0.00105302 )  
( 8.16742e-05 0.000353236 9.67953e-05 )  
( 0.000571128 -0.000248707 0.00152141 )  
( -6.87169e-06 -0.00101294 -0.000639392 )  
( -0.000182931 -0.000734768 0.000724455 )  
( 3.93139e-05 -0.000359481 0.000647868 )  
( 0.000215431 9.10653e-05 0.00039074 )  
( -0.000162055 -0.000254805 0.000536191 )  
( 0.000301714 0.000130247 0.000406799 )  
( 0.000342721 0.000303499 0.00049045 )  
( -9.32536e-05 -0.000195476 0.000636177 )  
( 0.000180323 6.27759e-05 0.000836854 )  
( -0.000623332 -0.00111945 0.00213162 )  
( -0.000441635 -0.000387179 0.00118192 )  
( 3.42236e-05 -0.00156604 1.05496e-05 )  
( 0.0011357 0.0002555 -0.000461609 )  
( 9.63042e-05 2.94482e-06 0.000420856 )  
( -0.000117005 -0.000355177 0.000687295 )  
( 0.000568661 0.00079346 0.000537287 )  
( -0.000339197 -0.000268775 -0.000297284 )  
( -0.000319195 -0.00142925 0.00188128 )  
( -0.000442465 -0.000350942 0.000756823 )  
( -0.000355946 -0.00022561 0.000669128 )  
( 9.81482e-05 -8.72695e-05 0.000104711 )  
( -7.13846e-05 -0.000620631 0.000210359 )  
( 0.000118406 -0.000137098 0.000357063 )  
( -5.19286e-05 -0.000456471 -5.57879e-07 )  
( 0.000103209 -0.000296457 0.00107273 )  
( 5.1547e-05 0.000252269 0.000395896 )  
( -0.000229779 -0.000474878 -0.000190842 )  
( -0.000211921 -8.04214e-05 0.000303352 )  
( -0.000161779 -0.00014912 0.000614024 )  
( -0.000247556 -0.000279136 0.000253698 )  
( -0.000212485 -0.000136616 0.000350429 )  
( 4.45134e-05 -6.54904e-07 2.12011e-05 )  
( 0.000202081 0.000199214 0.000178874 )  
( 0.000330014 -0.000376448 0.0012059 )  
( 0.00021871 -0.000173416 8.28274e-05 )  
( -0.000284832 -0.000399738 0.000184109 )  
( -0.000225776 -0.000426915 -0.000105324 )  
( 0.000120326 -0.000370801 0.000204011 )  
( -0.000277276 0.000277868 0.000656714 )  
( 8.20647e-05 0.00023538 0.000214771 )  
( 0.000157804 0.000501842 0.00051486 )  
( -0.000337187 0.000183263 0.000252375 )  
( 9.47718e-05 5.78477e-07 0.000911211 )  
( 0.00108942 -0.000157092 0.00100759 )  
( -0.000316403 0.000835208 0.00027377 )  
( -0.000276573 0.00107205 0.000475826 )  
( 0.000125296 -0.000267873 0.000976406 )  
( -0.000701542 -0.00016557 0.00082968 )  
( 0.000336793 -0.000180369 0.000147142 )  
( 0.000172792 -0.000560252 -0.00189326 )  
( 5.61956e-05 -0.000206656 -0.00104339 )  
( 0.000491963 0.000104406 0.00064159 )  
( -0.000333029 -0.00047192 0.000143858 )  
( -0.000651399 -0.000153251 0.00141601 )  
( 0.000281092 0.0001221 0.00103855 )  
( -0.000671574 0.000340071 0.000178037 )  
( -6.10969e-06 0.000460125 0.000154653 )  
( -6.12711e-05 -0.00027325 -6.50229e-08 )  
( 0.000261675 -0.000297415 0.000427032 )  
( -0.000390016 -0.000365489 0.000718169 )  
( 0.000195207 -0.000783676 0.000165229 )  
( 0.000285182 -0.000116953 0.000159674 )  
( 0.000189045 0.000437045 0.000312502 )  
( -8.94595e-05 -0.000138971 0.000620614 )  
( 0.000752988 0.00134447 -0.00012462 )  
( 9.59605e-05 0.000371923 0.000278501 )  
( 0.00046626 -0.000486697 0.000108039 )  
( 0.000191161 -0.000252194 7.40865e-05 )  
( -1.34488e-05 0.000164185 0.000558854 )  
( -0.000550069 -0.000905489 0.000845606 )  
( -0.000142589 9.60626e-05 0.00065495 )  
( -0.000115261 0.000286262 0.000607398 )  
( 0.00069007 0.00134111 0.0013724 )  
( -0.000149194 -0.000261515 0.00112799 )  
( 0.000340475 0.000268328 4.99335e-05 )  
( -0.000123197 -0.000215971 0.000250362 )  
( 0.000949759 -0.000279528 0.00159363 )  
( 0.000656406 -0.000291763 0.000600137 )  
( 0.000332971 2.36386e-05 0.000908876 )  
( -0.000172797 0.000155204 8.98018e-05 )  
( 2.30181e-05 0.000473077 0.000135379 )  
( -0.000136705 -0.000265226 0.000243635 )  
( 0.000209847 -0.000377471 -2.28165e-05 )  
( 0.000219494 -1.07556e-05 1.63339e-05 )  
( 0.000101664 0.000178424 7.60725e-05 )  
( 6.80355e-05 -0.000362021 0.000169226 )  
( -5.87961e-05 -0.000414901 0.000366986 )  
( -0.000407275 -0.000504871 4.63472e-08 )  
( 0.000260035 -0.000332045 0.00018843 )  
( -0.000203449 -5.21842e-05 0.000585927 )  
( 0.000484111 0.000370799 0.00144775 )  
( 3.39397e-05 -0.000212497 0.000535084 )  
( 0.000362814 -0.000762646 0.00161222 )  
( 0.000410783 -0.000821314 0.0011341 )  
( -0.000286059 -4.53999e-05 0.000443939 )  
( 8.36216e-05 -3.32884e-05 6.82937e-06 )  
( 3.87836e-05 0.00020481 0.000212938 )  
( 8.44944e-05 -0.000456551 0.0001208 )  
( 0.000268657 -4.70728e-05 0.000525599 )  
( -3.76376e-05 -0.000270752 0.000590218 )  
( 9.82604e-05 -0.000252549 0.00106786 )  
( -0.00125287 0.000452871 0.000842469 )  
( 1.19622e-05 0.000831824 0.000458885 )  
( -0.000410445 -0.000760993 0.000644912 )  
( 0.000373658 -0.00100708 -6.78729e-05 )  
( 0.000455149 0.000198385 0.00014043 )  
( 0.000244629 0.000104593 0.000148182 )  
( 0.000434867 0.000682095 0.00080707 )  
( 0.000234266 -0.000232451 0.000911737 )  
( 0.000341936 -0.000381864 5.71234e-05 )  
( 5.06846e-05 0.000173638 -2.05836e-05 )  
( -1.04072e-05 -3.21042e-06 0.0005118 )  
( 0.000258914 -2.82189e-05 -2.97561e-05 )  
( 0.000400789 6.99373e-05 -0.000580862 )  
( -0.00038734 -0.000161211 0.00319925 )  
( 0.00135171 0.000245678 0.000423479 )  
( -0.000701097 -0.000386487 -0.00159216 )  
( 2.36213e-05 -0.000250694 0.000599542 )  
( 2.66314e-06 -0.000446353 0.000243759 )  
( -4.6956e-05 0.000357024 -0.000178508 )  
( -0.000214407 -0.000244587 0.000223559 )  
( -0.000221962 -0.000369338 0.000482497 )  
( 0.000282175 -0.000118823 0.00153802 )  
( 0.00105474 0.000264384 0.000237403 )  
( -0.00010782 -0.000350863 1.2895e-05 )  
( 0.00029959 -0.000329187 0.000211169 )  
( 0.000263688 3.77071e-05 0.000221295 )  
( 0.000326025 -0.00046047 0.000868267 )  
( -4.0288e-06 -1.58696e-05 0.000927557 )  
( -0.00090175 0.000263193 -3.46137e-05 )  
( -9.64748e-05 -0.000116734 0.000891821 )  
( -0.000303409 -0.00028227 -3.64014e-05 )  
( -0.000354473 0.000263608 6.54175e-05 )  
( 5.64229e-05 -0.000106128 0.000342179 )  
( -7.6308e-05 -0.000167586 0.000852764 )  
( 0.000470235 -7.05465e-05 0.000489814 )  
( 0.000931786 0.000769677 0.00127164 )  
( -0.000908117 0.000604668 0.00021391 )  
( 4.92181e-05 -9.25801e-05 0.000451082 )  
( 0.00025389 -0.000169496 -0.000266469 )  
( 0.00024282 -0.00060123 -0.000133393 )  
( 0.000384588 -6.12841e-05 0.000203527 )  
( 0.000327901 0.000667183 0.000483831 )  
( -0.000444019 -0.000571595 0.000678193 )  
( -0.000409626 0.000307988 0.00116437 )  
( 0.000145836 -0.000635444 0.000310021 )  
( -0.000206977 -0.000302077 0.000652247 )  
( -0.000348005 -0.000595264 0.000650258 )  
( 0.000259553 0.000542733 8.76395e-05 )  
( -5.79421e-05 6.15807e-06 8.83712e-05 )  
( -2.72908e-05 0.000207791 0.000634652 )  
( -0.000317839 -0.00149149 -0.00351541 )  
( 0.000250851 -0.000175776 0.000107467 )  
( -0.000720404 -0.000111546 0.000942962 )  
( 0.00044482 0.000462332 0.000630353 )  
( 0.000246387 -0.000397623 0.000956695 )  
( 5.06046e-05 -0.000325507 0.000147295 )  
( -0.00144516 -0.00039572 0.00023748 )  
( 0.000442635 -0.000520832 0.00120772 )  
( 0.000539266 3.92435e-05 -7.28924e-05 )  
( -0.000129875 1.51871e-05 -3.4738e-05 )  
( -0.000483115 0.000227771 0.000804334 )  
( 8.97421e-05 -0.000428821 0.00144134 )  
( -0.000296896 0.000463097 0.000422345 )  
( -3.10265e-05 0.000284831 0.00032198 )  
( 0.000225103 -4.84159e-05 0.000434291 )  
( 2.1453e-05 0.000293339 -3.91678e-07 )  
( -0.0010992 0.000485463 3.78573e-05 )  
( 0.000487022 0.000755311 0.000169072 )  
( -0.00045003 -0.000523344 0.000901406 )  
( -0.00097177 0.000873256 0.00100668 )  
( 0.000142446 8.69546e-05 -7.35278e-05 )  
( -0.000189969 0.000173221 0.000549793 )  
( 0.000707724 0.000555854 0.000293638 )  
( 0.000303377 -0.000340382 -7.09303e-06 )  
( 0.000286592 -0.000320503 0.000507686 )  
( 2.57477e-05 -0.000574814 0.00021024 )  
( -0.0003432 -0.000615919 0.000485534 )  
( -1.55346e-05 -0.000291525 0.000138236 )  
( 0.000363909 -0.000170248 0.000907751 )  
( -0.000114991 0.000172733 0.00141684 )  
( 0.000186305 -0.000457695 0.000782896 )  
( -6.14115e-05 -0.000549022 0.00027971 )  
( -0.000849651 0.00010784 0.000488886 )  
( 3.33458e-05 3.05058e-05 4.59185e-05 )  
( -8.29625e-05 -0.000109916 0.00017287 )  
( -0.000552427 -0.000777229 -4.02279e-07 )  
( 0.000177797 0.000392141 0.000384144 )  
( 0.00107645 -0.000322542 0.000492444 )  
( -0.00026723 -0.000694202 0.000848476 )  
( 0.000173456 -0.00209636 0.00537711 )  
( 0.00266222 -0.000347426 0.00244354 )  
( 8.98548e-05 -0.000198003 0.000313971 )  
( 0.000242751 0.000398084 0.000491011 )  
( 0.000153746 0.000360899 0.000558835 )  
( 0.000421124 -2.86783e-05 0.000695552 )  
( 3.72958e-05 4.84411e-05 -4.96032e-05 )  
( 0.00020732 -0.000214722 8.37718e-05 )  
( 0.000113098 0.00067221 0.000805747 )  
( -0.000119547 -0.000177542 0.000503287 )  
( 1.13739e-05 -9.69647e-05 9.58054e-05 )  
( -0.000114784 0.00016907 0.000633002 )  
( 0.000513289 1.11443e-05 -0.00011593 )  
( 4.22689e-06 8.91785e-05 -0.000307151 )  
( 0.000115769 -0.000363198 -4.91876e-05 )  
( 2.8134e-05 -0.00014674 0.00042979 )  
( -2.03861e-06 -1.26625e-06 0.00036633 )  
( -1.27557e-05 -4.6473e-05 5.34452e-05 )  
( 0.000517798 -0.000450548 0.000585916 )  
( 0.0018553 -0.00283306 0.00334476 )  
( -0.000942695 0.000287237 0.000931899 )  
( -0.000315831 -0.000193813 0.000325414 )  
( -0.000361407 0.000681457 0.000783443 )  
( 0.000314705 0.000600044 -1.16421e-07 )  
( -6.33825e-05 -0.000293872 0.000625977 )  
( 0.000410144 0.000389061 0.000119479 )  
( 0.000236677 0.000475204 0.000962174 )  
( -0.000166979 0.000339236 -3.10658e-05 )  
( 0.000400416 -0.000451214 0.000632112 )  
( -3.16329e-06 -0.000341381 0.000590383 )  
( 6.81682e-05 0.000172693 0.000487629 )  
( -0.000208986 -0.000176038 0.00043199 )  
( 0.000218932 0.000463492 0.00128156 )  
( 2.26951e-05 -0.000286246 -2.85306e-05 )  
( 0.00014077 -0.000422253 0.000124604 )  
( 0.000461788 0.00080828 0.00106971 )  
( -0.000128558 -6.52747e-05 0.00126815 )  
( 0.000542603 -0.000164743 0.000751516 )  
( 0.00050007 -9.58508e-05 0.000269837 )  
( 0.00028479 0.00101265 0.000421791 )  
( -0.000832489 0.00101188 5.8449e-05 )  
( 6.83854e-05 -5.28449e-05 5.93e-05 )  
( 0.000105404 -0.000310757 0.000503513 )  
( -0.000285313 0.000173335 0.000434406 )  
( 0.00048976 -0.000259568 0.000809083 )  
( 0.000384846 -0.000216482 0.000118874 )  
( -2.71256e-05 -0.000309849 0.000347027 )  
( 0.000192961 -0.000387656 0.000778638 )  
( -0.000380564 -0.000235124 -0.00012554 )  
( 1.68615e-05 6.16341e-05 2.48439e-05 )  
( 0.000392824 3.43085e-06 0.000240396 )  
( -0.00113773 -0.000356725 0.00043749 )  
( -0.000543579 0.00170005 0.000115807 )  
( 6.8643e-05 -0.000282558 7.35939e-05 )  
( 0.000228023 -0.000144537 2.77205e-05 )  
( 0.000255881 -9.23937e-05 0.000983848 )  
( -0.000202755 -0.000432813 0.000246119 )  
( 0.000131505 5.14318e-05 0.000861486 )  
( -0.000679436 0.000603784 0.00127244 )  
( 0.000378479 -0.00120897 0.000571789 )  
( 0.000198617 0.000127323 -0.000109907 )  
( -0.00197642 -0.000516387 -5.54769e-06 )  
( 3.03406e-05 0.00046522 0.000310205 )  
( -2.54712e-05 -0.000213457 8.11071e-05 )  
( -0.00163177 -0.00154879 0.00254255 )  
( 0.000314481 -4.2165e-05 0.000931171 )  
( -0.0024299 -0.000738727 0.000340086 )  
( 5.97421e-05 -9.66017e-05 0.000610517 )  
( -0.000263517 0.000393665 0.000559996 )  
( -0.000755478 -0.000317553 -0.000606346 )  
( -0.000295753 0.000456039 0.00030812 )  
( 0.000265117 -0.000333702 0.000508398 )  
( -0.000674205 -0.000205308 0.00011368 )  
( 0.000157383 -0.000350499 0.000227155 )  
( -0.000466137 0.000832263 5.13516e-05 )  
( 9.79928e-05 -0.000269902 0.000460181 )  
( 0.000444141 1.40811e-05 0.00100735 )  
( -0.000473442 -4.03137e-07 -0.000164891 )  
( -6.38449e-05 -0.000288953 7.35497e-05 )  
( -0.000168497 -0.00061799 0.000511871 )  
( 0.00054313 -0.000182433 0.000715907 )  
( -0.000154517 0.000512216 0.00102625 )  
( 2.40603e-05 -3.04132e-05 -8.48246e-05 )  
( 0.000358423 -0.000162459 0.000190236 )  
( 0.000258756 -0.000329277 0.000368353 )  
( 0.000154497 0.00110804 0.0032446 )  
( -0.000973094 0.00235032 -0.00282129 )  
( -3.25461e-05 -9.10424e-05 7.47993e-05 )  
( 9.233e-05 -9.92278e-05 0.000351347 )  
( 5.85473e-05 -0.00026276 0.000272793 )  
( -0.000307149 -0.000568666 0.0004137 )  
( -4.73141e-05 -1.10646e-05 8.19498e-05 )  
( -0.000264188 -0.000524616 0.00109612 )  
( 8.90003e-05 -4.46729e-05 0.000774854 )  
( -0.000150768 -0.00017236 0.000279994 )  
( -0.000349765 -0.000532216 0.00265215 )  
( 3.5662e-05 0.000711872 -1.64828e-05 )  
( 0.000396661 -0.000124323 0.000142057 )  
( -0.000386103 0.000117859 0.000504617 )  
( 0.000242735 4.40263e-05 7.24896e-05 )  
( 6.38022e-05 -0.000244104 8.49831e-05 )  
( 0.000547331 -0.000273702 0.000642733 )  
( -0.000337187 -0.000306896 0.000505162 )  
( 0.000228162 -0.000108079 0.00066877 )  
( -7.68445e-05 0.000322088 0.000297708 )  
( -0.000159624 -0.000143867 0.000425569 )  
( 0.000333369 -3.9073e-05 9.19233e-05 )  
( 0.000278951 4.1573e-06 0.000524449 )  
( -0.000198467 -0.000281968 0.000389309 )  
( 0.000502345 7.97551e-05 4.15501e-05 )  
( -0.000179339 -0.00041022 -6.86874e-05 )  
( -0.000219873 0.000390712 -0.000527903 )  
( 0.000882765 0.000195423 0.00039481 )  
( -0.000505911 -0.0018732 0.00248596 )  
( 0.000441017 -0.00106035 0.00123206 )  
( 0.000370103 1.40742e-05 3.47276e-05 )  
( 0.000519414 5.19744e-05 0.000143601 )  
( 0.000258281 0.000230484 0.000157357 )  
( 0.000369367 1.50759e-05 1.81669e-05 )  
( 3.25961e-05 -0.000117822 0.000106343 )  
( 0.000623254 0.00191954 0.00456384 )  
( 0.000210334 0.00059042 0.000633087 )  
( -0.000313189 0.000371582 0.00095471 )  
( 0.000159569 -0.000147608 0.000783696 )  
( -8.58182e-05 -0.000137925 0.000260154 )  
( -0.00042952 -0.000571359 0.000542112 )  
( -0.00134027 -0.00021919 0.00377862 )  
( 0.00102562 0.000428742 0.00133151 )  
( 3.27525e-05 -0.000275767 8.44623e-05 )  
( -0.000998084 0.00104317 0.00234277 )  
( 0.000457665 0.000310191 0.000980715 )  
( -0.00057845 -0.000524221 0.00190327 )  
( -0.000116227 -0.000435426 0.000127904 )  
( 0.000189436 0.000403517 0.000381682 )  
( -0.000421154 -6.70527e-05 0.000309965 )  
( 8.60985e-05 -0.000146392 9.69203e-05 )  
( 0.000219674 -0.000107728 0.000183113 )  
( -2.59634e-05 -0.000177518 -3.52655e-05 )  
( 0.00069641 -0.000457255 0.000137386 )  
( -0.000422436 0.000192905 0.000374919 )  
( -0.00070505 0.000754608 0.000830598 )  
( -0.00032743 -0.000284928 0.000274347 )  
( -2.12771e-05 -0.000370851 0.000822615 )  
( 0.000566477 0.000361697 0.0010103 )  
( 0.0008939 -0.00012133 0.0013111 )  
( 8.06724e-05 -0.000553519 0.000497966 )  
( 9.59733e-05 4.35724e-05 1.13508e-05 )  
( 0.000545991 -0.000465171 0.000124072 )  
( 0.000254906 -0.000695898 0.000456291 )  
( -0.000655213 -0.00170908 -0.0031176 )  
( 6.90792e-05 0.000268603 0.000186944 )  
( -0.000204042 -6.30734e-05 0.000445755 )  
( 7.10932e-05 -4.97163e-05 3.48971e-05 )  
( 0.000369994 -0.000567597 0.000127812 )  
( 5.98976e-05 0.000116068 2.32348e-05 )  
( -0.000288507 0.000414233 0.00110617 )  
( -3.20861e-05 0.000319845 -2.91955e-05 )  
( -0.000220763 -0.000249613 0.000499382 )  
( -0.000156572 -0.000312876 0.000383585 )  
( -0.000481901 -0.000286448 0.000802625 )  
( 0.000360524 0.000370316 5.09175e-05 )  
( 0.00014522 -8.20751e-06 0.000661297 )  
( -0.0018795 0.000303079 -0.00048385 )  
( 0.000577463 -7.87259e-05 0.00053403 )  
( -0.000167318 -0.000456927 -0.000512843 )  
( -0.000332531 -0.000485777 0.000914527 )  
( 8.03124e-05 -2.81658e-05 0.00071697 )  
( 0.000522937 0.000213862 1.62187e-05 )  
( 0.000237148 -0.000235897 0.000985981 )  
( 9.63454e-05 -0.000166846 9.23015e-05 )  
( 0.000408404 -3.96551e-05 0.00057958 )  
( 0.00019397 -0.000358591 0.000692318 )  
( 0.00136438 -0.000327654 0.00162973 )  
( 0.000110028 -0.000291124 0.000226305 )  
( -0.000745705 0.000361243 -0.000481521 )  
( 5.94048e-05 3.55399e-05 0.000840476 )  
( 0.000114416 -6.50278e-05 0.000654826 )  
( -5.80045e-05 0.000902706 0.000766838 )  
( -0.00010677 -7.1054e-05 0.000241679 )  
( 0.000156226 3.71907e-05 0.000253198 )  
( -0.000279378 -0.000461749 0.000474207 )  
( 5.88025e-05 -0.000229957 0.000363333 )  
( -0.000173696 0.000295078 9.23619e-05 )  
( 0.000145664 -0.000210292 0.000153241 )  
( 0.000474533 0.000154933 8.95909e-05 )  
( 0.000624688 -0.00160723 0.00300183 )  
( -2.56373e-07 5.00848e-06 1.76404e-05 )  
( 0.000186374 0.000140897 0.000308471 )  
( -0.000198266 -0.00016684 0.000155163 )  
( -1.31937e-05 -4.28856e-05 0.000416811 )  
( 0.000208644 -0.000126836 3.27949e-05 )  
( -2.18006e-05 -0.000183922 0.000590176 )  
( 0.00036726 7.20576e-05 0.000862717 )  
( 0.000335706 1.94546e-05 0.000406847 )  
( -0.000390637 0.000116049 0.00147144 )  
( -0.000681148 -0.000336247 2.29409e-05 )  
( 0.000177492 -0.000285818 0.000116163 )  
( 0.000158091 4.36794e-05 -3.20266e-05 )  
( 0.000100623 0.000899572 0.00012782 )  
( 0.000238544 0.000198822 0.000187142 )  
( 5.62179e-05 -9.75083e-05 0.00135359 )  
( -0.000137337 -0.00079047 5.24351e-05 )  
( 0.000182893 -0.000154904 0.000641314 )  
( -0.000696165 -0.000343057 0.000430405 )  
( -0.000280863 -0.000145118 0.00087372 )  
( 3.1223e-05 -0.000249166 0.00109402 )  
( -0.000954457 0.00148754 4.21283e-08 )  
( 0.000814836 2.16649e-05 0.000443585 )  
( -0.000814151 -0.000316676 0.000812431 )  
( 0.000180544 -2.79497e-05 0.00133846 )  
( 0.000269215 0.000430589 3.86476e-05 )  
( -0.000220092 -0.000422841 -8.12129e-05 )  
( 0.000915961 4.5182e-05 0.00258137 )  
( 0.000101782 0.00046738 0.000310011 )  
( 0.000114558 -0.000338483 0.000695432 )  
( 0.000442936 4.12999e-05 0.000222221 )  
( 0.000734155 0.000783924 9.01669e-05 )  
( 8.53507e-05 9.63563e-05 0.000382498 )  
( -0.000592956 -0.000222635 -1.23529e-05 )  
( 0.000363028 -0.000509597 0.000330791 )  
( 0.000121039 0.000107622 -3.1834e-05 )  
( 0.000440943 0.000134181 0.00104105 )  
( -0.00015301 -0.000204234 -4.40835e-06 )  
( -0.000152747 -0.00024008 0.00101904 )  
( 0.000229603 0.000371288 0.000195735 )  
( 0.000439684 0.000197391 0.000560448 )  
( 0.000328055 -0.000273387 0.000658916 )  
( 3.78164e-05 0.000198279 0.000258842 )  
( -4.98544e-05 0.000128515 0.000401589 )  
( 0.000174825 -0.000268729 0.000894861 )  
( 8.38575e-05 0.000314656 0.00058474 )  
( 0.000211345 0.000293416 0.000765787 )  
( 0.000418832 -7.9611e-05 0.000400429 )  
( 2.24013e-05 2.90345e-05 7.7526e-05 )  
( -4.37893e-05 -0.000345364 0.000581545 )  
( 0.000128772 0.000520091 0.000541518 )  
( -0.000215618 7.53108e-05 4.07053e-06 )  
( 0.000388124 0.000570985 -2.87183e-05 )  
( -3.89071e-05 0.000740708 0.000237173 )  
( -0.00115833 -0.00106673 -0.000438201 )  
( 0.000430022 -0.000500774 0.000602658 )  
( 0.000127529 -0.000196353 0.000671963 )  
( 7.95369e-05 -5.2423e-05 -2.85235e-05 )  
( 0.000508619 4.25687e-05 0.000502616 )  
( -0.000144791 -0.000131597 0.000712362 )  
( 0.000126774 7.7711e-06 0.000804147 )  
( -7.7888e-05 -0.000114629 0.000459631 )  
( 4.95953e-05 -0.000290567 0.00055881 )  
( 8.70437e-05 0.000340165 0.000794712 )  
( 0.000397706 -0.000160508 0.000767159 )  
( -1.02799e-05 -0.00018538 0.000302651 )  
( 0.000327557 0.000122487 0.000671668 )  
( 0.000267561 -0.000172171 0.000645609 )  
( 2.69597e-05 -0.00011302 4.38087e-05 )  
( -0.000127376 -0.000202586 0.000791659 )  
( -2.78286e-05 -4.97845e-05 -8.68251e-06 )  
( 0.00022355 -0.000288087 0.000626749 )  
( -0.000579971 0.000134501 0.000695625 )  
( 0.000216354 -0.000353068 0.000853472 )  
( -0.000301836 5.1279e-06 0.00125378 )  
( -0.000242094 0.000225247 0.000321368 )  
( -2.46321e-05 -0.000220745 3.88633e-06 )  
( -0.000150285 0.000308522 0.000973635 )  
( -0.000283094 0.00108374 0.00120617 )  
( 0.00112511 -0.00147486 0.00233286 )  
( 1.52879e-05 9.19416e-05 0.000398596 )  
( -0.00017013 -0.000229797 -0.000126856 )  
( 0.00038557 3.82688e-05 2.69436e-05 )  
( -6.30353e-05 -0.000143118 0.000405226 )  
( -0.000211243 -0.000116396 0.00126323 )  
( 0.000414261 -0.000616703 0.000115681 )  
( -0.000212219 -0.000422866 0.000978302 )  
( 0.000103831 -7.85222e-05 -6.87861e-05 )  
( 0.000382134 2.24537e-05 0.000341666 )  
( 0.000310248 -0.000156583 0.00039301 )  
( 5.74016e-05 -0.000349319 0.000552411 )  
( -0.00025639 -0.000443981 0.000465363 )  
( 0.000499201 -0.000374723 -0.000105126 )  
( 0.000622156 -0.00051336 0.000550417 )  
( 0.000354754 0.000420362 0.000305196 )  
( -0.000526146 -5.93313e-05 0.000695225 )  
( -0.000189528 -4.28672e-05 0.0010167 )  
( 6.4529e-05 -3.60506e-05 5.15382e-05 )  
( -1.59051e-06 -0.000339094 0.000139127 )  
( -0.000600441 -0.000254712 0.00117168 )  
( -0.000552932 -0.000652475 0.000171167 )  
( 0.000164116 4.24519e-05 7.10383e-05 )  
( 9.54772e-05 -8.77988e-05 0.00105309 )  
( -0.000632314 -0.00228215 -0.00236044 )  
( 0.000333874 -8.76235e-05 0.000755682 )  
( 0.000361074 0.000801195 0.000986766 )  
( -8.69686e-05 -0.000525318 0.000540895 )  
( -6.94641e-05 -5.31811e-05 0.000429187 )  
( 0.000158529 0.000249873 8.18856e-05 )  
( -0.000445692 -8.80626e-06 0.000638282 )  
( -0.000148395 0.000441088 0.000407707 )  
( 0.000292868 -0.000238278 0.000206626 )  
( 0.000230695 0.000619779 0.00100212 )  
( -2.44692e-05 -0.000443486 0.000578188 )  
( 1.09886e-05 5.20623e-05 1.64322e-05 )  
( 5.84377e-05 0.000105206 1.38127e-05 )  
( 0.000172841 -0.000588472 0.000482515 )  
( -6.88377e-05 0.00111598 7.30271e-05 )  
( 0.000517298 -1.66658e-05 0.000453916 )  
( -0.000258804 6.59728e-05 0.000756863 )  
( 1.36007e-05 -0.000175313 -2.18032e-05 )  
( 0.000394035 0.000703317 3.75657e-06 )  
( 0.000342905 -0.000410463 0.00073988 )  
( 7.05985e-05 -0.000132792 0.000482834 )  
( -0.000437024 0.000563289 0.000420583 )  
( 0.000520237 0.000209921 0.000550125 )  
( 0.000294331 -1.45063e-05 5.2836e-05 )  
( -0.000220807 -0.000128078 0.000486264 )  
( 0.000150532 4.45946e-05 0.000552052 )  
( 0.000183553 -4.99713e-05 -3.35585e-05 )  
( -2.67756e-05 -7.94105e-06 0.000130211 )  
( 1.36276e-05 -0.000194482 0.000105264 )  
( -0.000387128 -0.000195913 0.000323059 )  
( 0.00029964 -0.000130132 0.000480137 )  
( -0.000526375 0.000299819 -0.000201534 )  
( 8.97842e-05 7.72913e-05 0.000800016 )  
( -0.000317274 -3.84547e-06 0.000359866 )  
( -0.000128352 -0.000388137 0.000770109 )  
( 2.14298e-05 -0.000288711 1.39373e-05 )  
( 0.000195563 0.000107611 -7.54983e-05 )  
( -6.39365e-05 0.000435905 -8.89801e-05 )  
( -0.000690561 0.000251348 0.000486197 )  
( -7.06626e-05 -0.000251656 0.000101633 )  
( -0.000357367 0.000155342 0.00011517 )  
( 0.000746116 -0.000895159 0.00112192 )  
( 8.56829e-07 0.000192762 0.000724637 )  
( -6.15903e-05 -5.31816e-05 -2.14005e-06 )  
( 0.000216548 1.59049e-05 5.56224e-05 )  
( 3.93774e-05 -0.000194834 0.000700402 )  
( 4.12056e-05 -6.26048e-05 0.000677756 )  
( -5.6024e-05 -6.67444e-05 0.000737434 )  
( 0.000477209 -0.000758752 -0.00040933 )  
( 0.000638815 7.4783e-06 0.00109155 )  
( 0.000106305 -0.000514471 0.00057376 )  
( -0.000478028 -0.00111507 0.00122572 )  
( 0.000120179 9.70657e-05 5.83334e-05 )  
( 0.000546157 -0.000335794 0.000929092 )  
( -0.000182812 -0.000375725 -1.96084e-05 )  
( 9.03e-07 -0.000170778 0.000430434 )  
( 0.000229275 -3.6688e-05 4.12811e-05 )  
( -0.000871019 -0.000706125 -0.000199535 )  
( 0.000153804 0.00044283 0.000413272 )  
( 7.6899e-05 4.39155e-05 -1.36368e-05 )  
( 0.000296981 -2.69266e-05 -3.23026e-05 )  
( -0.000766597 0.00194859 0.00527466 )  
( 0.000396154 -5.09274e-05 0.000348207 )  
( 4.09509e-05 9.29981e-05 0.00073894 )  
( 0.00116561 -0.000387144 0.00105998 )  
( -0.000815825 -7.19119e-05 0.00148301 )  
( 0.000354747 -0.000184773 0.000377374 )  
( -0.000392764 -0.000321904 0.000190789 )  
( 0.000364857 0.00188237 0.00387538 )  
( 0.000284998 0.000237969 0.000989619 )  
( -0.000819083 -0.000235486 0.000427292 )  
( -0.000244558 0.00039236 -6.27825e-05 )  
( 0.000236484 -0.000553873 4.4897e-06 )  
( 5.15538e-05 7.23366e-05 -3.77458e-05 )  