/*--------------------------------*- C++ -*----------------------------------*\
| =========                 |                                                 |
| \\      /  F ield         | OpenFOAM: The Open Source CFD Toolbox           |
|  \\    /   O peration     | Version:  2506                                  |
|   \\  /    A nd           | Website:  www.openfoam.com                      |
|    \\/     M anipulation  |                                                 |
\*---------------------------------------------------------------------------*/
FoamFile
{
    version     2.0;
    format      ascii;
    arch        "LSB;label=32;scalar=64";
    class       surfaceScalarField;
    location    "0.004";
    object      phi;
}
// * * * * * * * * * * * * * * * * * * * * * * * * * * * * * * * * * * * * * //

dimensions      [0 3 -1 0 0 0 0];

oriented        oriented;

internalField   nonuniform List<scalar> 
1200
(
0.00173446
5.93581e-06
6.29128e-06
0.00170986
1.82535e-05
2.48244e-05
0.0017224
1.86772e-06
3.68648e-06
0.0017456
2.52788e-06
-3.33934e-05
0.00172385
-1.96562e-06
-3.45049e-05
0.00176537
-3.91361e-05
-3.04558e-05
0.00178526
-2.91848e-05
8.74496e-07
0.00174399
1.06668e-05
2.23722e-05
0.001695
2.21756e-05
7.03898e-06
0.00167847
8.09639e-06
-1.65058e-05
0.00164223
2.04911e-05
1.19841e-05
0.00161756
9.36033e-06
2.49292e-05
0.00161882
8.53951e-07
-5.95061e-06
0.00163126
2.52497e-06
-1.76019e-05
0.00164907
-3.71253e-06
1.19286e-06
0.00165397
-8.28684e-06
2.85403e-05
0.0016696
-5.0867e-06
7.19246e-06
0.00170307
-6.9612e-06
-2.99776e-05
0.00176176
-2.03139e-05
-3.32206e-05
0.00178892
-2.15743e-05
-1.49358e-06
0.00175958
6.18949e-06
3.06756e-05
0.00172485
1.63024e-05
1.25293e-05
0.00170361
1.07634e-05
-1.82296e-06
0.00166696
9.4933e-06
2.30628e-05
0.00163051
8.29404e-06
3.41663e-05
0.00162066
5.31158e-06
1.84365e-05
0.00164482
-4.13958e-06
-9.07167e-06
0.00167535
-1.39077e-05
-1.13793e-05
0.00168383
-5.69319e-06
1.06347e-05
0.00170055
2.27205e-06
-7.76595e-06
0.00172835
-3.99972e-06
-2.19416e-05
-7.21518e-06
-7.13473e-06
0.0016664
1.98669e-05
1.28621e-05
0.00167446
1.51683e-05
1.5566e-06
0.00172057
-2.27904e-05
-1.51383e-05
0.00176154
-2.29499e-05
-3.56332e-05
0.0017223
3.61646e-06
-8.20592e-06
0.00163677
-1.56832e-06
7.97414e-06
0.00162729
-2.36409e-05
-1.41697e-05
0.00168791
-2.31846e-05
-1.86576e-05
0.00169771
6.88359e-06
1.22998e-06
0.00167582
1.22184e-05
5.29712e-06
0.00169252
5.89815e-06
4.62249e-06
0.0016859
4.10013e-06
2.25541e-05
0.00164988
1.22778e-05
2.58906e-05
0.00165274
4.55118e-06
-1.20522e-05
0.00169772
-2.09348e-05
-1.82581e-05
0.00172181
-2.14082e-05
1.55877e-05
0.00173035
-1.31998e-05
1.32729e-05
0.00177936
-2.56102e-05
-3.5734e-05
0.00179245
-5.01285e-06
-2.92498e-05
0.00175963
-3.43398e-06
2.01059e-05
0.00171969
1.19428e-05
4.14105e-05
0.00172411
8.00103e-06
1.91274e-05
0.00170739
2.36039e-05
-1.29684e-06
0.0016661
3.89597e-05
2.5635e-06
0.00164919
1.58998e-05
5.35657e-06
0.00167888
-1.2682e-05
-1.11787e-05
0.00169937
-1.6284e-05
-1.29898e-05
0.00166996
4.06874e-06
2.17902e-05
0.001648
1.1366e-05
1.66919e-05
0.00165713
5.34211e-06
-1.29155e-05
0.00167991
-8.52129e-06
-7.3211e-06
8.97874e-07
1.19398e-05
0.00174381
-6.75424e-06
-4.62652e-08
0.0017878
-1.69905e-05
-1.4685e-05
0.00177824
-1.04218e-05
4.83534e-06
0.00177687
-1.58167e-05
-3.79367e-06
0.00179553
-1.693e-05
-2.359e-05
0.00178025
-5.17e-06
-3.28342e-05
0.00171988
1.61286e-05
-5.18048e-06
0.00167774
1.38927e-05
-2.50493e-06
0.00168808
-1.7025e-06
-2.06091e-05
0.00173055
-2.28954e-05
-1.77272e-05
0.00175027
-1.44792e-06
3.72852e-06
0.0017281
2.3847e-05
2.03682e-05
0.00170938
2.51321e-05
1.34829e-05
0.00170704
1.08324e-05
-2.78409e-06
0.00171154
-2.13952e-05
-2.25232e-06
0.001699
-2.02587e-05
1.29821e-05
0.00165526
8.96982e-06
3.86876e-06
0.00161289
-2.9142e-07
-4.91247e-06
0.00164487
-2.04721e-05
-6.80598e-06
0.0016925
-2.20858e-05
-1.57618e-06
0.00169805
7.82247e-07
1.79472e-05
0.00166877
2.30223e-05
2.73262e-05
0.00167874
1.95693e-05
1.59747e-05
0.00171097
6.51105e-06
2.45383e-05
0.00170886
3.1829e-06
2.71858e-05
0.00169318
1.63999e-06
-2.38377e-05
0.00168222
-7.88157e-06
-2.87822e-05
0.00167569
1.66262e-06
1.22335e-05
0.0016603
1.55637e-05
2.22425e-05
0.00168183
7.87472e-06
-1.31065e-05
0.00171416
-1.23117e-06
-1.83994e-05
5.60112e-07
8.3347e-06
0.00167982
-6.54516e-06
-2.34641e-05
0.00167474
-2.74769e-06
-5.81876e-06
0.00166172
-2.11909e-06
1.80141e-05
0.00164743
-1.30578e-05
2.30849e-05
0.00166801
-4.26397e-05
-1.79961e-05
0.00167774
-1.55807e-05
-5.5188e-05
0.00164961
1.95501e-05
-1.2186e-05
0.00165324
1.85277e-05
4.11331e-06
0.00167917
-3.28143e-06
-2.00964e-06
0.0016671
-7.4578e-06
2.14571e-05
0.00167956
-4.44481e-06
1.08193e-05
0.00169777
8.73771e-06
2.36108e-06
0.00169161
1.8406e-05
1.37869e-05
0.00169079
5.0713e-06
4.46712e-06
0.00166762
-4.27281e-06
-6.59069e-07
0.00164432
-9.19941e-07
-3.4024e-06
0.00167856
-2.9158e-06
-2.6828e-05
0.00170338
-6.1442e-06
-1.72194e-05
0.00169694
-1.25367e-05
-1.04676e-06
0.00169454
-1.23855e-05
-1.42438e-06
0.00168116
1.12609e-05
1.12464e-05
0.00165924
2.30245e-05
2.60526e-05
0.00168914
-3.43831e-06
7.28666e-06
0.00174825
-2.56757e-05
9.36146e-07
0.00176097
-8.2635e-06
-2.68825e-06
0.0017679
-1.4594e-06
-2.34072e-05
0.00177103
-4.76451e-06
-2.57948e-05
0.00174702
1.57236e-05
9.8927e-06
0.00171149
3.51722e-05
2.31234e-05
0.00166957
2.40485e-05
3.04061e-05
0.00165684
2.47902e-06
1.47676e-05
-2.60816e-06
-9.57082e-06
0.0016858
1.15513e-05
7.61099e-06
0.00166636
1.00316e-05
7.60984e-06
0.00168681
-6.42946e-06
-3.82743e-06
0.00171807
-2.25616e-05
-7.39743e-07
0.00168922
-2.17318e-05
-3.42511e-06
0.0016794
-1.6932e-05
-7.69343e-06
0.0017153
-1.29206e-06
-2.67807e-05
0.0016881
2.00785e-05
-6.23141e-06
0.0016587
1.9861e-05
5.56223e-06
0.00164304
1.46913e-05
2.06782e-05
0.00165584
-2.77706e-06
1.69685e-05
0.00166058
6.5832e-06
1.15223e-05
0.00168214
4.92515e-06
-8.86054e-06
0.00168485
-8.56855e-06
-6.98894e-06
0.00167217
-4.59287e-06
2.24537e-06
0.00167908
-1.34158e-06
5.14336e-06
0.00171033
-9.26728e-06
-6.81419e-06
0.00170963
-5.80066e-06
-8.51461e-06
0.00166765
1.29256e-05
2.65881e-06
0.00163807
1.44375e-05
3.25398e-06
0.00165118
7.53296e-06
1.25939e-07
0.00167576
-3.71196e-06
-8.89723e-07
0.00170471
-2.67961e-05
-1.2553e-05
0.00174651
-5.06224e-05
-1.10937e-05
0.00175227
-1.50973e-05
5.18515e-06
0.0017263
1.20409e-05
-1.97857e-06
0.00170037
1.12822e-05
4.25146e-06
0.00169948
8.78754e-06
1.03922e-05
0.0017486
4.65143e-06
-6.90945e-06
0.00177717
1.4762e-05
-1.44082e-05
0.00175022
2.39425e-05
6.47903e-09
1.286e-05
2.39002e-06
0.00167738
1.4558e-05
-4.46426e-07
0.00164519
1.21912e-05
7.88272e-06
0.00163887
-1.17583e-05
2.12029e-05
0.00168571
-3.9958e-05
1.43628e-05
0.00171354
-1.26162e-05
-2.73537e-05
0.00171554
-5.37426e-06
-3.71622e-05
0.00174816
-2.87821e-05
-2.92917e-05
0.00173224
-2.21609e-08
-9.07195e-06
0.00170753
3.40997e-05
4.00515e-06
0.00170454
3.37824e-05
2.62438e-05
0.00170001
1.67928e-05
5.87981e-06
0.00169335
2.20311e-05
-1.15404e-05
0.00167938
1.04442e-05
3.37719e-06
0.00166963
-1.3879e-05
2.57201e-05
0.001695
-2.52124e-05
4.51427e-06
0.00172029
-2.26291e-05
-5.15036e-06
0.00172009
-1.02918e-05
1.42554e-05
0.00172525
2.66613e-06
1.04031e-05
0.00172682
2.15459e-05
-1.10786e-05
0.00172547
1.88933e-05
-7.54608e-06
0.00174563
-1.47838e-05
4.55403e-06
0.00178708
-2.7653e-05
-1.4018e-05
0.00177411
-8.02474e-06
-7.95382e-06
0.00172674
-2.23469e-05
6.76013e-06
0.00167791
-5.32289e-06
2.19323e-05
0.0016819
1.22171e-05
4.4846e-06
0.00169652
1.88147e-05
-5.88483e-07
0.00167092
2.68e-05
-1.01584e-05
0.00165875
1.55e-07
-1.37751e-05
0.00168213
-5.02371e-06
-1.09419e-05
0.00169777
9.63123e-06
1.30482e-05
8.97669e-06
1.0468e-05
0.00168373
2.47597e-05
1.35334e-05
0.00168406
6.52729e-06
-9.37688e-06
0.00168988
-1.93635e-05
-2.29301e-06
0.00165864
-2.02345e-05
3.04226e-05
0.00169091
-2.66289e-05
6.86522e-06
0.00174316
-2.28664e-05
-2.47724e-05
0.0017178
2.57338e-06
-3.17411e-05
0.00169253
4.48772e-06
-2.59001e-05
0.00170825
1.96853e-05
-9.73066e-06
0.00171722
3.55533e-05
1.9156e-05
0.00172463
1.50848e-05
2.17958e-05
0.00173928
1.67313e-05
1.94847e-06
0.00172558
3.01764e-05
-8.58265e-06
0.00168023
9.46265e-06
1.05263e-05
0.00165126
-2.1432e-05
1.61416e-05
0.00166128
-4.16286e-05
7.31614e-06
0.00166903
-2.19571e-05
-1.08686e-05
0.00168213
6.8414e-06
-1.47806e-05
0.00171642
8.20638e-06
-2.00803e-09
0.00177738
-1.85404e-05
-2.50063e-07
0.00176487
-3.28157e-06
3.80493e-06
0.00172019
7.41967e-06
1.5142e-05
0.00172611
-1.0825e-05
4.7224e-06
0.00170978
-9.44869e-06
8.50451e-06
0.00169828
9.8955e-06
-5.10291e-06
0.00170836
1.50742e-05
-3.33154e-06
0.00170936
6.80631e-06
2.12085e-05
0.00174338
-8.98351e-06
1.33065e-05
0.00175973
-7.11497e-06
-2.53439e-05
0.00174544
1.1131e-05
-1.98949e-05
0.00174509
7.27026e-06
-9.02971e-06
1.21725e-05
1.80506e-05
0.00172566
2.61172e-06
0.00170338
-3.57142e-06
0.00165944
9.42613e-06
0.00165346
-4.39174e-06
0.00163843
-1.01766e-05
0.00162232
-7.7267e-06
0.00163183
-1.191e-05
0.00164244
-8.67124e-06
0.00166802
2.96976e-06
0.00170598
1.51955e-05
0.00171794
2.4111e-05
0.00175943
2.86161e-06
0.00181205
-1.78362e-05
0.00179312
1.98613e-05
0.00174036
2.94166e-05
0.00167631
1.11614e-06
0.00163482
-1.58641e-05
0.00166127
-2.33481e-05
0.00170023
3.93939e-06
0.0016665
2.19939e-05
0.00166988
-6.46631e-06
0.00169575
-1.65127e-05
0.00168173
1.61335e-05
0.00165092
2.21762e-05
0.00168017
-9.3932e-06
0.00173904
-2.19856e-05
0.00174001
7.53739e-06
0.00170163
2.09093e-05
0.00167709
9.0742e-07
0.00170237
-2.21488e-05
0.00171305
-2.33275e-05
7.30254e-06
0.00164055
-1.34511e-06
0.00166965
-4.30733e-06
0.0016818
-8.46739e-06
0.00163014
1.82508e-05
0.00157056
2.50817e-05
0.0015451
-5.05905e-06
0.00158311
-3.71545e-05
0.00161978
-1.43148e-05
0.00161908
7.70958e-06
0.00158738
1.51879e-05
0.00160058
-1.27217e-06
0.0016264
-9.05349e-07
0.00160795
1.24963e-05
0.00158558
4.73263e-06
0.00160356
-1.67813e-05
0.00164546
-1.33693e-05
0.00166165
-8.98479e-06
0.00162661
4.95474e-06
0.00158611
7.27202e-06
0.00157426
1.03533e-05
0.00159821
6.73633e-06
0.00160349
7.1931e-06
0.00159519
6.50955e-06
0.00161088
7.36662e-06
0.00164937
-4.35471e-06
0.00169647
-2.86652e-05
0.00170097
-1.35873e-05
0.00168232
7.25467e-06
0.00168253
1.03743e-05
0.00166009
1.4638e-05
0.00163125
6.90268e-06
-8.87331e-06
0.0016137
-2.9749e-06
0.00162967
-1.87588e-05
0.00161643
-1.03887e-05
0.00158999
8.98744e-06
0.00160198
4.85322e-06
0.00161877
-1.39762e-05
0.00157801
-1.06206e-05
0.00155311
-8.06163e-06
0.00156119
7.24043e-07
0.0015766
5.07072e-06
0.00158495
-4.99507e-06
0.00162101
-1.44474e-05
0.00165566
3.73972e-06
0.00163836
9.94627e-06
0.00160563
-2.34553e-06
0.00163334
-2.55e-05
0.00164895
-1.13173e-05
0.00160831
9.84039e-06
0.00157864
7.66226e-06
0.00161026
-1.20729e-06
0.00166014
-1.73011e-06
0.00167175
1.46453e-05
0.00163574
4.11968e-05
0.00160269
4.29553e-05
0.00159867
5.03911e-06
0.00161972
-6.08736e-05
0.00162493
-3.17945e-05
0.00164002
1.38832e-05
0.00165412
1.29074e-05
0.00164448
1.13257e-05
0.00162316
2.08895e-05
2.70054e-05
0.0017154
-1.40067e-05
0.001677
4.87036e-06
0.00167146
-2.5847e-08
0.00168331
-6.65638e-06
0.00167922
-1.45542e-05
0.00165461
-2.21607e-05
0.00162986
8.90936e-06
0.00161541
3.87741e-06
0.00158598
9.52914e-06
0.0015699
3.30462e-06
0.00156974
-1.10223e-06
0.00156836
7.31527e-06
0.0015635
2.20516e-05
0.00156806
2.60972e-06
0.00157
-6.53459e-06
0.00157227
-1.48032e-05
0.0015787
-1.38597e-05
0.001586
-2.38254e-06
0.00159173
-4.88747e-06
0.00159506
-6.12854e-06
0.00160981
1.44203e-06
0.00163481
1.69846e-05
0.00168298
8.94725e-06
0.0017751
-2.46606e-05
0.00181861
-1.13266e-05
0.00172417
9.71546e-06
0.00165642
7.11806e-06
0.00168068
1.796e-06
0.00171031
5.51965e-06
0.00168343
2.51035e-05
0.00166127
2.45741e-05
-7.97172e-06
0.0016378
-1.57457e-06
0.00163314
3.73765e-06
0.00165237
-1.24504e-06
0.00169695
-2.81357e-05
0.00167296
-8.56693e-06
0.00159448
1.07125e-06
0.00161107
-1.99243e-05
0.00164206
-2.30248e-05
0.00163258
1.69479e-05
0.0016449
1.24464e-05
0.00163042
2.41948e-05
0.00162563
1.44754e-05
0.00166834
-6.87114e-06
0.00167118
4.22408e-06
0.0016515
1.24676e-05
0.00163609
-2.83421e-06
0.00160275
-7.34101e-06
0.00158707
-3.90608e-06
0.00158325
-2.153e-06
0.00158244
-6.75967e-06
0.00159721
-2.10129e-06
0.00164828
-8.12638e-06
0.00168684
-2.23492e-05
0.00167404
-1.09454e-05
0.00166056
-5.81906e-07
0.00162623
2.06536e-05
0.00157952
2.79984e-05
0.00157772
1.34559e-05
0.00160878
-2.44704e-06
0.00166204
2.24523e-06
0.00169224
9.0739e-06
9.60584e-07
0.00160653
7.7362e-06
0.00158826
2.96031e-05
0.00157418
8.9714e-06
0.00156934
-2.40635e-05
0.00161159
-5.42341e-05
0.00163189
-2.69695e-05
0.0015811
4.02137e-06
0.00154727
4.57047e-06
0.00154957
2.01967e-05
0.0015757
6.98433e-06
0.00161813
-1.2984e-06
0.00164005
4.00536e-06
0.00160886
1.54271e-05
0.00159972
6.4064e-06
0.00162566
-1.12443e-05
0.00163258
-4.6928e-06
0.00161173
6.68814e-06
0.00159551
3.78927e-06
0.00159444
1.57936e-06
0.00158142
9.44732e-06
0.00158378
-4.37342e-06
0.00159644
-2.16967e-05
0.00158748
-2.58516e-05
0.00157925
-1.38033e-05
0.00158626
-2.54281e-06
0.00158393
2.09965e-05
0.00160429
1.18581e-05
0.00162321
4.93466e-06
0.0016125
1.34046e-06
0.00159495
5.32952e-06
0.00160336
6.5153e-07
-1.55811e-06
0.00162761
2.87265e-05
0.00166283
2.27184e-06
0.00172294
-2.99392e-05
0.0017277
-1.44822e-05
0.00165344
-7.31334e-06
0.00161398
-2.47041e-05
0.0015975
-8.86026e-06
0.0015892
3.74863e-06
0.0016134
-1.12904e-09
0.00163565
1.09858e-05
0.00160929
3.09412e-05
0.00158676
1.49937e-05
0.00161154
-6.01373e-06
0.00164317
5.22922e-07
0.00164038
-3.98832e-06
0.00164019
-9.60396e-06
0.00168748
-2.63639e-05
0.00169323
8.44555e-06
0.00164969
3.40832e-05
0.00165157
-1.0512e-07
0.00166881
-1.70678e-05
0.00164691
-1.3814e-05
0.00162522
-1.21418e-05
0.00163439
-1.62454e-05
0.0016755
-2.17366e-05
0.00171073
-9.75365e-06
0.00170066
2.13314e-05
0.00167959
1.5825e-05
0.00165628
1.08423e-05
0.00165146
-7.92033e-07
0.00166441
6.79765e-07
2.42976e-05
0.00169201
1.98307e-05
0.00166778
1.71714e-05
0.00165783
-2.23938e-05
0.00172611
-5.23403e-05
0.00174376
-1.8101e-05
0.00168567
8.61692e-06
0.00163131
1.36612e-05
0.00159594
1.31425e-05
0.00158376
2.35174e-06
0.00161659
-2.69101e-06
0.00165825
1.1091e-05
0.0016498
2.53838e-05
0.00162536
9.83567e-06
0.00162861
7.82542e-06
0.00164527
-4.55431e-06
0.00167116
-2.8191e-05
0.00165129
-1.73363e-05
0.00165398
-9.10187e-06
0.00167458
1.34773e-05
0.00166629
7.89785e-06
0.00166325
-1.02227e-05
0.0016781
-1.35152e-05
0.00166101
9.69604e-06
0.00164578
7.44003e-06
0.0016294
-1.04953e-05
0.0016414
-2.51543e-05
0.00169822
-1.43832e-05
0.0017141
1.32424e-05
0.00166546
3.41387e-05
0.00162293
2.18025e-05
0.00162517
-1.05986e-05
-2.08809e-06
0.00164587
0.00165946
0.00164645
0.00158968
0.00156141
0.00156228
0.00156406
0.00156853
0.00157385
0.0015862
0.00162141
0.00164964
0.00164164
0.0016693
0.00169418
0.00166709
0.00163384
0.00160136
0.00161877
0.00164867
0.00163198
0.00160194
0.00162775
0.00165735
0.00163738
0.00159024
0.0015834
0.00161755
0.00165254
0.0016522
0.00161821
)
;

boundaryField
{
    wall
    {
        type            calculated;
        value           nonuniform List<scalar> 
384
(
1.28774e-08
-8.72244e-09
1.6441e-07
1.45262e-08
1.74752e-08
1.25014e-08
1.30714e-08
1.29436e-16
2.74158e-08
3.97982e-08
9.01799e-08
-3.03035e-08
1.88009e-08
-5.22469e-09
-4.87987e-08
8.7396e-09
4.74259e-09
1.45325e-08
1.55784e-08
4.01707e-09
3.93986e-08
-3.97008e-10
1.16005e-07
2.1055e-08
1.58867e-08
7.65236e-08
-6.26006e-09
-1.66118e-08
2.13292e-08
2.7488e-08
-6.65899e-10
4.11052e-08
-1.21245e-09
2.80397e-08
-8.66321e-08
4.08876e-09
-2.85831e-10
-2.1397e-08
-2.00516e-09
-2.5843e-09
5.89952e-08
1.0255e-07
-4.25977e-08
6.84667e-08
4.82378e-08
3.31792e-08
-2.20559e-09
1.41568e-08
2.58129e-08
5.76895e-08
4.14545e-08
5.13793e-08
6.27757e-08
7.67763e-08
9.43092e-08
-2.2405e-08
4.94609e-09
-9.08123e-09
1.07053e-09
2.45893e-08
-1.17554e-09
4.56964e-08
7.98474e-08
-1.6958e-10
2.4825e-08
1.29684e-07
2.04412e-08
5.5614e-08
1.28517e-08
7.60725e-09
9.24594e-08
2.30028e-09
1.29261e-08
4.05363e-09
1.22054e-07
-3.02393e-09
1.44495e-08
-7.16362e-09
5.42377e-09
1.13094e-07
5.1302e-08
2.25097e-09
-4.49914e-09
4.43628e-10
3.00574e-08
-3.00003e-09
-1.44223e-08
-5.86204e-10
1.43439e-08
3.30102e-08
-1.41063e-08
-6.00354e-09
6.88552e-08
2.62301e-09
1.05082e-08
1.67578e-08
6.87322e-09
-1.62562e-09
2.20074e-08
-8.69257e-09
3.36271e-08
3.62405e-08
4.33524e-09
-1.66616e-09
2.94097e-08
3.10527e-08
-3.80104e-09
1.26749e-08
-3.38694e-08
-2.47388e-08
-2.646e-08
1.30624e-08
-5.84596e-09
3.74678e-08
-4.6876e-09
2.24198e-08
2.08476e-08
4.33551e-08
5.14439e-08
-1.6708e-08
1.41722e-08
1.19087e-08
1.97414e-08
3.77215e-08
8.12455e-08
-4.25865e-08
1.39394e-08
1.41549e-08
-9.22995e-09
-8.7653e-09
-2.46166e-08
-2.77702e-09
2.93508e-09
9.10496e-09
-2.48771e-08
4.93368e-08
1.05865e-07
2.08082e-08
8.9077e-09
-1.42011e-08
1.34847e-08
5.91142e-10
7.42856e-08
3.10403e-08
8.04475e-09
3.03565e-08
1.49725e-08
3.20061e-08
-9.93408e-10
-3.7254e-08
6.7649e-09
4.79802e-09
-4.96931e-10
4.737e-08
1.56378e-08
2.42913e-08
6.88342e-08
1.26177e-07
3.44145e-08
-3.24001e-08
-7.70508e-09
-1.22408e-09
2.71898e-08
1.63779e-08
3.05689e-08
4.92849e-09
-2.98851e-10
4.72547e-10
5.14998e-08
6.12776e-08
-9.36467e-09
8.71435e-08
1.95526e-08
0
-8.48566e-09
3.24723e-09
-2.48386e-08
2.89408e-08
5.14546e-08
3.0265e-08
-8.86593e-08
2.19361e-08
-2.47845e-08
1.55972e-08
2.39089e-16
2.5753e-08
3.69753e-08
1.41994e-08
-1.24248e-09
3.84082e-08
5.18424e-08
8.88481e-09
3.19698e-08
-2.32135e-08
4.04198e-08
5.5482e-08
1.28564e-07
1.23968e-08
3.18241e-08
8.33913e-08
-1.5412e-09
-1.36637e-08
1.46493e-08
-1.82131e-08
1.63821e-08
9.33308e-09
7.53379e-08
5.28442e-09
1.14275e-08
-4.89586e-10
4.97007e-08
2.99876e-08
3.06278e-08
0
9.90889e-08
-5.32638e-10
1.49665e-08
7.3005e-08
6.1798e-08
3.54957e-08
-8.37037e-09
2.65633e-08
1.23256e-08
-5.40259e-10
5.13125e-08
6.26773e-08
5.83017e-12
3.33977e-08
9.57698e-09
3.42561e-08
0
5.84295e-08
3.48107e-08
3.5538e-08
2.78388e-10
3.9098e-09
6.21767e-08
1.08097e-09
3.66458e-08
-1.40966e-08
3.97248e-10
1.63495e-08
7.2406e-08
6.10994e-08
2.06475e-08
6.19161e-08
1.0223e-08
1.21954e-08
5.93865e-08
2.06958e-08
-7.82354e-10
3.34569e-08
1.35819e-08
-3.29418e-08
1.40429e-08
-9.21382e-10
0
2.99108e-13
0
1.3458e-12
6.81836e-13
3.54491e-10
0
4.31863e-11
0
-2.11626e-13
0
-1.52639e-12
0
-2.33437e-09
0
9.40406e-09
0
6.54514e-10
0
-3.15431e-13
0
-6.34091e-12
0
-2.30687e-13
0
8.79344e-14
0
2.14206e-12
0
-3.10148e-13
0
-3.49109e-12
0
-2.15334e-10
0
1.52307e-11
0
8.80338e-13
0
-2.03257e-12
0
-1.32003e-11
0
-2.08106e-11
0
7.59544e-12
0
5.12453e-14
0
2.69457e-12
0
1.09863e-11
0
7.76433e-09
0
5.88409e-14
0
-1.71375e-11
0
8.79459e-12
0
8.09415e-15
0
-4.79602e-10
0
-8.2618e-10
0
-9.87754e-11
0
1.34451e-08
0
-3.65247e-12
0
8.53389e-13
0
1.15184e-13
0
4.57364e-12
0
-8.30928e-10
0
-2.1002e-09
0
3.75233e-08
0
3.81605e-14
0
-5.25703e-13
0
3.34376e-12
0
6.97963e-09
0
5.05579e-12
0
-2.91006e-12
0
-3.9111e-12
0
-9.72905e-13
0
-1.74988e-13
0
2.8826e-08
0
-5.48574e-13
0
1.26534e-08
0
3.81931e-12
0
3.34174e-09
0
-2.75284e-13
0
-3.95405e-09
0
6.93761e-10
0
-2.38698e-10
1.49674e-12
1.3097e-11
0
6.74185e-13
0
5.9436e-08
0
-1.07195e-09
)
;
    }
    outlet
    {
        type            cyclic;
        value           nonuniform List<scalar> 
16
(
0.00174431
0.00168059
0.00171777
0.00166742
0.00171867
0.00170098
0.00171931
0.00171313
0.00163293
0.0015992
0.00170458
0.00167371
0.00160825
0.00164906
0.00166959
0.00162342
)
;
    }
    inlet
    {
        type            cyclic;
        value           nonuniform List<scalar> 
16
(
-0.00174431
-0.00168059
-0.00171777
-0.00166742
-0.00171867
-0.00170098
-0.00171931
-0.00171313
-0.00163293
-0.0015992
-0.00170458
-0.00167371
-0.00160825
-0.00164906
-0.00166959
-0.00162342
)
;
    }
    procBoundary3to2
    {
        type            processor;
        value           nonuniform List<scalar> 
256
(
-2.37693e-06
-1.84754e-05
-1.80989e-05
7.66616e-06
5.82253e-05
2.80718e-05
8.41581e-06
8.22851e-06
1.97756e-05
2.49455e-05
3.7609e-06
-9.61838e-06
3.83191e-06
2.64017e-06
-1.52965e-05
-2.51456e-05
-1.77424e-05
3.47318e-06
-5.15606e-06
-4.09526e-06
-7.52346e-06
5.8952e-06
1.23068e-05
4.08821e-06
-6.01164e-06
-1.3891e-05
-1.09507e-05
-5.24013e-06
-1.34226e-05
-1.12318e-05
-1.85528e-06
-1.61006e-06
-1.26074e-05
-6.52874e-06
-6.31695e-06
2.0144e-05
4.18679e-05
3.99887e-05
1.80979e-05
-8.10944e-06
4.26491e-06
1.24683e-05
-6.72541e-06
-1.06783e-05
-1.29781e-06
7.16742e-06
-9.49989e-06
-2.6557e-05
-1.3698e-05
5.36944e-06
8.66985e-07
-5.43441e-06
-7.21474e-06
-1.52538e-05
5.18339e-06
9.26098e-06
3.94317e-06
-5.17153e-07
4.64185e-06
-1.03594e-05
-1.17872e-05
7.11934e-07
-1.09356e-05
-2.07291e-05
6.25969e-07
2.85656e-06
-7.64233e-06
-1.96594e-06
2.54756e-05
5.17107e-05
2.57817e-05
7.56891e-06
1.88522e-05
1.03719e-05
-1.61017e-05
-1.79473e-05
-7.61633e-06
-1.15782e-06
-1.78221e-06
-1.59139e-06
1.7704e-05
2.19565e-05
-9.70773e-06
-2.74062e-05
-1.23409e-05
-1.30587e-05
-2.1916e-05
-2.43175e-05
-1.23617e-05
2.5194e-05
3.13382e-05
-3.29009e-06
-1.10482e-05
-1.09651e-05
-2.12156e-05
-1.16109e-05
1.08527e-05
-3.34299e-06
-1.32971e-05
-1.15536e-05
2.31261e-05
5.58742e-05
3.68941e-05
-1.23826e-05
-2.23359e-05
-2.48244e-05
-2.0282e-05
-5.4629e-06
-8.99774e-07
2.11176e-06
6.70638e-06
7.36646e-06
4.46538e-06
-1.74232e-06
-4.49183e-07
-5.87857e-06
-8.34068e-06
-4.13809e-06
-1.41778e-05
-2.78566e-05
1.4065e-06
1.95815e-05
1.95502e-05
4.88144e-08
-7.19605e-06
-4.6654e-06
-5.74554e-06
2.15913e-06
7.16634e-06
-9.47168e-07
-1.23148e-05
-2.10159e-05
1.1371e-05
1.88629e-05
1.17205e-05
3.18777e-05
6.9751e-07
-2.71667e-05
-3.1432e-05
-1.41139e-05
7.79907e-07
1.79261e-05
1.07538e-05
-1.16394e-05
-1.80753e-05
8.86731e-06
1.38629e-05
-5.05273e-07
-9.50799e-06
3.0549e-06
6.95455e-06
-5.75882e-06
-4.11345e-06
1.4451e-05
5.62969e-06
-2.56119e-06
-1.16951e-05
-4.87546e-06
5.4877e-06
1.36839e-05
2.10384e-05
2.21459e-05
-9.55888e-06
-4.38015e-05
-9.5963e-06
2.3613e-05
2.41593e-05
4.50906e-05
6.46908e-06
-4.23486e-05
-2.09222e-05
2.7579e-06
5.07664e-06
-1.06592e-05
-9.26551e-06
1.13952e-06
-1.30228e-05
-2.40383e-05
8.95972e-07
4.43487e-06
-2.39911e-06
-3.48543e-06
2.15319e-06
1.23355e-05
1.71236e-05
-8.65508e-06
-2.15622e-05
1.77489e-05
3.04354e-05
7.35018e-06
-1.43819e-05
-9.7866e-06
1.18474e-05
1.47112e-05
4.07527e-06
-1.89035e-05
-2.5123e-05
-9.99007e-06
2.57442e-05
4.66625e-05
8.42744e-06
-2.98937e-05
-2.74991e-05
-1.13037e-05
2.55747e-06
1.14751e-05
9.04727e-06
1.66647e-06
1.47851e-05
-2.49427e-06
-2.09484e-05
-2.32818e-05
-2.79319e-06
-5.53821e-06
-7.83983e-06
-5.07618e-06
1.39322e-06
-9.60791e-06
-1.02008e-05
-1.15408e-05
1.62596e-05
1.80346e-05
1.17425e-05
4.52964e-06
9.61566e-06
3.23824e-05
1.51496e-05
-9.86408e-06
-1.4244e-06
9.75494e-07
4.96969e-06
2.54845e-06
-8.85757e-06
-1.76041e-05
-2.09894e-05
-2.76158e-05
-4.61076e-06
8.53489e-06
1.90559e-06
2.13096e-05
3.53933e-05
3.74551e-06
-3.46984e-05
-6.80534e-06
-1.90523e-07
-1.93635e-06
-1.29393e-05
-8.16505e-07
-9.96621e-06
-2.18102e-05
-1.70068e-06
8.48994e-06
1.65187e-05
7.99796e-06
1.99229e-05
4.78555e-06
)
;
    }
}


// ************************************************************************* //
