/*--------------------------------*- C++ -*----------------------------------*\
| =========                 |                                                 |
| \\      /  F ield         | OpenFOAM: The Open Source CFD Toolbox           |
|  \\    /   O peration     | Version:  2506                                  |
|   \\  /    A nd           | Website:  www.openfoam.com                      |
|    \\/     M anipulation  |                                                 |
\*---------------------------------------------------------------------------*/
FoamFile
{
    version     2.0;
    format      ascii;
    arch        "LSB;label=32;scalar=64";
    class       volScalarField;
    location    "0.04";
    object      p;
}
// * * * * * * * * * * * * * * * * * * * * * * * * * * * * * * * * * * * * * //

dimensions      [0 2 -2 0 0 0 0];

internalField   nonuniform List<scalar> 
1152
(
13.3867
13.4406
13.3031
12.9421
13.3088
13.3603
13.3867
13.3304
13.3081
13.3543
13.399
13.2763
13.2371
13.2847
13.3441
13.3442
11.6753
11.6502
11.6366
10.8244
11.698
11.6622
11.7512
11.675
11.7349
11.7484
11.7094
11.9737
11.5957
11.7967
11.7798
11.9153
9.16674
9.31619
9.62955
10.0374
9.21939
9.2899
9.43662
9.60895
9.36157
9.30876
9.2539
9.4136
9.28663
9.33742
9.21556
9.23863
6.55904
6.61389
6.74155
6.97461
6.75893
6.80257
6.74225
6.93529
6.60458
6.68072
6.79438
6.62667
6.67968
6.47351
6.53808
6.69744
3.66426
4.00182
4.2102
4.28856
3.9324
4.04715
4.27493
4.20894
3.76314
3.9229
3.9813
4.21295
3.63971
3.83715
3.98246
4.07859
1.52098
1.59073
1.71029
1.82905
1.45885
1.61028
1.69593
1.76318
1.41788
1.58792
1.80209
1.82622
1.52879
1.63569
1.8556
1.61669
1.01622
1.01448
1.01407
1.01561
1.01742
1.01626
1.01086
1.01386
1.01444
1.01677
1.01763
1.02
1.02179
1.01487
1.00786
1.00823
1.00551
1.00498
1.00411
1.00315
1.00544
1.00504
1.00453
1.00423
1.00516
1.00495
1.00459
1.00453
1.00487
1.00435
1.00375
1.0033
1.00929
1.00902
1.0087
1.00887
1.00913
1.00883
1.00828
1.0085
1.00901
1.00868
1.0083
1.00836
1.00893
1.00821
1.00752
1.00733
1.00703
1.00681
1.00653
1.00637
1.00684
1.00662
1.00631
1.00622
1.00668
1.00643
1.00616
1.00603
1.00645
1.00612
1.00579
1.00558
1.00665
1.0065
1.00634
1.00622
1.00652
1.00636
1.00618
1.00607
1.00639
1.00622
1.00603
1.0059
1.00624
1.00602
1.00581
1.00565
1.006
1.0059
1.00579
1.00571
1.0059
1.00579
1.00568
1.00559
1.00579
1.00568
1.00555
1.00545
1.00567
1.00554
1.00541
1.0053
1.00544
1.00537
1.0053
1.00524
1.00537
1.00529
1.00521
1.00515
1.00529
1.00521
1.00512
1.00505
1.0052
1.00511
1.00502
1.00495
1.00492
1.00487
1.00482
1.00477
1.00486
1.00481
1.00476
1.00471
1.0048
1.00475
1.00469
1.00464
1.00474
1.00468
1.00462
1.00457
1.00442
1.00439
1.00435
1.00431
1.00438
1.00434
1.0043
1.00427
1.00433
1.0043
1.00426
1.00422
1.00429
1.00425
1.00421
1.00417
1.00393
1.00391
1.00388
1.00386
1.0039
1.00388
1.00385
1.00382
1.00387
1.00384
1.00382
1.00379
1.00384
1.00381
1.00378
1.00376
1.00346
1.00344
1.00342
1.0034
1.00344
1.00342
1.0034
1.00338
1.00341
1.00339
1.00337
1.00335
1.00339
1.00337
1.00335
1.00333
1.00299
1.00298
1.00296
1.00295
1.00297
1.00296
1.00294
1.00293
1.00296
1.00294
1.00293
1.00291
1.00294
1.00292
1.00291
1.0029
1.00252
1.00251
1.0025
1.0025
1.00251
1.0025
1.00249
1.00248
1.0025
1.00249
1.00248
1.00247
1.00249
1.00248
1.00247
1.00246
1.00206
1.00205
1.00205
1.00204
1.00205
1.00205
1.00204
1.00203
1.00204
1.00204
1.00203
1.00202
1.00204
1.00203
1.00202
1.00201
1.0016
1.0016
1.00159
1.00159
1.0016
1.00159
1.00159
1.00158
1.00159
1.00158
1.00158
1.00157
1.00158
1.00158
1.00157
1.00157
1.00114
1.00114
1.00114
1.00113
1.00114
1.00114
1.00113
1.00113
1.00113
1.00113
1.00113
1.00113
1.00113
1.00113
1.00112
1.00112
1.00069
1.00068
1.00068
1.00068
1.00068
1.00068
1.00068
1.00068
1.00068
1.00068
1.00068
1.00068
1.00068
1.00068
1.00068
1.00067
1.00023
1.00023
1.00023
1.00023
1.00023
1.00023
1.00023
1.00023
1.00023
1.00023
1.00023
1.00023
1.00023
1.00023
1.00023
1.00022
13.1682
13.2983
13.2778
13.3587
13.1796
13.2927
13.3221
13.3498
13.1634
13.1594
13.2107
13.2937
13.106
13.2124
13.1623
13.2997
11.6841
11.648
11.9423
11.3067
11.6185
11.6049
11.7868
11.3884
11.5883
11.585
11.5862
11.7181
11.5849
11.4926
11.6667
11.6943
9.32507
9.22448
9.17623
9.01336
9.05023
8.89104
9.01215
9.00665
8.97697
9.09893
8.97151
9.00134
9.01467
9.08207
9.04528
8.76628
6.37311
6.49434
6.45002
6.75462
6.55888
6.50272
6.46179
6.76441
6.60461
6.40392
6.40919
6.2618
6.54735
6.25142
6.54969
6.23579
3.86416
3.93518
3.96006
4.13057
3.93376
4.05975
3.89573
3.65086
4.08984
3.98287
3.89098
3.81903
4.0466
3.94064
3.96234
3.45214
1.35888
1.45172
1.52463
1.46243
1.45012
1.50489
1.3667
1.52483
1.47956
1.52618
1.49523
1.23334
1.55441
1.42287
1.34302
1.25113
1.02368
1.0136
1.01626
1.01582
1.01448
1.01036
1.01141
1.00445
1.0122
1.01259
1.01242
1.00292
1.01681
1.01463
0.999893
1.00485
1.00463
1.00377
1.00273
1.00074
1.00434
1.00324
1.00185
0.997802
1.00428
1.00285
1.00134
0.995134
1.0043
1.00314
1.00106
0.996675
1.00885
1.00796
1.00733
1.00654
1.00869
1.00774
1.00704
1.00619
1.00861
1.00765
1.00704
1.00666
1.00874
1.00764
1.00626
1.00567
1.00625
1.00589
1.0055
1.00512
1.00619
1.00575
1.00525
1.00475
1.00616
1.00566
1.00508
1.0045
1.0061
1.00556
1.00478
1.00427
1.00615
1.00588
1.00561
1.00539
1.00613
1.0058
1.00545
1.00517
1.00612
1.00574
1.00533
1.00501
1.00612
1.00571
1.00524
1.00492
1.00559
1.00544
1.00528
1.00514
1.00557
1.00538
1.00518
1.00501
1.00556
1.00534
1.0051
1.00492
1.00555
1.0053
1.00504
1.00485
1.00515
1.00504
1.00494
1.00485
1.00514
1.00501
1.00487
1.00477
1.00513
1.00498
1.00483
1.00471
1.00513
1.00496
1.00479
1.00467
1.00471
1.00464
1.00457
1.00451
1.0047
1.00461
1.00452
1.00445
1.00469
1.00459
1.00449
1.00441
1.00469
1.00458
1.00447
1.00439
1.00426
1.00422
1.00417
1.00413
1.00426
1.0042
1.00414
1.00409
1.00426
1.00419
1.00412
1.00407
1.00425
1.00418
1.00411
1.00405
1.00382
1.00379
1.00376
1.00373
1.00382
1.00378
1.00374
1.0037
1.00381
1.00377
1.00372
1.00369
1.00381
1.00376
1.00371
1.00368
1.00338
1.00335
1.00333
1.00331
1.00337
1.00335
1.00332
1.00329
1.00337
1.00334
1.00331
1.00328
1.00337
1.00333
1.0033
1.00328
1.00293
1.00291
1.0029
1.00288
1.00293
1.00291
1.00289
1.00287
1.00293
1.0029
1.00288
1.00286
1.00292
1.0029
1.00288
1.00286
1.00248
1.00247
1.00246
1.00245
1.00248
1.00247
1.00245
1.00244
1.00248
1.00246
1.00245
1.00243
1.00248
1.00246
1.00244
1.00243
1.00203
1.00202
1.00202
1.00201
1.00203
1.00202
1.00201
1.002
1.00203
1.00202
1.00201
1.002
1.00203
1.00202
1.00201
1.002
1.00158
1.00157
1.00157
1.00156
1.00158
1.00157
1.00157
1.00156
1.00158
1.00157
1.00156
1.00156
1.00158
1.00157
1.00156
1.00156
1.00113
1.00113
1.00112
1.00112
1.00113
1.00112
1.00112
1.00112
1.00113
1.00112
1.00112
1.00111
1.00113
1.00112
1.00112
1.00111
1.00068
1.00068
1.00067
1.00067
1.00068
1.00067
1.00067
1.00067
1.00068
1.00067
1.00067
1.00067
1.00068
1.00067
1.00067
1.00067
1.00023
1.00023
1.00022
1.00022
1.00023
1.00023
1.00022
1.00022
1.00023
1.00022
1.00022
1.00022
1.00023
1.00022
1.00022
1.00022
13.3114
13.2255
13.4207
13.3635
13.2211
13.2165
13.2989
13.2914
12.9732
13.0959
13.1952
13.1982
13.1288
13.1736
13.1489
13.2003
11.3872
11.2512
11.5032
11.5993
11.4149
11.4325
11.5384
11.8116
11.3664
11.5893
11.6259
11.7581
11.4473
11.3893
11.6671
11.6692
8.78501
8.82914
8.86419
8.96711
9.23914
8.91553
8.97421
9.2262
9.11799
8.89117
9.10997
9.05907
9.01985
9.07594
9.07321
9.21039
6.32841
6.6366
6.51388
6.53538
6.22121
6.50637
6.42102
6.42768
6.70091
6.46535
6.55058
6.46112
6.56233
6.6692
6.57153
6.52994
3.6291
3.52566
3.76018
3.75204
3.6628
3.76602
3.86403
3.85647
4.09634
3.98936
3.88091
3.96734
4.20422
4.13353
4.08097
3.94115
1.33339
1.25709
1.22252
1.30659
1.33249
1.47862
1.42453
1.44753
1.46667
1.54099
1.40477
1.49798
1.65141
1.55007
1.41662
1.35925
1.01523
1.01633
1.01089
1.0198
1.01815
1.01209
1.01522
1.0105
1.01819
1.01984
1.0149
1.01562
1.01417
1.01365
1.01626
1.01584
1.0066
1.00722
1.00598
1.00636
1.00598
1.00561
1.00566
1.00542
1.00545
1.00553
1.00532
1.00523
1.00494
1.00491
1.00493
1.00493
1.00979
1.00985
1.00935
1.00953
1.00968
1.00929
1.00925
1.00904
1.00976
1.0096
1.00937
1.00923
1.00913
1.00902
1.00907
1.00909
1.00743
1.00749
1.00731
1.00724
1.00714
1.00709
1.00703
1.00692
1.00703
1.00704
1.00693
1.00682
1.00653
1.00655
1.00654
1.00653
1.00698
1.00695
1.00685
1.00677
1.00679
1.00672
1.00668
1.00662
1.00669
1.00664
1.00658
1.00651
1.00643
1.00639
1.00638
1.00636
1.00624
1.00623
1.00617
1.0061
1.00608
1.00606
1.00602
1.00597
1.00597
1.00595
1.00591
1.00587
1.00577
1.00576
1.00575
1.00573
1.00562
1.0056
1.00556
1.00551
1.0055
1.00548
1.00546
1.00542
1.00541
1.0054
1.00537
1.00534
1.00528
1.00527
1.00526
1.00525
1.00504
1.00503
1.005
1.00496
1.00496
1.00495
1.00493
1.0049
1.00489
1.00488
1.00486
1.00484
1.00479
1.00479
1.00479
1.00478
1.0045
1.00449
1.00447
1.00445
1.00445
1.00444
1.00443
1.00441
1.00439
1.00439
1.00438
1.00436
1.00433
1.00432
1.00432
1.00431
1.00399
1.00398
1.00397
1.00396
1.00395
1.00395
1.00394
1.00392
1.00391
1.00391
1.0039
1.00389
1.00386
1.00386
1.00386
1.00386
1.0035
1.00349
1.00349
1.00347
1.00347
1.00347
1.00346
1.00345
1.00344
1.00344
1.00343
1.00343
1.00341
1.00341
1.0034
1.0034
1.00302
1.00301
1.00301
1.003
1.003
1.00299
1.00299
1.00298
1.00298
1.00297
1.00297
1.00296
1.00295
1.00295
1.00295
1.00295
1.00254
1.00254
1.00254
1.00253
1.00253
1.00253
1.00252
1.00252
1.00251
1.00251
1.00251
1.00251
1.0025
1.0025
1.00249
1.00249
1.00208
1.00207
1.00207
1.00207
1.00207
1.00206
1.00206
1.00206
1.00205
1.00205
1.00205
1.00205
1.00204
1.00204
1.00204
1.00204
1.00161
1.00161
1.00161
1.0016
1.0016
1.0016
1.0016
1.0016
1.0016
1.0016
1.00159
1.00159
1.00159
1.00159
1.00159
1.00159
1.00115
1.00115
1.00115
1.00115
1.00114
1.00114
1.00114
1.00114
1.00114
1.00114
1.00114
1.00114
1.00113
1.00113
1.00113
1.00113
1.00069
1.00069
1.00069
1.00069
1.00069
1.00069
1.00069
1.00068
1.00068
1.00068
1.00068
1.00068
1.00068
1.00068
1.00068
1.00068
1.00023
1.00023
1.00023
1.00023
1.00023
1.00023
1.00023
1.00023
1.00023
1.00023
1.00023
1.00023
1.00023
1.00023
1.00023
1.00023
)
;

boundaryField
{
    inlet
    {
        type            zeroGradient;
    }
    outlet
    {
        type            fixedValue;
        value           uniform 1;
    }
    wall
    {
        type            zeroGradient;
    }
    procBoundary2to0
    {
        type            processor;
        value           nonuniform List<scalar> 
192
(
13.361
13.2837
13.2914
13.2647
11.7833
11.9425
11.8813
11.7766
9.3067
9.12141
9.32272
9.03444
6.1804
6.68862
6.73238
6.83097
3.7142
4.0896
4.14317
4.64745
1.40236
1.61641
1.78739
1.79998
1.02117
1.01309
1.00128
1.01002
1.00584
1.00483
1.0036
1.002
1.00951
1.00912
1.00837
1.00892
1.00714
1.00693
1.00654
1.00648
1.00672
1.0066
1.00642
1.00635
1.00606
1.00598
1.00588
1.00581
1.0055
1.00544
1.00537
1.00531
1.00497
1.00492
1.00488
1.00483
1.00446
1.00442
1.00439
1.00436
1.00396
1.00394
1.00391
1.00389
1.00348
1.00346
1.00344
1.00343
1.003
1.00299
1.00298
1.00297
1.00253
1.00253
1.00252
1.00251
1.00207
1.00206
1.00206
1.00205
1.00161
1.0016
1.0016
1.00159
1.00115
1.00114
1.00114
1.00114
1.00069
1.00069
1.00068
1.00068
1.00023
1.00023
1.00023
1.00023
13.5171
13.4251
13.3581
13.3461
11.5384
11.6418
11.8594
11.7249
8.61922
9.10713
9.1312
9.09584
6.17404
6.14342
6.11249
6.42185
3.76303
3.56081
3.56735
3.69383
1.47931
1.29249
1.18797
1.28323
1.01298
1.01313
1.01256
1.01433
1.00606
1.00595
1.00635
1.00588
1.00934
1.00933
1.0093
1.00929
1.00724
1.00729
1.00727
1.0072
1.00691
1.00688
1.00685
1.00679
1.00622
1.00621
1.00618
1.00613
1.00562
1.00561
1.00559
1.00555
1.00506
1.00505
1.00503
1.005
1.00453
1.00452
1.00451
1.00448
1.00402
1.00401
1.004
1.00398
1.00352
1.00351
1.00351
1.00349
1.00303
1.00303
1.00302
1.00301
1.00255
1.00255
1.00255
1.00254
1.00208
1.00208
1.00208
1.00207
1.00162
1.00162
1.00161
1.00161
1.00115
1.00115
1.00115
1.00115
1.00069
1.00069
1.00069
1.00069
1.00023
1.00023
1.00023
1.00023
)
;
    }
    procBoundary2to3
    {
        type            processor;
        value           nonuniform List<scalar> 
192
(
13.0574
13.1797
13.3652
13.3112
12.0912
12.2313
11.6521
11.5683
10.1637
9.55003
9.3535
9.24515
7.0178
6.73143
6.72246
6.57743
3.85991
3.86507
4.16838
3.88762
2.06251
1.84056
1.71427
1.82125
1.01134
1.02335
1.01494
0.976304
1.00304
1.00467
1.00511
1.00731
1.00766
1.00864
1.00809
1.0072
1.00603
1.00613
1.00587
1.00537
1.00607
1.00597
1.00578
1.00551
1.00562
1.0055
1.00537
1.0052
1.00517
1.00508
1.00499
1.00488
1.00473
1.00466
1.00459
1.00452
1.00428
1.00423
1.00418
1.00414
1.00383
1.0038
1.00376
1.00373
1.00338
1.00336
1.00334
1.00331
1.00294
1.00292
1.0029
1.00288
1.00248
1.00247
1.00246
1.00245
1.00203
1.00202
1.00202
1.00201
1.00158
1.00158
1.00157
1.00156
1.00113
1.00113
1.00112
1.00112
1.00068
1.00068
1.00067
1.00067
1.00023
1.00023
1.00022
1.00022
13.2759
13.3324
13.2201
13.2783
11.7536
11.6289
11.6875
11.5047
9.25923
9.16144
8.99428
9.43047
6.35584
6.1215
6.26554
6.37332
3.67888
3.82111
3.85542
3.72887
1.80434
1.76612
1.20672
1.21654
0.999214
0.93775
0.985379
0.992574
0.999577
0.99058
0.992483
0.993589
1.00583
1.00554
1.00461
1.00355
1.00484
1.00448
1.00409
1.00361
1.00523
1.00498
1.00477
1.00461
1.00504
1.00489
1.00477
1.00469
1.00478
1.00469
1.00462
1.00457
1.00446
1.0044
1.00435
1.00433
1.00409
1.00405
1.00403
1.00401
1.0037
1.00368
1.00366
1.00365
1.00329
1.00327
1.00326
1.00326
1.00287
1.00286
1.00285
1.00284
1.00244
1.00243
1.00242
1.00242
1.002
1.002
1.00199
1.00199
1.00156
1.00156
1.00155
1.00155
1.00112
1.00111
1.00111
1.00111
1.00067
1.00067
1.00067
1.00067
1.00022
1.00022
1.00022
1.00022
)
;
    }
}


// ************************************************************************* //
