/*--------------------------------*- C++ -*----------------------------------*\
| =========                 |                                                 |
| \\      /  F ield         | OpenFOAM: The Open Source CFD Toolbox           |
|  \\    /   O peration     | Version:  2506                                  |
|   \\  /    A nd           | Website:  www.openfoam.com                      |
|    \\/     M anipulation  |                                                 |
\*---------------------------------------------------------------------------*/
FoamFile
{
    version     2.0;
    format      ascii;
    arch        "LSB;label=32;scalar=64";
    class       volVectorField;
    location    "0.04";
    object      U;
}
// * * * * * * * * * * * * * * * * * * * * * * * * * * * * * * * * * * * * * //

dimensions      [0 1 -1 0 0 0 0];

internalField   nonuniform List<vector> 
1152
(
(-0.000473151 0.000434772 0.00934688)
(0.000514106 -0.000369712 0.00702817)
(0.00430224 -0.000909384 0.0108533)
(0.00224604 -0.000668734 0.0143636)
(-0.00104955 0.0013529 0.0203671)
(-0.000848008 0.000986398 0.0157303)
(0.000282931 -0.00086367 0.0104389)
(0.000237017 -0.000671632 0.00181783)
(-0.00151832 0.000613148 0.0106973)
(-0.00107262 0.000934809 0.0142939)
(0.000753902 0.00044747 0.0119196)
(0.000624534 -0.000113952 0.0225901)
(-0.00129636 0.00199128 0.0152536)
(-0.00178741 0.000709926 0.0156704)
(-0.000820373 0.00128474 0.0123757)
(0.000429261 -0.00112395 0.0150371)
(-0.000272179 0.000568455 0.0239655)
(1.70935e-05 0.00069989 0.00906117)
(0.00575938 0.000753977 0.0189084)
(-0.000104711 -2.49651e-05 0.000667492)
(0.000571813 -0.000236409 0.0111358)
(-0.000367195 -0.000762916 0.0157318)
(-5.81562e-05 -0.00062498 0.0213695)
(-0.00312792 -0.00728762 0.0182345)
(9.60498e-06 0.000466192 0.016311)
(5.30258e-05 -0.000757511 0.0139959)
(-0.000496398 -0.000112447 0.00512496)
(0.000378464 -0.00209084 0.0252533)
(-0.000526573 -6.06524e-05 0.0120638)
(-0.00149161 0.000903925 0.0226199)
(-0.000844418 -0.00118056 0.0151519)
(0.00049758 0.00156052 0.00797111)
(-0.00108805 0.000447068 0.0133377)
(-0.00179078 -0.000597127 0.0166154)
(-0.00376293 -0.000642961 0.0196947)
(-0.00584558 -0.00651004 0.0322083)
(-0.000652854 -0.0018682 0.0376986)
(-0.00170921 -0.000161563 0.0305521)
(-0.000223146 0.000114099 0.00303416)
(-0.000772922 0.00384997 0.025918)
(-0.00117409 -0.000393433 0.0155011)
(0.000545519 -0.000507232 0.0227182)
(-0.000881816 0.00142116 0.030017)
(-0.000327194 0.00145482 0.0187097)
(-0.00167168 0.000319768 0.0434321)
(0.000218197 -7.77633e-05 0.00847446)
(0.000577341 6.93158e-05 0.0245105)
(4.52421e-05 0.000803299 0.0116157)
(-0.000390643 -0.00401037 0.0299424)
(2.36843e-05 1.39995e-05 0.00237545)
(-0.00135064 0.000138825 0.0176846)
(-0.000791902 -0.000544157 0.0162279)
(-0.00198486 -0.000279769 0.0221316)
(0.000191182 -0.00043266 0.0202191)
(-0.000655077 -0.000404212 0.0236182)
(0.000131719 0.00149062 0.0232071)
(-3.36338e-05 6.03484e-05 0.00383357)
(-0.000589962 0.00109583 0.0158301)
(0.000317106 0.000577398 0.0164794)
(0.00051905 0.00126268 0.0270598)
(0.000279626 0.000894206 0.0117599)
(0.000912529 0.00076624 0.0209839)
(-0.000905348 0.00138858 0.0201494)
(8.46228e-05 -0.000365551 0.00190682)
(1.49796e-05 -5.80279e-05 0.00207028)
(-0.00304203 0.000218868 0.0230357)
(-0.00196372 -0.000997169 0.0267387)
(0.00408129 0.00463556 0.0417821)
(-0.00108235 -0.000593595 0.0245832)
(-0.00190617 0.000360416 0.0234672)
(-0.000607631 0.000787418 0.0164124)
(0.00100206 -5.99729e-05 0.00967758)
(0.000290672 0.00103085 0.0136073)
(-0.00110024 0.0010939 0.02212)
(-0.000971347 0.000968421 0.0150364)
(-0.00186113 0.00130277 0.0398218)
(0.00150739 -0.00109891 0.0287234)
(-0.00148607 -0.000242644 0.0185209)
(-0.00145428 3.34481e-05 0.0262713)
(0.000334676 7.01998e-05 0.00773988)
(-0.00323935 -0.00062012 0.0239082)
(-0.000687995 3.9927e-05 0.00891837)
(-0.000719198 0.000360008 0.00897019)
(-2.38221e-05 3.22271e-05 0.00153875)
(-0.000977685 0.000575348 0.012437)
(-0.0013777 -1.01385e-05 0.0133949)
(-0.000327364 -0.00022868 0.00595706)
(-0.000864363 -1.09736e-06 0.0155482)
(-0.000407245 -0.000223525 0.00957316)
(-0.00185058 -0.000184156 0.0111806)
(-0.00219716 -0.00154213 0.0214712)
(0.000262149 0.000337653 0.00781842)
(-0.00463423 0.00153637 0.0292892)
(-0.00230141 0.00102459 0.0162482)
(0.000185465 0.00170143 0.0149785)
(2.39074e-05 4.98676e-05 0.00142081)
(0.000131142 0.000130624 0.00919362)
(-1.97869e-05 2.24771e-06 0.011381)
(-0.000133589 -0.000205591 0.0136045)
(0.000266249 2.50542e-05 0.0172698)
(-0.000518651 0.000309911 0.0147737)
(-4.81805e-05 -9.43481e-06 0.0121671)
(-0.000104457 -5.64088e-05 0.00927287)
(-0.000258924 8.77835e-06 0.010885)
(-0.000281926 3.51831e-05 0.0123537)
(-0.000306164 3.95237e-05 0.0134998)
(-0.000203315 9.08145e-06 0.0100606)
(-9.47113e-05 6.95822e-05 0.0168612)
(-0.000193779 -0.000259839 0.0184679)
(2.11545e-05 1.02858e-05 0.0109181)
(-0.000206657 -6.28069e-05 0.0065804)
(0.00119497 0.000807753 0.00612932)
(0.00141434 0.000487981 0.0169387)
(0.00109583 0.000109941 0.0156255)
(0.000792543 -0.000156687 0.0171631)
(0.000643802 -0.000323117 0.0263465)
(0.000565339 0.000540002 0.018027)
(0.000805294 0.000106299 0.0166987)
(0.00046275 -0.000193392 0.0134033)
(-3.55891e-05 -0.000484877 0.0182731)
(0.000327384 0.000244924 0.0195114)
(0.000392619 0.000103767 0.0183836)
(7.26845e-05 -0.000170948 0.016909)
(-0.000221876 -0.000428145 0.0195219)
(0.000164217 8.4605e-06 0.0248101)
(0.000275215 -3.65019e-05 0.0174047)
(-0.000258723 -0.000200913 0.0112936)
(-0.00104382 -3.83042e-05 0.0136069)
(0.000433333 0.000139249 0.00450741)
(0.000224313 5.88414e-05 0.00388745)
(-0.000881328 1.64402e-05 0.00392077)
(-0.000392613 0.000834764 0.00545683)
(6.15996e-05 -0.000447455 0.00452683)
(0.000518336 -0.000274438 0.00403361)
(-0.000388793 -7.70346e-06 0.0035133)
(-0.000942078 0.000637161 0.0044441)
(0.000400742 -0.000833346 0.00500721)
(0.000587338 -0.000327587 0.00439859)
(-7.56507e-05 -3.87241e-05 0.00390323)
(-0.000206948 0.000482046 0.00435305)
(0.0004796 -0.000728127 0.00575603)
(0.00118037 -0.000467876 0.00433231)
(0.00028312 -0.000430906 0.00332897)
(-0.000135384 -0.000109442 0.00347809)
(0.000301752 0.000108714 0.0105036)
(0.00018529 0.000103252 0.0103499)
(-0.000310322 8.97757e-05 0.0104307)
(-0.000257437 0.000336511 0.0113707)
(0.000130396 -0.000106847 0.0105142)
(0.000233813 -6.20995e-05 0.0103301)
(-0.000171325 2.77664e-05 0.0101364)
(-0.00039593 0.000271998 0.010797)
(0.000219464 -0.000269192 0.0108816)
(0.000274453 -0.000151835 0.0105664)
(-2.697e-05 -5.97803e-05 0.0103527)
(-0.000127115 0.000157347 0.0106317)
(0.000116284 -0.000195401 0.0111741)
(0.000378872 -0.000243812 0.0105486)
(7.02582e-05 -0.000273443 0.0100644)
(-5.69606e-05 -0.000199123 0.0101912)
(0.000135612 2.87681e-05 0.00898419)
(8.45921e-05 4.1559e-05 0.00889831)
(-0.000104137 4.35907e-05 0.00889842)
(-0.000111231 0.000112733 0.00920496)
(8.55095e-05 -7.91098e-05 0.00892673)
(9.92969e-05 -4.61875e-05 0.0088435)
(-6.2219e-05 -2.22794e-06 0.00878402)
(-0.00014298 8.38571e-05 0.00901742)
(0.000149661 -0.000188965 0.00902467)
(0.000146571 -0.000126678 0.00890731)
(8.48872e-06 -7.20779e-05 0.00883628)
(-4.5889e-05 1.57438e-05 0.0089455)
(0.000144848 -0.00020816 0.00905004)
(0.000192492 -0.000198663 0.00889494)
(5.45572e-05 -0.000181611 0.00877326)
(-1.48333e-06 -0.000154197 0.00883828)
(7.63044e-05 1.58918e-05 0.00938046)
(5.11785e-05 1.85261e-05 0.00935403)
(-2.01523e-05 1.67685e-05 0.00935452)
(-3.08801e-05 3.35728e-05 0.0094571)
(4.88359e-05 -2.46939e-05 0.00935578)
(4.7226e-05 -2.01176e-05 0.00932979)
(-1.20776e-05 -8.48157e-06 0.00931479)
(-3.84053e-05 1.68402e-05 0.00939766)
(6.65476e-05 -7.10131e-05 0.00940418)
(6.33815e-05 -6.30574e-05 0.00935932)
(1.1929e-05 -4.85322e-05 0.00933255)
(-6.44845e-06 -2.31243e-05 0.00937474)
(3.94354e-05 -7.99873e-05 0.00942427)
(6.17875e-05 -9.92543e-05 0.00937042)
(1.99065e-05 -0.000103197 0.00932754)
(1.29062e-05 -0.000102291 0.00935343)
(4.52531e-05 4.42801e-06 0.00939076)
(3.44297e-05 3.64067e-06 0.00938333)
(8.35213e-06 1.95558e-06 0.00938245)
(2.26489e-06 4.87819e-06 0.00941581)
(3.23757e-05 -1.51735e-05 0.00937349)
(3.01351e-05 -1.55162e-05 0.00937029)
(8.71771e-06 -1.25618e-05 0.00936825)
(4.2894e-07 -5.79314e-06 0.00939652)
(3.94841e-05 -4.01504e-05 0.00938265)
(3.62972e-05 -3.86738e-05 0.00937745)
(1.68862e-05 -3.39878e-05 0.00937233)
(1.12584e-05 -2.65494e-05 0.00938974)
(2.83213e-05 -5.10706e-05 0.00936961)
(3.34491e-05 -5.83534e-05 0.00937545)
(1.84149e-05 -5.9358e-05 0.0093723)
(1.90118e-05 -6.1149e-05 0.00938765)
(2.80373e-05 -8.94646e-07 0.00940348)
(2.40694e-05 -2.45307e-06 0.00940342)
(1.50153e-05 -3.95213e-06 0.00940276)
(1.26536e-05 -3.95919e-06 0.00941262)
(2.13699e-05 -9.86877e-06 0.00939385)
(2.08304e-05 -1.17184e-05 0.00939756)
(1.40812e-05 -1.16455e-05 0.00939794)
(1.19944e-05 -1.01575e-05 0.0094072)
(2.30094e-05 -2.16317e-05 0.00939239)
(2.22444e-05 -2.30327e-05 0.00939831)
(1.62928e-05 -2.21737e-05 0.00939891)
(1.55498e-05 -2.06037e-05 0.00940555)
(1.60912e-05 -2.78229e-05 0.00937565)
(1.93045e-05 -3.24095e-05 0.00939229)
(1.57153e-05 -3.35233e-05 0.00939705)
(1.84751e-05 -3.54322e-05 0.00940465)
(1.83989e-05 -3.03679e-06 0.00940875)
(1.7334e-05 -4.32192e-06 0.0094123)
(1.46701e-05 -5.32739e-06 0.00941233)
(1.3929e-05 -5.81077e-06 0.00941452)
(1.47751e-05 -7.17281e-06 0.00940237)
(1.53299e-05 -8.83489e-06 0.0094092)
(1.37936e-05 -9.41485e-06 0.00941068)
(1.36183e-05 -9.30868e-06 0.00941315)
(1.4712e-05 -1.25924e-05 0.00939556)
(1.51503e-05 -1.41384e-05 0.00940657)
(1.4112e-05 -1.44506e-05 0.00940986)
(1.47831e-05 -1.43466e-05 0.00941236)
(1.09042e-05 -1.59521e-05 0.00937495)
(1.30993e-05 -1.84517e-05 0.00939663)
(1.32799e-05 -1.93951e-05 0.00940482)
(1.57811e-05 -2.0659e-05 0.00940932)
(1.24576e-05 -3.38243e-06 0.00941026)
(1.26257e-05 -4.30917e-06 0.0094157)
(1.22173e-05 -4.98077e-06 0.00941636)
(1.21665e-05 -5.36258e-06 0.00941616)
(1.05567e-05 -5.31538e-06 0.00940536)
(1.14577e-05 -6.49485e-06 0.00941361)
(1.16017e-05 -7.07903e-06 0.00941564)
(1.19813e-05 -7.29762e-06 0.00941593)
(1.00338e-05 -7.66275e-06 0.00939616)
(1.0917e-05 -8.88234e-06 0.00940926)
(1.13882e-05 -9.40999e-06 0.00941373)
(1.23007e-05 -9.66587e-06 0.00941481)
(7.87785e-06 -9.30922e-06 0.00937358)
(9.55887e-06 -1.07791e-05 0.00939692)
(1.06803e-05 -1.15185e-05 0.00940648)
(1.2532e-05 -1.2304e-05 0.00940974)
(8.6492e-06 -3.051e-06 0.00941001)
(9.24223e-06 -3.67936e-06 0.00941656)
(9.53042e-06 -4.12716e-06 0.00941776)
(9.75227e-06 -4.37814e-06 0.00941709)
(7.67262e-06 -3.91237e-06 0.00940566)
(8.5668e-06 -4.69351e-06 0.00941471)
(9.13359e-06 -5.14689e-06 0.00941719)
(9.61148e-06 -5.37812e-06 0.00941703)
(7.1272e-06 -4.85473e-06 0.00939529)
(8.04767e-06 -5.70614e-06 0.00940938)
(8.83326e-06 -6.18414e-06 0.0094145)
(9.62925e-06 -6.46844e-06 0.00941537)
(5.94581e-06 -5.59375e-06 0.00937154)
(7.17474e-06 -6.49741e-06 0.00939561)
(8.30197e-06 -7.04465e-06 0.00940582)
(9.58108e-06 -7.51627e-06 0.0094089)
(6.11889e-06 -2.51942e-06 0.00940923)
(6.75601e-06 -2.93286e-06 0.00941647)
(7.17807e-06 -3.22621e-06 0.00941813)
(7.50016e-06 -3.40835e-06 0.0094176)
(5.60094e-06 -2.85539e-06 0.00940502)
(6.35876e-06 -3.36457e-06 0.00941458)
(6.93576e-06 -3.68386e-06 0.00941745)
(7.3718e-06 -3.85733e-06 0.0094174)
(5.16204e-06 -3.17232e-06 0.00939404)
(5.95569e-06 -3.7437e-06 0.00940866)
(6.67906e-06 -4.11253e-06 0.00941422)
(7.29106e-06 -4.34488e-06 0.00941528)
(4.48472e-06 -3.4434e-06 0.00936964)
(5.39326e-06 -4.02374e-06 0.00939406)
(6.2979e-06 -4.42175e-06 0.00940468)
(7.15789e-06 -4.71597e-06 0.00940792)
(4.36536e-06 -1.97749e-06 0.00940836)
(4.91084e-06 -2.24641e-06 0.00941605)
(5.28899e-06 -2.43891e-06 0.00941809)
(5.60899e-06 -2.57988e-06 0.00941784)
(4.07266e-06 -2.06874e-06 0.00940414)
(4.66964e-06 -2.4022e-06 0.00941404)
(5.1423e-06 -2.61951e-06 0.00941724)
(5.49611e-06 -2.73866e-06 0.00941746)
(3.7532e-06 -2.11695e-06 0.00939281)
(4.3805e-06 -2.49846e-06 0.00940777)
(4.95004e-06 -2.76638e-06 0.00941365)
(5.39477e-06 -2.94103e-06 0.00941498)
(3.34169e-06 -2.16681e-06 0.00936803)
(4.01153e-06 -2.54874e-06 0.00939267)
(4.68023e-06 -2.8363e-06 0.0094036)
(5.25219e-06 -3.03274e-06 0.00940709)
(3.10317e-06 -1.49216e-06 0.00940757)
(3.52923e-06 -1.66604e-06 0.00941556)
(3.82898e-06 -1.78983e-06 0.00941789)
(4.07441e-06 -1.89116e-06 0.00941792)
(2.92511e-06 -1.48132e-06 0.00940329)
(3.37388e-06 -1.7028e-06 0.00941344)
(3.73187e-06 -1.85264e-06 0.00941689)
(3.99266e-06 -1.93956e-06 0.00941737)
(2.70455e-06 -1.42558e-06 0.00939177)
(3.17287e-06 -1.68086e-06 0.00940695)
(3.59161e-06 -1.87097e-06 0.00941308)
(3.90249e-06 -2.00148e-06 0.00941466)
(2.44481e-06 -1.38822e-06 0.00936675)
(2.92669e-06 -1.64239e-06 0.00939157)
(3.40083e-06 -1.84549e-06 0.00940271)
(3.77831e-06 -1.98303e-06 0.00940643)
(2.16119e-06 -1.07405e-06 0.00940693)
(2.47601e-06 -1.18476e-06 0.00941511)
(2.70369e-06 -1.26029e-06 0.00941765)
(2.84513e-06 -1.3176e-06 0.00941789)
(2.04726e-06 -1.03068e-06 0.00940259)
(2.3697e-06 -1.17819e-06 0.00941292)
(2.63006e-06 -1.28424e-06 0.00941656)
(2.80191e-06 -1.35483e-06 0.00941724)
(1.89961e-06 -9.49052e-07 0.00939095)
(2.23308e-06 -1.11735e-06 0.00940629)
(2.52721e-06 -1.24959e-06 0.00941259)
(2.73408e-06 -1.34853e-06 0.00941437)
(1.73539e-06 -8.87721e-07 0.0093658)
(2.06984e-06 -1.05674e-06 0.00939074)
(2.39326e-06 -1.19643e-06 0.00940204)
(2.63753e-06 -1.29423e-06 0.00940595)
(1.43452e-06 -7.06746e-07 0.00940645)
(1.65255e-06 -7.74029e-07 0.00941476)
(1.81759e-06 -8.17051e-07 0.00941744)
(1.87382e-06 -8.36629e-07 0.00941781)
(1.36307e-06 -6.63249e-07 0.00940207)
(1.58082e-06 -7.57115e-07 0.00941251)
(1.76046e-06 -8.30248e-07 0.00941628)
(1.85993e-06 -8.87057e-07 0.0094171)
(1.26899e-06 -5.92664e-07 0.00939036)
(1.49256e-06 -6.97624e-07 0.0094058)
(1.68797e-06 -7.85264e-07 0.00941223)
(1.81565e-06 -8.5777e-07 0.00941414)
(1.16666e-06 -5.35544e-07 0.00936513)
(1.38924e-06 -6.44615e-07 0.00939015)
(1.59723e-06 -7.36389e-07 0.00940157)
(1.74782e-06 -8.04686e-07 0.00940561)
(8.69671e-07 -3.63736e-07 0.00940613)
(1.00562e-06 -3.9999e-07 0.00941452)
(1.11401e-06 -4.22858e-07 0.00941728)
(1.12995e-06 -4.21796e-07 0.00941773)
(8.31225e-07 -3.34542e-07 0.00940172)
(9.63994e-07 -3.86194e-07 0.00941224)
(1.07682e-06 -4.30267e-07 0.00941609)
(1.12758e-06 -4.68955e-07 0.00941699)
(7.78796e-07 -2.89786e-07 0.00938998)
(9.13867e-07 -3.47404e-07 0.00940548)
(1.03142e-06 -3.99321e-07 0.00941199)
(1.10181e-06 -4.47515e-07 0.00941399)
(7.19729e-07 -2.53815e-07 0.0093647)
(8.54778e-07 -3.17056e-07 0.00938978)
(9.74905e-07 -3.71077e-07 0.00940127)
(1.05871e-06 -4.15839e-07 0.0094054)
(4.54901e-07 -5.96764e-08 0.00940593)
(5.25813e-07 -7.36572e-08 0.00941437)
(5.83616e-07 -8.39328e-08 0.00941718)
(6.01559e-07 -8.33773e-08 0.00941769)
(4.41251e-07 -4.6444e-08 0.00940151)
(5.1024e-07 -6.71688e-08 0.00941207)
(5.6796e-07 -8.55016e-08 0.00941598)
(5.96297e-07 -1.03781e-07 0.00941694)
(4.19193e-07 -3.053e-08 0.00938976)
(4.88366e-07 -5.51585e-08 0.0094053)
(5.46864e-07 -7.90423e-08 0.00941186)
(5.81406e-07 -1.03327e-07 0.00941391)
(3.92551e-07 -1.82811e-08 0.00936447)
(4.61154e-07 -4.84273e-08 0.00938958)
(5.18741e-07 -7.5368e-08 0.00940112)
(5.57667e-07 -1.00355e-07 0.0094053)
(-0.00217686 0.000807288 0.0206591)
(-0.000591636 -0.000394176 0.00673842)
(-0.00164843 0.000215539 0.023349)
(-1.14831e-05 -0.000305779 0.0139935)
(-0.00119455 -0.000332097 0.0107476)
(-0.00153343 0.00108811 0.0127488)
(-0.000577684 0.000490411 0.0113215)
(-1.196e-05 0.000572843 0.0168993)
(-0.000682817 0.00132202 0.014666)
(-0.000691993 0.00101709 0.0152879)
(-0.00167555 0.00184909 0.0155081)
(-6.29941e-05 0.000312512 0.0138596)
(-0.00171158 0.000506268 0.0175753)
(8.28151e-05 -0.000625257 0.0111011)
(-0.00119237 0.000755356 0.0174527)
(-0.000840415 -0.000271857 0.0139593)
(-0.000146208 0.000357402 0.0327108)
(-0.00227669 0.00106875 0.0245474)
(0.00129144 -3.61994e-05 0.0135935)
(0.000269675 0.000613665 0.00531903)
(-2.99319e-05 0.00157704 0.0246808)
(-0.000269432 0.000113065 0.0049538)
(0.000713429 0.00141189 0.0124872)
(0.000452881 -0.00101528 0.00747127)
(-0.000561078 -8.24489e-05 0.00851195)
(-0.000748389 0.00152126 0.0336025)
(-0.000650308 0.000503982 0.0196528)
(-0.0004187 -0.00189756 0.016852)
(-7.19501e-05 -0.000181797 0.0221354)
(-0.000501056 0.000389938 0.0151946)
(-0.000608511 -0.000766131 0.021141)
(0.000553892 6.61989e-05 0.014224)
(-0.000229099 0.000924206 0.00682626)
(0.000433465 0.00382981 0.0250498)
(0.000900642 0.00113767 0.0233792)
(-0.000876737 0.00268226 0.0416132)
(-5.68454e-05 0.0031994 0.0191223)
(0.000108236 0.0010011 0.0231084)
(-0.00027981 0.000279923 0.0105099)
(-0.00120091 -8.61634e-05 0.0388924)
(-0.000314477 0.000486366 0.0233184)
(0.000261412 -0.000664009 0.0123951)
(0.000986969 -0.000161679 0.0320936)
(-0.000158007 0.000552392 0.0132455)
(-0.000103029 -0.000274943 0.0247443)
(-0.000242355 5.06227e-05 0.0290893)
(0.00161397 -0.00015354 0.0217532)
(-0.00113375 0.00107746 0.0177871)
(0.000362495 0.0004568 0.0208847)
(-0.000113376 -0.000495655 0.0138155)
(-0.000363729 -0.000224315 0.00985694)
(0.00107061 -0.00112306 0.0300565)
(0.0012835 -0.00247787 0.031075)
(0.000588703 0.00117258 0.0340862)
(-0.000491425 -0.00031214 0.0154062)
(0.00155052 0.00203295 0.0182701)
(0.000965103 0.000775219 0.0245685)
(4.16573e-05 0.00270883 0.0296642)
(0.001204 -0.000889008 0.029719)
(0.000423259 0.00185888 0.0153335)
(0.00110784 0.00128067 0.0272607)
(-0.000356559 0.000468915 0.0112006)
(0.000672742 -0.00103735 0.0227709)
(0.00117426 0.000385967 0.0317635)
(0.000226544 -0.00422147 0.0432864)
(-0.000354193 -0.00201552 0.0240351)
(-0.00139192 0.000350496 0.0309751)
(0.00155618 0.00243723 0.0228083)
(0.000157211 -0.00031718 0.00442847)
(0.000157245 -0.000318876 0.0126932)
(0.00114189 0.000366524 0.0134649)
(0.000262425 0.000791622 0.0119553)
(0.000144767 -0.000323868 0.00912193)
(0.000498107 0.000959165 0.0195538)
(0.00164319 -0.000385894 0.0347732)
(0.000220411 0.00140011 0.0259655)
(0.0006563 0.00103255 0.0245827)
(0.000545205 0.0009749 0.0428168)
(0.000632144 2.07076e-05 0.00651185)
(0.000701226 0.00201452 0.0191952)
(-4.25368e-06 -4.35211e-05 0.00136045)
(-0.000212263 0.000140349 0.00638626)
(-4.77477e-05 0.0015087 0.00771477)
(-0.000454342 0.000306031 0.0043243)
(-0.00032276 -0.0021276 0.0199678)
(0.00076691 -0.000657767 0.0171551)
(8.84577e-06 0.000214453 0.00974902)
(-0.0040355 0.00297336 0.0255316)
(0.000328146 -0.000674629 0.0129247)
(-0.00029643 0.000575947 0.015959)
(0.00174638 0.000849435 0.0204922)
(-0.000289224 0.000261214 0.000834917)
(0.00152359 2.85e-06 0.0183512)
(0.000475936 0.000502484 0.00656788)
(0.000326932 0.00099678 0.010524)
(0.00111917 -0.000233354 0.0278815)
(-0.00025974 0.000773752 0.015651)
(3.52492e-05 0.000443884 0.0131343)
(0.000189163 0.000141224 0.0155355)
(0.000446174 0.000358725 0.0141257)
(-0.000866525 0.000325249 0.0106943)
(-0.000261237 0.000206814 0.00983081)
(-0.000107847 -1.44582e-06 0.0136631)
(0.000913847 0.000767419 0.0122057)
(-0.000459534 -0.000657803 0.00998385)
(-9.23574e-05 -0.000502693 0.0115988)
(-6.5983e-05 0.000455736 0.0192076)
(0.00055654 -0.000934483 0.00623476)
(0.000386933 -9.74031e-05 0.0153858)
(0.00113987 -1.53001e-05 0.0225067)
(0.00399228 0.00138422 0.00838438)
(-0.000334326 0.000639883 0.0236323)
(9.46717e-06 0.000399348 0.0246464)
(8.81756e-05 3.57998e-05 0.0184223)
(-0.00012498 -0.000217611 0.0181261)
(-9.65484e-05 0.00029121 0.017374)
(-9.48823e-06 0.000440669 0.0196955)
(1.37466e-05 -4.07205e-05 0.0167792)
(1.93698e-05 4.22101e-05 0.0185975)
(-0.000254851 0.00138111 0.0209125)
(3.20789e-07 -6.17269e-06 0.0173369)
(0.000263237 -0.000571796 0.0185339)
(0.00096952 0.000393123 0.0241363)
(-0.000542015 -0.000819375 0.0333682)
(-0.000196403 -0.000221994 0.0192504)
(0.000546962 -0.000273814 0.0200344)
(0.000518662 0.000418748 0.0148587)
(-0.000326637 -0.00175262 0.0274524)
(0.000192875 -5.55301e-05 0.00569534)
(0.000756814 -0.000400369 0.00471247)
(0.000154905 -0.00111563 0.00430887)
(7.80795e-05 -0.00139082 0.00410121)
(-9.59996e-05 0.00016119 0.00496585)
(0.000353942 -0.000385136 0.00452788)
(-0.000373697 -0.00111514 0.00453801)
(-0.000565432 -0.00204967 0.00473303)
(-0.000161054 -0.000224899 0.00440259)
(8.66171e-06 -0.000587639 0.00481651)
(-0.00105592 -0.000352611 0.00519761)
(-0.000222026 -0.00125677 0.00531115)
(-0.000187323 -0.000338993 0.00440285)
(0.000313475 -0.000116581 0.00524958)
(-0.000875692 0.000247515 0.00406981)
(-0.000191756 -0.000176226 0.00660251)
(-3.08296e-05 -9.62223e-05 0.0112614)
(0.000169923 -0.000328148 0.0108516)
(-4.35398e-05 -0.000575231 0.010636)
(-2.64457e-05 -0.000749148 0.0106845)
(-0.000168065 -5.22914e-05 0.011096)
(1.91873e-06 -0.000323835 0.0109173)
(-0.000276338 -0.000544664 0.0109381)
(-0.000232098 -0.00091798 0.0114182)
(-0.000263579 -8.53693e-05 0.0108986)
(-0.000151391 -0.000273054 0.0110584)
(-0.000541098 -0.000173874 0.0113085)
(-0.000165422 -0.000590033 0.0123141)
(-0.000270192 -0.000156828 0.010811)
(-9.35413e-05 -0.000103716 0.0110953)
(-0.000581759 2.06845e-05 0.0107313)
(-0.00017591 -0.000165941 0.0122489)
(7.18394e-05 -0.000163518 0.00903698)
(0.000150387 -0.000215859 0.00899587)
(2.52504e-05 -0.000285732 0.00896845)
(1.30925e-05 -0.000369055 0.00905663)
(3.64378e-06 -0.000121213 0.00896084)
(9.50846e-05 -0.00019154 0.00902539)
(-6.25274e-05 -0.000260408 0.00908292)
(-3.88098e-05 -0.000422954 0.00934595)
(-4.14225e-05 -0.000122851 0.00884236)
(4.48901e-05 -0.000165354 0.0090312)
(-0.000158109 -0.000152324 0.00914009)
(-2.88294e-05 -0.00032234 0.00960232)
(-7.85605e-05 -0.000107235 0.00869234)
(2.64641e-05 -6.41315e-05 0.00893889)
(-0.000199649 -5.55457e-05 0.00885926)
(-3.97005e-05 -0.000121876 0.00955814)
(5.6281e-06 -8.37534e-05 0.00943536)
(3.59417e-05 -0.000119933 0.00941798)
(-9.08281e-08 -0.000148511 0.00939743)
(1.68516e-05 -0.000189437 0.00943938)
(-2.61836e-05 -7.29277e-05 0.0094003)
(9.62684e-06 -0.000111548 0.00942308)
(-3.93471e-05 -0.000134003 0.00942626)
(2.23128e-06 -0.000203144 0.0095377)
(-5.54681e-05 -5.89236e-05 0.00932638)
(-1.71807e-05 -8.061e-05 0.00939141)
(-8.31024e-05 -7.61672e-05 0.00940131)
(-8.20372e-07 -0.000144921 0.00959532)
(-7.07588e-05 -5.63503e-05 0.00922517)
(-3.2249e-05 -3.93225e-05 0.0093099)
(-0.000108198 -3.28247e-05 0.0092662)
(-9.07416e-06 -5.31805e-05 0.00954236)
(1.09769e-05 -5.20956e-05 0.00934586)
(2.47718e-05 -6.49035e-05 0.0093769)
(1.02146e-05 -7.52024e-05 0.00938856)
(2.09696e-05 -9.41963e-05 0.00941659)
(-3.77047e-06 -4.61296e-05 0.00929688)
(1.35545e-05 -5.97422e-05 0.00935149)
(-6.70068e-06 -6.82137e-05 0.00937818)
(1.64458e-05 -9.79418e-05 0.00943844)
(-1.69119e-05 -3.88052e-05 0.00921541)
(2.07318e-06 -4.44117e-05 0.00928909)
(-2.55588e-05 -4.37983e-05 0.00932028)
(1.31959e-05 -7.23591e-05 0.00941709)
(-2.79231e-05 -3.11031e-05 0.00909781)
(-8.16973e-06 -2.06476e-05 0.00917609)
(-3.88284e-05 -1.94136e-05 0.00918991)
(8.08435e-06 -2.7243e-05 0.00931956)
(7.05405e-06 -2.78327e-05 0.00934601)
(1.48944e-05 -3.41098e-05 0.00937815)
(1.14192e-05 -3.85997e-05 0.00939211)
(1.91096e-05 -4.77493e-05 0.00940755)
(-5.53855e-07 -2.46674e-05 0.00929531)
(9.09851e-06 -3.11542e-05 0.00933974)
(3.55426e-06 -3.44608e-05 0.00936289)
(1.7052e-05 -4.78579e-05 0.0093937)
(-7.82156e-06 -1.97467e-05 0.0092154)
(2.76447e-06 -2.25097e-05 0.00926705)
(-5.40476e-06 -2.27788e-05 0.00929334)
(1.46509e-05 -3.53867e-05 0.00934059)
(-1.40527e-05 -1.55041e-05 0.00910328)
(-3.75708e-06 -1.04577e-05 0.00915149)
(-1.28076e-05 -9.67129e-06 0.00916982)
(1.14034e-05 -1.30158e-05 0.00922871)
(5.97705e-06 -1.51945e-05 0.00933931)
(1.07164e-05 -1.81655e-05 0.00937375)
(1.08612e-05 -2.04905e-05 0.00938997)
(1.57561e-05 -2.50521e-05 0.00940006)
(2.01493e-06 -1.33493e-05 0.00928546)
(7.50253e-06 -1.63902e-05 0.00932805)
(6.82653e-06 -1.78559e-05 0.00935165)
(1.45172e-05 -2.42274e-05 0.00937051)
(-1.86378e-06 -1.02976e-05 0.00920363)
(4.03357e-06 -1.14808e-05 0.00924937)
(2.28684e-06 -1.16109e-05 0.00927611)
(1.28214e-05 -1.76215e-05 0.00930331)
(-5.52929e-06 -7.35766e-06 0.00909042)
(1.60757e-07 -4.7892e-06 0.00913008)
(-1.78111e-06 -4.3168e-06 0.00915211)
(1.07096e-05 -6.15378e-06 0.00918334)
(5.00299e-06 -8.31297e-06 0.00933508)
(8.07774e-06 -9.85322e-06 0.0093698)
(9.21853e-06 -1.1288e-05 0.00938693)
(1.22677e-05 -1.36403e-05 0.0093947)
(2.77775e-06 -7.13311e-06 0.00927977)
(6.09996e-06 -8.68108e-06 0.00932049)
(6.99176e-06 -9.5932e-06 0.00934433)
(1.14209e-05 -1.26499e-05 0.00935795)
(5.3933e-07 -5.09767e-06 0.00919713)
(3.98516e-06 -5.75726e-06 0.00923899)
(4.54088e-06 -5.99564e-06 0.00926575)
(1.02857e-05 -8.9404e-06 0.00928428)
(-1.67362e-06 -3.18554e-06 0.00908382)
(1.59017e-06 -1.97582e-06 0.00911813)
(2.16603e-06 -1.75907e-06 0.00914087)
(8.89267e-06 -2.89048e-06 0.00916031)
(4.14219e-06 -4.58658e-06 0.00933148)
(6.18705e-06 -5.48169e-06 0.00936634)
(7.39398e-06 -6.4142e-06 0.00938393)
(9.2758e-06 -7.73893e-06 0.00939098)
(2.8094e-06 -3.81781e-06 0.00927534)
(4.91271e-06 -4.62638e-06 0.00931515)
(6.05927e-06 -5.27812e-06 0.00933917)
(8.64272e-06 -6.89692e-06 0.0093508)
(1.47719e-06 -2.43258e-06 0.00919217)
(3.56924e-06 -2.80279e-06 0.00923217)
(4.62627e-06 -3.11345e-06 0.00925907)
(7.87744e-06 -4.68933e-06 0.00927402)
(7.54761e-08 -1.15619e-06 0.00907872)
(2.05851e-06 -6.0332e-07 0.00911049)
(3.18121e-06 -5.74015e-07 0.00913361)
(6.93941e-06 -1.35973e-06 0.00914812)
(3.31023e-06 -2.56595e-06 0.00932873)
(4.71148e-06 -3.12977e-06 0.00936368)
(5.70976e-06 -3.77988e-06 0.00938157)
(6.88222e-06 -4.5417e-06 0.00938851)
(2.46283e-06 -2.05764e-06 0.00927212)
(3.85565e-06 -2.51767e-06 0.00931151)
(4.88767e-06 -2.99823e-06 0.00933566)
(6.42449e-06 -3.88025e-06 0.00934665)
(1.63128e-06 -1.09303e-06 0.00918867)
(2.97492e-06 -1.3288e-06 0.00922775)
(4.00956e-06 -1.61939e-06 0.00925475)
(5.89421e-06 -2.52593e-06 0.00926838)
(7.18124e-07 -2.33035e-07 0.00907518)
(1.99498e-06 6.97237e-09 0.00910568)
(3.0926e-06 -5.62545e-08 0.00912895)
(5.25385e-06 -6.27441e-07 0.00914156)
(2.56228e-06 -1.46491e-06 0.00932665)
(3.53789e-06 -1.82879e-06 0.00936169)
(4.2821e-06 -2.28747e-06 0.00937981)
(5.02571e-06 -2.76473e-06 0.00938688)
(2.00774e-06 -1.12033e-06 0.00926978)
(2.96038e-06 -1.39519e-06 0.009309)
(3.75451e-06 -1.74663e-06 0.0093333)
(4.69333e-06 -2.26761e-06 0.00934414)
(1.46862e-06 -4.43586e-07 0.00918616)
(2.37164e-06 -5.98339e-07 0.00922484)
(3.19781e-06 -8.45704e-07 0.00925194)
(4.32377e-06 -1.40646e-06 0.00926511)
(8.59441e-07 1.43126e-07 0.00907266)
(1.72253e-06 2.42098e-07 0.00910258)
(2.59805e-06 1.39671e-07 0.00912596)
(3.88049e-06 -2.84794e-07 0.00913786)
(1.92103e-06 -8.53177e-07 0.00932511)
(2.60126e-06 -1.09032e-06 0.00936025)
(3.12816e-06 -1.41206e-06 0.00937854)
(3.60217e-06 -1.72988e-06 0.00938579)
(1.55266e-06 -6.14908e-07 0.00926809)
(2.2121e-06 -7.84674e-07 0.00930727)
(2.77965e-06 -1.03692e-06 0.00933168)
(3.36302e-06 -1.36962e-06 0.0093426)
(1.19555e-06 -1.41634e-07 0.00918439)
(1.81718e-06 -2.4627e-07 0.00922289)
(2.41791e-06 -4.40996e-07 0.00925007)
(3.10494e-06 -8.09891e-07 0.00926319)
(7.84516e-07 2.58697e-07 0.00907088)
(1.38261e-06 2.95141e-07 0.00910056)
(2.02046e-06 1.88506e-07 0.009124)
(2.79732e-06 -1.25852e-07 0.00913572)
(1.38507e-06 -5.00241e-07 0.00932402)
(1.84976e-06 -6.55576e-07 0.00935923)
(2.20856e-06 -8.76343e-07 0.00937766)
(2.50839e-06 -1.09134e-06 0.00938507)
(1.14164e-06 -3.38146e-07 0.0092669)
(1.59095e-06 -4.43402e-07 0.00930609)
(1.978e-06 -6.19732e-07 0.0093306)
(2.3408e-06 -8.39626e-07 0.00934163)
(9.05485e-07 -1.33503e-08 0.00918314)
(1.32901e-06 -8.17347e-08 0.00922159)
(1.74154e-06 -2.27519e-07 0.00924884)
(2.16352e-06 -4.75834e-07 0.00926202)
(6.3007e-07 2.56329e-07 0.00906965)
(1.04081e-06 2.67211e-07 0.00909922)
(1.47869e-06 1.73361e-07 0.00912272)
(1.95336e-06 -5.31796e-08 0.00913446)
(9.42913e-07 -2.7669e-07 0.00932327)
(1.24542e-06 -3.7637e-07 0.00935854)
(1.47657e-06 -5.20882e-07 0.00937706)
(1.65971e-06 -6.62114e-07 0.0093846)
(7.8815e-07 -1.74301e-07 0.0092661)
(1.08041e-06 -2.38077e-07 0.00930531)
(1.32912e-06 -3.55514e-07 0.00932989)
(1.54834e-06 -4.98467e-07 0.00934103)
(6.37918e-07 3.78702e-08 0.00918231)
(9.13837e-07 -6.72706e-09 0.00922075)
(1.17911e-06 -1.08899e-07 0.00924805)
(1.43191e-06 -2.72341e-07 0.00926132)
(4.61277e-07 2.11168e-07 0.00906883)
(7.30208e-07 2.09279e-07 0.00909836)
(1.01198e-06 1.36261e-07 0.00912191)
(1.29502e-06 -1.89373e-08 0.00913371)
(5.92991e-07 -1.0831e-07 0.0093228)
(7.70397e-07 -1.67445e-07 0.00935811)
(9.03727e-07 -2.52013e-07 0.0093767)
(1.00475e-06 -3.36876e-07 0.00938431)
(5.04481e-07 -5.20687e-08 0.0092656)
(6.75611e-07 -9.04463e-08 0.00930483)
(8.17925e-07 -1.62423e-07 0.00932946)
(9.3736e-07 -2.49483e-07 0.00934068)
(4.18873e-07 6.79791e-08 0.00918179)
(5.80554e-07 3.71054e-08 0.00922024)
(7.31876e-07 -2.96129e-08 0.00924759)
(8.68122e-07 -1.30271e-07 0.00926091)
(3.17997e-07 1.65742e-07 0.00906832)
(4.76635e-07 1.54447e-07 0.00909785)
(6.37181e-07 1.00654e-07 0.00912143)
(7.88994e-07 1.21197e-09 0.00913328)
(3.39711e-07 3.01661e-08 0.00932255)
(4.21108e-07 -2.01436e-09 0.00935789)
(4.84339e-07 -4.14617e-08 0.00937652)
(5.29252e-07 -8.19601e-08 0.00938419)
(2.98954e-07 5.27349e-08 0.00926534)
(3.78398e-07 2.69327e-08 0.00930459)
(4.44434e-07 -1.26607e-08 0.00932926)
(4.95641e-07 -5.90297e-08 0.00934052)
(2.60662e-07 1.01074e-07 0.00918152)
(3.36765e-07 7.49869e-08 0.00921998)
(4.06244e-07 3.28266e-08 0.00924736)
(4.63175e-07 -2.38723e-08 0.00926074)
(2.19869e-07 1.42429e-07 0.00906805)
(2.95443e-07 1.20256e-07 0.00909759)
(3.68243e-07 7.86329e-08 0.00912119)
(4.30209e-07 1.7357e-08 0.0091331)
(0.00108852 0.002295 0.0168017)
(-0.00170004 0.00281826 0.0263812)
(-0.000822858 0.000409335 0.0103601)
(0.000795401 0.000691869 0.0179952)
(0.000423546 0.00129239 0.00577161)
(-0.000620815 0.00136588 0.0175884)
(-0.00032622 0.0018267 0.0121812)
(0.000401545 0.00206318 0.0147981)
(-0.00188099 0.0022539 0.0175674)
(-0.00403795 0.00264582 0.0154327)
(-0.000879757 0.00171002 0.0108923)
(-0.00144633 0.00151164 0.0160537)
(-0.00108244 -0.000782525 0.0131367)