/*--------------------------------*- C++ -*----------------------------------*\
| =========                 |                                                 |
| \\      /  F ield         | OpenFOAM: The Open Source CFD Toolbox           |
|  \\    /   O peration     | Version:  2506                                  |
|   \\  /    A nd           | Website:  www.openfoam.com                      |
|    \\/     M anipulation  |                                                 |
\*---------------------------------------------------------------------------*/
FoamFile
{
    version     2.0;
    format      ascii;
    arch        "LSB;label=32;scalar=64";
    class       volVectorField;
    location    "0.04";
    object      Us;
}
// * * * * * * * * * * * * * * * * * * * * * * * * * * * * * * * * * * * * * //

dimensions      [0 1 -1 0 0 0 0];

internalField   nonuniform List<vector> 
1152
(
(6.01224e-05 7.07294e-05 9.34195e-05)
(9.12151e-05 7.55731e-06 0.000136267)
(0.000142108 -0.000125505 0.000219308)
(0.000129473 -0.000136251 0.000236015)
(8.63395e-05 1.18125e-05 0.000101915)
(7.82251e-05 -7.56444e-05 9.21428e-05)
(1.47323e-05 -9.28552e-05 0.00012779)
(-3.55783e-05 -0.000223904 0.00013702)
(-1.92854e-05 -5.49587e-05 8.70439e-05)
(-2.08261e-05 2.6695e-05 0.000105327)
(4.65549e-05 3.62028e-05 0.000100041)
(-0.000121927 0.000126718 0.000147407)
(-0.000140933 5.32233e-05 0.000115291)
(-0.000341347 -9.99981e-05 8.18851e-05)
(-0.00021509 3.5541e-06 0.000112603)
(-3.43639e-05 -5.49624e-05 0.000115741)
(9.79114e-05 -7.23493e-05 0.000452304)
(-9.56068e-05 -9.3497e-05 0.000295278)
(9.87562e-05 -0.000113653 0.000472328)
(-9.67493e-05 -2.66908e-05 0.000629273)
(3.87314e-05 -3.18557e-05 0.000431441)
(-0.000102067 -0.000273674 0.000352955)
(1.57463e-05 -0.000113993 0.000376942)
(-0.000100494 0.000112114 0.000482823)
(-6.03042e-05 -8.73555e-05 0.000382655)
(-6.32881e-05 -0.000161487 0.000353656)
(-0.00014801 -6.96274e-05 0.000299948)
(-0.000118192 -1.99831e-05 0.000449754)
(-0.000107094 -0.000170215 0.000381687)
(-0.000109854 -4.51306e-06 0.000229336)
(-0.000279975 -4.36274e-05 0.000301801)
(-2.92022e-05 -0.000100617 0.000269316)
(6.45718e-05 0.000161988 0.000617297)
(0.000135063 0.00010405 0.000800788)
(-6.95674e-05 -4.80312e-05 0.000679424)
(-0.000141781 -0.000140398 0.00070024)
(-4.42831e-05 7.10516e-05 0.000500392)
(3.44717e-05 -0.000222155 0.000607383)
(-3.14653e-06 -0.000144693 0.000444035)
(-7.45438e-06 -0.000490063 0.000858413)
(-6.69803e-05 -0.000135268 0.000572041)
(-8.88283e-05 -0.000240374 0.000614227)
(-8.96045e-05 -0.000334605 0.000632074)
(0.000100053 -0.000213193 0.000600832)
(8.0877e-06 1.76257e-05 0.000614729)
(7.43801e-05 -0.000278974 0.000428916)
(-4.62794e-05 -0.000427502 0.000399933)
(0.000126005 -0.000337904 0.000466902)
(0.000138724 8.57713e-05 0.000735696)
(0.00010263 6.28599e-05 0.000668237)
(0.000142756 0.000191081 0.00071921)
(0.000195148 -0.00015136 0.000720249)
(9.66824e-05 -3.05905e-05 0.000697358)
(9.79686e-05 -0.000102716 0.00066551)
(0.000108955 -8.199e-05 0.000555516)
(4.75837e-05 -0.000423161 0.000875949)
(0.000138865 2.77269e-06 0.000790284)
(0.000113941 -0.000139686 0.000700764)
(9.40718e-05 -0.000241612 0.000676568)
(5.62271e-06 -0.000347803 0.000750999)
(0.000239905 7.68187e-05 0.000838184)
(0.00020802 -0.000145017 0.000682683)
(0.00019086 -0.000352907 0.000616267)
(9.70226e-05 -0.000326308 0.000691887)
(9.83936e-05 1.42401e-05 0.000814186)
(0.000182921 -4.02465e-05 0.000712487)
(-1.61748e-05 -0.000119079 0.000940007)
(0.000265431 -4.45047e-05 0.000601742)
(6.7275e-05 -6.47571e-06 0.000834808)
(7.03701e-05 -9.8478e-05 0.000875114)
(6.09782e-05 -0.000166968 0.000681054)
(6.23998e-05 -0.000239976 0.000754004)
(6.27034e-05 7.83757e-05 0.000922894)
(0.000106106 -8.30734e-05 0.000832912)
(0.000131143 -0.000151409 0.000742972)
(0.00011551 -0.000164485 0.000744895)
(0.000149216 7.10539e-05 0.000963019)
(0.000178675 -0.000127638 0.000729028)
(0.000262787 -0.000145159 0.000731434)
(0.000161118 -8.65245e-05 0.000771052)
(4.88065e-05 3.92125e-05 0.000913234)
(4.8652e-07 1.83463e-05 0.000794373)
(9.32982e-05 4.63535e-05 0.000796896)
(0.000105739 1.80683e-05 0.000631889)
(-0.000121796 3.72218e-05 0.000925624)
(-7.94728e-05 -2.79297e-05 0.000923658)
(1.17236e-06 -3.33211e-05 0.000703502)
(2.59264e-05 -2.58397e-05 0.000706294)
(-6.75993e-05 6.66557e-05 0.000847519)
(-4.48664e-05 -6.68586e-05 0.000897687)
(1.67007e-06 -8.13198e-05 0.000801628)
(4.66124e-06 -0.000105851 0.000733805)
(3.51667e-05 1.74436e-05 0.000770105)
(7.51533e-05 -0.000136419 0.000795968)
(1.66531e-05 -0.000136385 0.000819256)
(1.38206e-05 -5.5547e-05 0.000751828)
(3.54007e-05 6.30686e-05 0.000939752)
(-7.0286e-05 6.00631e-05 0.000990486)
(-0.000102151 2.46169e-05 0.000641971)
(9.29978e-05 0.000129207 0.000581868)
(-0.000255011 0.000212905 0.00110039)
(-0.000213065 4.51127e-05 0.000719131)
(-0.000138896 -1.08496e-06 0.000769149)
(-4.42586e-05 7.51279e-05 0.000698017)
(-0.000265045 0.000169998 0.000927635)
(-0.000228532 2.6197e-05 0.000859566)
(-0.000148311 -3.4935e-05 0.000794652)
(-0.000173339 -5.89409e-05 0.000792817)
(-0.00015333 0.000174619 0.000732902)
(-0.000264184 -3.76418e-05 0.000785635)
(-0.000265293 -7.03967e-05 0.000814895)
(0.000787017 0.000768516 -0.000348775)
(0 0 0)
(0 0 0)
(0 0 0)
(0 0 0)
(0 0 0)
(0 0 0)
(0 0 0)
(0 0 0)
(0 0 0)
(0 0 0)
(0 0 0)
(0 0 0)
(0 0 0)
(0 0 0)
(0 0 0)
(0 0 0)
(0 0 0)
(0 0 0)
(0 0 0)
(0 0 0)
(0 0 0)
(0 0 0)
(0 0 0)
(0 0 0)
(0 0 0)
(0 0 0)
(0 0 0)
(0 0 0)
(0 0 0)
(0 0 0)
(0 0 0)
(0 0 0)
(0 0 0)
(0 0 0)
(0 0 0)
(0 0 0)
(0 0 0)
(0 0 0)
(0 0 0)
(0 0 0)
(0 0 0)
(0 0 0)
(0 0 0)
(0 0 0)
(0 0 0)
(0 0 0)
(0 0 0)
(0 0 0)
(0 0 0)
(0 0 0)
(0 0 0)
(0 0 0)
(0 0 0)
(0 0 0)
(0 0 0)
(0 0 0)
(0 0 0)
(0 0 0)
(0 0 0)
(0 0 0)
(0 0 0)
(0 0 0)
(0 0 0)
(0 0 0)
(0 0 0)
(0 0 0)
(0 0 0)
(0 0 0)
(0 0 0)
(0 0 0)
(0 0 0)
(0 0 0)
(0 0 0)
(0 0 0)
(0 0 0)
(0 0 0)
(0 0 0)
(0 0 0)
(0 0 0)
(0 0 0)
(0 0 0)
(0 0 0)
(0 0 0)
(0 0 0)
(0 0 0)
(0 0 0)
(0 0 0)
(0 0 0)
(0 0 0)
(0 0 0)
(0 0 0)
(0 0 0)
(0 0 0)
(0 0 0)
(0 0 0)
(0 0 0)
(0 0 0)
(0 0 0)
(0 0 0)
(0 0 0)
(0 0 0)
(0 0 0)
(0 0 0)
(0 0 0)
(0 0 0)
(0 0 0)
(0 0 0)
(0 0 0)
(0 0 0)
(0 0 0)
(0 0 0)
(0 0 0)
(0 0 0)
(0 0 0)
(0 0 0)
(0 0 0)
(0 0 0)
(0 0 0)
(0 0 0)
(0 0 0)
(0 0 0)
(0 0 0)
(0 0 0)
(0 0 0)
(0 0 0)
(0 0 0)
(0 0 0)
(0 0 0)
(0 0 0)
(0 0 0)
(0 0 0)
(0 0 0)
(0 0 0)
(0 0 0)
(0 0 0)
(0 0 0)
(0 0 0)
(0 0 0)
(0 0 0)
(0 0 0)
(0 0 0)
(0 0 0)
(0 0 0)
(0 0 0)
(0 0 0)
(0 0 0)
(0 0 0)
(0 0 0)
(0 0 0)
(0 0 0)
(0 0 0)
(0 0 0)
(0 0 0)
(0 0 0)
(0 0 0)
(0 0 0)
(0 0 0)
(0 0 0)
(0 0 0)
(0 0 0)
(0 0 0)
(0 0 0)
(0 0 0)
(0 0 0)
(0 0 0)
(0 0 0)
(0 0 0)
(0 0 0)
(0 0 0)
(0 0 0)
(0 0 0)
(0 0 0)
(0 0 0)
(0 0 0)
(0 0 0)
(0 0 0)
(0 0 0)
(0 0 0)
(0 0 0)
(0 0 0)
(0 0 0)
(0 0 0)
(0 0 0)
(0 0 0)
(0 0 0)
(0 0 0)
(0 0 0)
(0 0 0)
(0 0 0)
(0 0 0)
(0 0 0)
(0 0 0)
(0 0 0)
(0 0 0)
(0 0 0)
(0 0 0)
(0 0 0)
(0 0 0)
(0 0 0)
(0 0 0)
(0 0 0)
(0 0 0)
(0 0 0)
(0 0 0)
(0 0 0)
(0 0 0)
(0 0 0)
(0 0 0)
(0 0 0)
(0 0 0)
(0 0 0)
(0 0 0)
(0 0 0)
(0 0 0)
(0 0 0)
(0 0 0)
(0 0 0)
(0 0 0)
(0 0 0)
(0 0 0)
(0 0 0)
(0 0 0)
(0 0 0)
(0 0 0)
(0 0 0)
(0 0 0)
(0 0 0)
(0 0 0)
(0 0 0)
(0 0 0)
(0 0 0)
(0 0 0)
(0 0 0)
(0 0 0)
(0 0 0)
(0 0 0)
(0 0 0)
(0 0 0)
(0 0 0)
(0 0 0)
(0 0 0)
(0 0 0)
(0 0 0)
(0 0 0)
(0 0 0)
(0 0 0)
(0 0 0)
(0 0 0)
(0 0 0)
(0 0 0)
(0 0 0)
(0 0 0)
(0 0 0)
(0 0 0)
(0 0 0)
(0 0 0)
(0 0 0)
(0 0 0)
(0 0 0)
(0 0 0)
(0 0 0)
(0 0 0)
(0 0 0)
(0 0 0)
(0 0 0)
(0 0 0)
(0 0 0)
(0 0 0)
(0 0 0)
(0 0 0)
(0 0 0)
(0 0 0)
(-0.000254374 0.000527042 0.000185076)
(-9.93234e-05 -8.27785e-05 8.76544e-05)
(-0.000435805 -0.000105789 2.4694e-05)
(-5.97843e-05 -0.000194427 0.000178271)
(-0.000117235 0.000200807 0.00015089)
(3.5871e-05 -7.72005e-05 0.000105759)
(3.35907e-05 -0.000187455 0.000126106)
(9.28597e-05 -0.00019267 0.000112383)
(-8.01948e-05 5.08634e-05 0.000117553)
(-1.18454e-06 -1.02461e-06 4.83482e-05)
(-4.97241e-05 8.66498e-06 0.000164092)
(1.24874e-05 -0.000174295 7.97447e-05)
(-0.000183587 -0.00015321 1.44902e-05)
(8.85877e-05 3.12269e-05 9.20801e-05)
(-9.21915e-05 4.98603e-05 9.77386e-05)
(-1.65516e-05 -6.19649e-05 5.02326e-05)
(-0.000173916 0.000141347 0.000340969)
(-0.000128241 -5.43368e-05 0.00028545)
(-0.000169295 -0.000143858 0.000270736)
(1.733e-05 -0.000263377 0.000387614)
(-1.32149e-05 0.000191722 0.00052948)
(-4.23214e-05 6.7722e-05 0.000362614)
(0.000190376 -1.94316e-05 0.000575421)
(0.000131816 -0.000192991 0.000401222)
(-0.00026819 4.48558e-05 0.000408952)
(-0.00020863 6.50458e-05 0.000214161)
(4.48661e-05 -0.000126377 0.000423376)
(-0.000135586 -0.00028764 0.000157871)
(-7.50304e-05 -3.30928e-05 -7.50561e-05)
(1.84658e-05 -5.58263e-05 0.000194961)
(0.000103851 2.51231e-05 0.00032764)
(9.95755e-05 -1.88477e-05 0.000195036)
(-9.60852e-05 0.000295041 0.000522925)
(2.1659e-05 -0.000119704 0.000353255)
(-0.000134807 -0.000332167 0.000452102)
(6.81061e-05 -0.000294578 0.0005134)
(-8.93049e-05 0.000215705 0.000429772)
(-5.79503e-05 -2.04545e-05 0.000379716)
(6.03002e-06 -0.000188623 0.000491886)
(0.00011498 -0.000287077 0.000549658)
(8.84707e-06 0.000189459 0.000388488)
(-2.00793e-06 3.77567e-05 0.000233001)
(0.000301506 -6.13485e-05 0.000384618)
(-5.30764e-05 -0.000232811 0.000343842)
(-3.21111e-05 0.000155139 0.000132802)
(-0.00011525 2.1828e-06 0.000205862)
(0.000302307 6.15238e-05 0.000452059)
(6.58202e-05 -1.77311e-05 0.000368716)
(7.56926e-05 2.61597e-06 0.000667369)
(7.02024e-05 -0.000254178 0.000613868)
(0.000245706 -0.000332821 0.000460863)
(0.000226973 -0.000340268 0.000718904)
(4.875e-05 -2.48981e-05 0.000417727)
(0.000156584 -0.000200569 0.000493759)
(0.000441684 -0.000395467 -0.000118112)
(0.000375984 -9.13889e-05 0.000792784)
(-9.99075e-05 -7.06249e-05 0.000457385)
(-0.000106377 -3.41412e-05 0.000358418)
(6.30606e-05 -0.000272479 0.000216187)
(9.32517e-05 -0.00019667 0.00040203)
(-2.72001e-05 -3.72167e-05 0.000264909)
(-6.16329e-05 -8.82251e-05 0.000158664)
(0.000266233 -4.55169e-05 0.000208214)
(0.000189742 -3.83904e-05 0.000681481)
(8.99201e-05 1.44667e-05 0.00069445)
(-1.97053e-05 -0.00013402 0.000688573)
(0.000133458 -0.000210603 0.000703962)
(8.02235e-05 -3.36388e-05 0.000786987)
(5.34681e-05 -2.51601e-06 0.000562946)
(4.21738e-06 -0.000131972 0.000534535)
(2.92876e-06 -0.000118518 0.000515635)
(7.41414e-05 -0.000133317 0.000670744)
(-0.00021095 -0.000133842 0.000480798)
(5.45157e-06 -7.40292e-05 0.000284776)
(0.000254346 2.36519e-05 0.000304615)
(-2.82038e-05 -0.000102129 0.000435606)
(-1.78654e-05 1.84355e-05 0.000542939)
(0.000174291 9.01376e-05 0.000386294)
(5.11228e-05 6.41182e-05 0.000124789)
(3.44528e-05 -4.73412e-05 0.000277693)
(1.23747e-05 -4.23932e-05 0.000782622)
(0.00014184 -1.41618e-05 0.000858988)
(1.76585e-05 -3.08469e-05 0.000818361)
(-5.47415e-05 0.000172166 0.000763273)
(-0.000202948 -0.000144408 0.000598056)
(6.56749e-05 -0.000136542 0.000694996)
(8.13046e-05 6.73036e-05 0.000581722)
(-0.000316327 0.000243092 0.000618928)
(-0.00010689 -1.98914e-05 0.000670761)
(6.06742e-05 -4.33193e-05 0.000292944)
(-0.000166209 0.000249072 0.000200425)
(-0.000354045 0.000164011 0.000133626)
(6.50876e-05 2.08031e-05 0.000429033)
(0.000246276 1.38885e-05 0.000220798)
(-7.14117e-06 0.000231952 0.000854152)
(-0.000206932 -0.000110813 0.000505904)
(-0.0003588 0.000125899 0.000744538)
(-0.000147661 0.000163851 0.00084206)
(0.000306999 0.000369953 0.000391048)
(-0.000184125 0.000300836 0.000487141)
(-0.00094779 -0.000227641 0.000489899)
(-0.000304966 0.00018478 0.000747001)
(-0.000147596 -8.6244e-05 0.000906718)
(-0.000429191 0.000550366 0.00057716)
(-0.00052637 -0.000579806 0.000530458)
(-0.000108793 -0.000385245 0.000328968)
(-1.28649e-05 -0.000150172 0.000694629)
(-0.000289483 4.33394e-05 -0.000367089)
(0.000346432 0.000152501 0.000436785)
(0.000503016 -8.76612e-05 0.00022785)
(0.00406254 0.00113435 0.00212634)
(3.37562e-05 7.03337e-05 0.000352357)
(0 0 0)
(0 0 0)
(0 0 0)
(0 0 0)
(0 0 0)
(0 0 0)
(0 0 0)
(0 0 0)
(0 0 0)
(0 0 0)
(0 0 0)
(0 0 0)
(0 0 0)
(0 0 0)
(0 0 0)
(0 0 0)
(0 0 0)
(0 0 0)
(0 0 0)
(0 0 0)
(0 0 0)
(0 0 0)
(0 0 0)
(0 0 0)
(0 0 0)
(0 0 0)
(0 0 0)
(0 0 0)
(0 0 0)
(0 0 0)
(0 0 0)
(0 0 0)
(0 0 0)
(0 0 0)
(0 0 0)
(0 0 0)
(0 0 0)
(0 0 0)
(0 0 0)
(0 0 0)
(0 0 0)
(0 0 0)
(0 0 0)
(0 0 0)
(0 0 0)
(0 0 0)
(0 0 0)
(0 0 0)
(0 0 0)
(0 0 0)
(0 0 0)
(0 0 0)
(0 0 0)
(0 0 0)
(0 0 0)
(0 0 0)
(0 0 0)
(0 0 0)
(0 0 0)
(0 0 0)
(0 0 0)
(0 0 0)
(0 0 0)
(0 0 0)
(0 0 0)
(0 0 0)
(0 0 0)
(0 0 0)
(0 0 0)
(0 0 0)
(0 0 0)
(0 0 0)
(0 0 0)
(0 0 0)
(0 0 0)
(0 0 0)
(0 0 0)
(0 0 0)
(0 0 0)
(0 0 0)
(0 0 0)
(0 0 0)
(0 0 0)
(0 0 0)
(0 0 0)
(0 0 0)
(0 0 0)
(0 0 0)
(0 0 0)
(0 0 0)
(0 0 0)
(0 0 0)
(0 0 0)
(0 0 0)
(0 0 0)
(0 0 0)
(0 0 0)
(0 0 0)
(0 0 0)
(0 0 0)
(0 0 0)
(0 0 0)
(0 0 0)
(0 0 0)
(0 0 0)
(0 0 0)
(0 0 0)
(0 0 0)
(0 0 0)
(0 0 0)
(0 0 0)
(0 0 0)
(0 0 0)
(0 0 0)
(0 0 0)
(0 0 0)
(0 0 0)
(0 0 0)
(0 0 0)
(0 0 0)
(0 0 0)
(0 0 0)
(0 0 0)
(0 0 0)
(0 0 0)
(0 0 0)
(0 0 0)
(0 0 0)
(0 0 0)
(0 0 0)
(0 0 0)
(0 0 0)
(0 0 0)
(0 0 0)
(0 0 0)
(0 0 0)
(0 0 0)
(0 0 0)
(0 0 0)
(0 0 0)
(0 0 0)
(0 0 0)
(0 0 0)
(0 0 0)
(0 0 0)
(0 0 0)
(0 0 0)
(0 0 0)
(0 0 0)
(0 0 0)
(0 0 0)
(0 0 0)
(0 0 0)
(0 0 0)
(0 0 0)
(0 0 0)
(0 0 0)
(0 0 0)
(0 0 0)
(0 0 0)
(0 0 0)
(0 0 0)
(0 0 0)
(0 0 0)
(0 0 0)
(0 0 0)
(0 0 0)
(0 0 0)
(0 0 0)
(0 0 0)
(0 0 0)
(0 0 0)
(0 0 0)
(0 0 0)
(0 0 0)
(0 0 0)
(0 0 0)
(0 0 0)
(0 0 0)
(0 0 0)
(0 0 0)
(0 0 0)
(0 0 0)
(0 0 0)
(0 0 0)
(0 0 0)
(0 0 0)
(0 0 0)
(0 0 0)
(0 0 0)
(0 0 0)
(0 0 0)
(0 0 0)
(0 0 0)
(0 0 0)
(0 0 0)
(0 0 0)
(0 0 0)
(0 0 0)
(0 0 0)
(0 0 0)
(0 0 0)
(0 0 0)
(0 0 0)
(0 0 0)
(0 0 0)
(0 0 0)
(0 0 0)
(0 0 0)
(0 0 0)
(0 0 0)
(0 0 0)
(0 0 0)
(0 0 0)
(0 0 0)
(0 0 0)
(0 0 0)
(0 0 0)
(0 0 0)
(0 0 0)
(0 0 0)
(0 0 0)
(0 0 0)
(0 0 0)
(0 0 0)
(0 0 0)
(0 0 0)
(0 0 0)
(0 0 0)
(0 0 0)
(0 0 0)
(0 0 0)
(0 0 0)
(0 0 0)
(0 0 0)
(0 0 0)
(0 0 0)
(0 0 0)
(0 0 0)
(0 0 0)
(0 0 0)
(0 0 0)
(0 0 0)
(0 0 0)
(0 0 0)
(0 0 0)
(0 0 0)
(0 0 0)
(0 0 0)
(0 0 0)
(0 0 0)
(0 0 0)
(0 0 0)
(0 0 0)
(0 0 0)
(0 0 0)
(0 0 0)
(0 0 0)
(0 0 0)
(0 0 0)
(0 0 0)
(0 0 0)
(0 0 0)
(0 0 0)
(0 0 0)
(0 0 0)
(0 0 0)
(0 0 0)
(0 0 0)
(0 0 0)
(0 0 0)
(0 0 0)
(3.53587e-05 5.72293e-05 0.00016752)
(2.93399e-05 -3.9841e-05 0.000127519)
(0.000110694 -1.28457e-05 0.000186352)
(0.000122368 2.0184e-05 0.000115964)
(0.000173145 0.00038091 6.75449e-05)
(5.42815e-05 -4.33332e-05 0.000215615)
(4.90671e-05 -1.52375e-05 0.000109825)
(3.50649e-05 2.39147e-05 0.000102487)
(-5.38941e-05 0.000276668 0.000124693)
(-0.000560202 0.00068935 -0.000458316)
(-0.000147678 0.000215318 -6.18437e-05)
(-0.000115725 0.000114236 6.39267e-05)
(-8.12242e-05 -0.000213493 5.12481e-05)
(-0.000150404 -5.73804e-05 0.000179189)
(4.23943e-05 7.3038e-05 -4.34638e-06)
(-9.47245e-05 0.000220626 0.000117115)
(-4.49263e-05 -0.00031189 0.000228454)
(-0.000152314 1.21672e-05 0.00038998)
(-8.86379e-06 0.00013339 0.000341371)
(0.00019723 8.41515e-05 0.000428921)
(-8.05092e-05 5.43189e-05 0.00025493)
(-0.000189968 0.000130893 0.000198753)
(8.7598e-05 0.000160567 0.000260836)
(0.000165308 0.000183039 0.000296042)
(0.000139 0.000180894 0.000506957)
(0.00018664 4.56475e-05 0.000663679)
(0.000152358 0.000219869 0.000352859)
(0.000105575 0.000134654 0.000115001)
(9.03302e-05 0.000105942 0.000197832)
(-8.15012e-05 0.000274633 0.000485977)
(0.000239948 0.000250316 0.000535502)
(5.02445e-05 6.04455e-05 0.000344948)
(0.00020685 -0.000607041 -0.000153253)
(0.000482069 -0.000248595 0.000409208)
(4.26969e-05 2.27903e-05 0.000344276)
(5.53896e-06 0.00017375 0.00068791)
(8.95828e-05 -0.000188857 0.000522494)
(0.000257878 0.000282818 0.000463674)
(9.18057e-05 5.70261e-05 0.000625794)
(-7.52283e-05 0.000116818 0.00038229)
(0.000311973 0.000100168 0.000963074)
(0.000242384 -3.9165e-05 0.000667125)
(0.000148711 -0.000254891 0.000640365)
(-0.000127801 9.64424e-05 0.000566218)
(-5.59919e-05 0.00010807 0.000519465)
(9.26742e-06 0.00045238 0.000607084)
(7.2917e-05 3.37785e-05 0.00056469)
(-0.000173846 -9.59628e-05 0.000567238)
(-8.02655e-05 -8.29586e-05 0.000606763)
(6.98389e-05 1.26167e-05 0.000534924)
(6.72892e-05 -0.000147197 0.000475309)
(0.000103028 8.52628e-05 0.000674609)
(-2.58521e-05 -0.000181396 0.000463797)
(4.71734e-05 6.47456e-05 0.000688666)
(3.86102e-05 -7.45425e-05 0.00070175)
(0.000105176 5.37935e-06 0.000633244)
(-0.000577194 6.18232e-05 0.000860916)
(0.000532311 -0.00026148 0.000475941)
(0.000148872 -0.000174851 0.000650142)
(0.000166488 2.69536e-05 0.000822582)
(-2.15022e-05 -9.6896e-05 0.00051425)
(-4.47077e-05 -7.43967e-06 0.000422223)
(3.24637e-05 1.78711e-05 0.000455364)
(0.000107213 5.37822e-05 0.000669399)
(0.000139089 -6.37692e-05 0.000671994)
(0.000220673 -3.35581e-05 0.000797673)
(6.01865e-05 -3.43967e-05 0.000884608)
(0.000172852 0.000132305 0.000792854)
(8.92913e-06 -7.38298e-06 0.00043138)
(8.64437e-05 -0.000126095 0.000639611)
(-2.78684e-06 -7.28248e-05 0.000732658)
(5.38719e-05 5.75484e-05 0.00081548)
(8.49003e-06 3.53036e-05 0.000239422)
(0.000250437 2.14893e-05 0.000556565)
(7.52869e-05 -7.89553e-05 0.000726884)
(2.01943e-05 8.8436e-05 0.000816735)
(0.000286073 0.000412429 0.000631512)
(-2.43526e-05 2.05134e-05 0.000413136)
(3.10595e-05 -7.70627e-05 0.00055322)
(-1.27016e-05 8.4678e-05 0.000712072)
(-1.87925e-05 -2.75805e-05 0.000567272)
(-8.56033e-06 -0.000128308 0.000770075)
(-1.65711e-06 -0.000251128 0.000641463)
(0.000114719 5.13771e-05 0.000857941)
(3.76667e-05 0.000111941 0.000423325)
(-4.26179e-05 -7.15158e-05 0.000745161)
(7.87224e-05 1.62631e-05 0.000892239)
(-2.85428e-05 4.17554e-05 0.000812475)
(-4.92674e-05 -2.0074e-05 0.000287554)
(-6.38462e-05 -0.000109166 0.000635103)
(-3.41055e-05 -7.56848e-05 0.000910658)
(-6.95143e-05 0.000185586 0.000824415)
(-0.000109076 -0.000138411 0.000561908)
(-0.000192949 -5.31655e-05 0.000480862)
(3.89798e-05 0.000213541 0.000631124)
(-2.50318e-05 0.000261604 0.000601149)
(-0.000590113 0.000809001 0.00066113)
(-0.000188713 5.49113e-05 0.000757402)
(0.000206862 -0.000148222 0.000561607)
(-0.000156668 0.00014361 0.000577825)
(-0.00033074 0.000337958 0.000345273)
(-0.000177659 0.000267465 0.000745207)
(-8.09078e-05 -0.000501582 0.000831307)
(-0.000151208 3.52711e-06 0.000754791)
(-0.000760213 -0.00167223 -0.00105852)
(-0.00122099 -0.000324198 0.000606793)
(0.000320563 0.00145883 0.000626113)
(9.39341e-06 0.000102409 0.000937637)
(-0.000357075 -0.000185932 0.000525172)
(-0.000510431 -9.59343e-05 0.000436331)
(-0.000746588 -8.29777e-06 0.000594641)
(-0.000821482 0.000193628 0.000538123)
(0 0 0)
(0 0 0)
(0 0 0)
(0 0 0)
(0 0 0)
(0 0 0)
(0 0 0)
(0 0 0)
(0 0 0)
(0 0 0)
(0 0 0)
(0 0 0)
(0 0 0)
(0 0 0)
(0 0 0)
(0 0 0)
(0 0 0)
(0 0 0)
(0 0 0)
(0 0 0)
(0 0 0)
(0 0 0)
(0 0 0)
(0 0 0)
(0 0 0)
(0 0 0)
(0 0 0)
(0 0 0)
(0 0 0)
(0 0 0)
(0 0 0)
(0 0 0)
(0 0 0)
(0 0 0)
(0 0 0)
(0 0 0)
(0 0 0)
(0 0 0)
(0 0 0)
(0 0 0)
(0 0 0)
(0 0 0)
(0 0 0)
(0 0 0)
(0 0 0)
(0 0 0)
(0 0 0)
(0 0 0)
(0 0 0)
(0 0 0)
(0 0 0)
(0 0 0)
(0 0 0)
(0 0 0)
(0 0 0)
(0 0 0)
(0 0 0)
(0 0 0)
(0 0 0)
(0 0 0)
(0 0 0)
(0 0 0)
(0 0 0)
(0 0 0)
(0 0 0)
(0 0 0)
(0 0 0)
(0 0 0)
(0 0 0)
(0 0 0)
(0 0 0)
(0 0 0)
(0 0 0)
(0 0 0)
(0 0 0)
(0 0 0)
(0 0 0)
(0 0 0)
(0 0 0)
(0 0 0)
(0 0 0)
(0 0 0)
(0 0 0)
(0 0 0)
(0 0 0)
(0 0 0)
(0 0 0)
(0 0 0)
(0 0 0)
(0 0 0)
(0 0 0)
(0 0 0)
(0 0 0)
(0 0 0)
(0 0 0)
(0 0 0)
(0 0 0)
(0 0 0)
(0 0 0)
(0 0 0)
(0 0 0)
(0 0 0)
(0 0 0)
(0 0 0)
(0 0 0)
(0 0 0)
(0 0 0)
(0 0 0)
(0 0 0)
(0 0 0)
(0 0 0)
(0 0 0)
(0 0 0)
(0 0 0)
(0 0 0)
(0 0 0)
(0 0 0)
(0 0 0)
(0 0 0)
(0 0 0)
(0 0 0)
(0 0 0)
(0 0 0)
(0 0 0)
(0 0 0)
(0 0 0)
(0 0 0)
(0 0 0)
(0 0 0)
(0 0 0)
(0 0 0)
(0 0 0)
(0 0 0)
(0 0 0)
(0 0 0)
(0 0 0)
(0 0 0)
(0 0 0)
(0 0 0)
(0 0 0)
(0 0 0)
(0 0 0)
(0 0 0)
(0 0 0)
(0 0 0)
(0 0 0)
(0 0 0)
(0 0 0)
(0 0 0)
(0 0 0)
(0 0 0)
(0 0 0)
(0 0 0)
(0 0 0)
(0 0 0)
(0 0 0)
(0 0 0)
(0 0 0)
(0 0 0)
(0 0 0)
(0 0 0)
(0 0 0)
(0 0 0)
(0 0 0)
(0 0 0)
(0 0 0)
(0 0 0)
(0 0 0)
(0 0 0)
(0 0 0)
(0 0 0)
(0 0 0)
(0 0 0)
(0 0 0)
(0 0 0)
(0 0 0)
(0 0 0)
(0 0 0)
(0 0 0)
(0 0 0)
(0 0 0)
(0 0 0)
(0 0 0)
(0 0 0)
(0 0 0)
(0 0 0)
(0 0 0)
(0 0 0)
(0 0 0)
(0 0 0)
(0 0 0)
(0 0 0)
(0 0 0)
(0 0 0)
(0 0 0)
(0 0 0)
(0 0 0)
(0 0 0)
(0 0 0)
(0 0 0)
(0 0 0)
(0 0 0)
(0 0 0)
(0 0 0)
(0 0 0)
(0 0 0)
(0 0 0)
(0 0 0)
(0 0 0)
(0 0 0)
(0 0 0)
(0 0 0)
(0 0 0)
(0 0 0)
(0 0 0)
(0 0 0)
(0 0 0)
(0 0 0)
(0 0 0)
(0 0 0)
(0 0 0)
(0 0 0)
(0 0 0)
(0 0 0)
(0 0 0)
(0 0 0)
(0 0 0)
(0 0 0)
(0 0 0)
(0 0 0)
(0 0 0)
(0 0 0)
(0 0 0)
(0 0 0)
(0 0 0)
(0 0 0)
(0 0 0)
(0 0 0)
(0 0 0)
(0 0 0)
(0 0 0)
(0 0 0)
(0 0 0)
(0 0 0)
(0 0 0)
(0 0 0)
(0 0 0)
(0 0 0)
(0 0 0)
(0 0 0)
(0 0 0)
(0 0 0)
(0 0 0)
(0 0 0)
(0 0 0)
(0 0 0)
(0 0 0)
(0 0 0)
(0 0 0)
(0 0 0)
(0 0 0)
(0 0 0)
(0 0 0)
(0 0 0)
(0 0 0)
(0 0 0)
(0 0 0)
(0 0 0)
(0 0 0)
(0 0 0)
(0 0 0)
(0 0 0)
)
;

boundaryField
{
    inlet
    {
        type            zeroGradient;
    }
    outlet
    {
        type            zeroGradient;
    }
    wall
    {
        type            zeroGradient;
    }
    procBoundary2to0
    {
        type            processor;
        value           nonuniform List<vector> 
192
(
(0.000110527 2.6124e-05 0.000122626)
(0.000101589 4.09412e-05 0.000174306)
(0.000204143 3.81707e-05 0.000165432)
(0.000122598 0.000122013 9.53547e-05)
(-6.54802e-05 0.000150425 0.000489302)
(-5.05741e-06 4.0412e-05 0.000324529)
(0.000125519 -0.000137125 0.00044892)
(-1.90215e-06 0.000102282 0.000442207)
(0.000287068 0.000252072 0.000548845)
(-0.000106991 0.000344154 0.000816886)
(-9.52536e-05 -3.72497e-06 0.000553729)
(-0.000153173 -4.19593e-05 0.000878505)
(1.66124e-05 6.18616e-05 0.000691824)
(9.8947e-05 6.64593e-05 0.000732503)
(0.000395617 2.40768e-05 0.000696301)
(6.68252e-05 0.000118645 0.000729829)
(-8.51256e-05 0.000101597 0.00080855)
(4.35158e-05 7.7031e-08 0.000770771)
(0.000307407 0.000126976 0.00066687)
(0.000302354 0.000125274 0.000541806)
(-9.76244e-06 0.000119751 0.000935155)
(-5.47809e-05 5.89779e-05 0.000856873)
(4.909e-05 7.58489e-05 0.000757576)
(0.000101057 -1.00275e-05 0.00062683)
(-3.45654e-05 0.000227473 0.000998031)
(5.09858e-05 4.5275e-05 0.000949028)
(0.000308349 -0.0003708 0.000724029)
(0.000193858 0.000152543 0.000560973)
(0 0 0)
(0 0 0)
(0 0 0)
(0 0 0)
(0 0 0)
(0 0 0)
(0 0 0)
(0 0 0)
(0 0 0)
(0 0 0)
(0 0 0)
(0 0 0)
(0 0 0)
(0 0 0)
(0 0 0)
(0 0 0)
(0 0 0)
(0 0 0)
(0 0 0)
(0 0 0)
(0 0 0)
(0 0 0)
(0 0 0)
(0 0 0)
(0 0 0)
(0 0 0)
(0 0 0)
(0 0 0)
(0 0 0)
(0 0 0)
(0 0 0)
(0 0 0)
(0 0 0)
(0 0 0)
(0 0 0)
(0 0 0)
(0 0 0)
(0 0 0)
(0 0 0)
(0 0 0)
(0 0 0)
(0 0 0)
(0 0 0)
(0 0 0)
(0 0 0)
(0 0 0)
(0 0 0)
(0 0 0)
(0 0 0)
(0 0 0)
(0 0 0)
(0 0 0)
(0 0 0)
(0 0 0)
(0 0 0)
(0 0 0)
(0 0 0)
(0 0 0)
(0 0 0)
(0 0 0)
(0 0 0)
(0 0 0)
(0 0 0)
(0 0 0)
(0 0 0)
(0 0 0)
(0 0 0)
(0 0 0)
(2.22708e-05 0.000208838 2.41713e-05)
(1.04585e-05 0.000147363 2.75245e-05)
(0.000140609 1.81684e-05 0.000135331)
(8.41204e-05 -3.52534e-05 7.17828e-05)
(3.78463e-05 -0.000124783 0.000331176)
(-2.31713e-05 9.86524e-05 0.00023748)
(5.89155e-05 0.00016166 0.000356117)
(-8.53074e-05 0.000185926 0.000600883)
(6.05342e-05 -0.000177305 0.000533391)
(0.000130104 -0.000140959 0.000394425)
(0.000195761 0.000181819 0.000465783)
(0.000192184 9.6073e-05 0.000722)
(2.23689e-05 4.60843e-05 0.000598806)
(-4.48351e-05 0.00016869 0.000511569)
(8.89853e-05 0.000181005 0.00079587)
(0.000149698 1.76933e-05 0.000700612)
(0.00022176 0.000149483 0.000434928)
(0.000344852 -4.48419e-05 0.000642547)
(0.000206184 7.13022e-05 0.000844542)
(8.92342e-05 0.000172475 0.000894155)
(2.26205e-05 0.000107396 0.000384285)
(0.000148132 -0.000184931 0.00092163)
(0.000156025 -0.000321492 0.000778499)
(-4.99845e-05 9.53117e-05 0.000893868)
(-0.000193808 -0.000790406 5.83036e-05)
(-0.000409759 -0.00339003 -0.000830144)
(-0.00108993 -0.00219712 0.00113106)
(-0.000228344 0.000358988 0.00108451)
(0 0 0)
(0 0 0)
(0 0 0)
(0 0 0)
(0 0 0)
(0 0 0)
(0 0 0)
(0 0 0)
(0 0 0)
(0 0 0)
(0 0 0)
(0 0 0)
(0 0 0)
(0 0 0)
(0 0 0)
(0 0 0)
(0 0 0)
(0 0 0)
(0 0 0)
(0 0 0)
(0 0 0)
(0 0 0)
(0 0 0)
(0 0 0)
(0 0 0)
(0 0 0)
(0 0 0)
(0 0 0)
(0 0 0)
(0 0 0)
(0 0 0)
(0 0 0)
(0 0 0)
(0 0 0)
(0 0 0)
(0 0 0)
(0 0 0)
(0 0 0)
(0 0 0)
(0 0 0)
(0 0 0)
(0 0 0)
(0 0 0)
(0 0 0)
(0 0 0)
(0 0 0)
(0 0 0)
(0 0 0)
(0 0 0)
(0 0 0)
(0 0 0)
(0 0 0)
(0 0 0)
(0 0 0)
(0 0 0)
(0 0 0)
(0 0 0)
(0 0 0)
(0 0 0)
(0 0 0)
(0 0 0)
(0 0 0)
(0 0 0)
(0 0 0)
(0 0 0)
(0 0 0)
(0 0 0)
(0 0 0)
)
;
    }
    procBoundary2to3
    {
        type            processor;
        value           nonuniform List<vector> 
192
(
(0.000149339 -1.37063e-06 8.01343e-05)
(-0.000130943 -0.000164237 0.000116725)
(-2.0241e-05 -0.000235185 8.35382e-05)
(-3.07723e-05 0.000160202 9.25421e-05)
(0.000411846 -0.000610062 0.000685451)
(-0.000148631 -0.000213857 0.000420873)
(-0.000158233 -0.000256543 0.000594407)
(0.00036186 -0.00048733 0.000402496)
(-0.000248403 -0.000289259 0.000986223)
(-1.52262e-05 -0.000178215 0.000712964)
(5.36559e-05 -0.000148236 0.000515623)
(0.000127184 -0.000329998 0.000474622)
(2.05424e-06 -8.89846e-05 0.000746339)
(-0.000169928 -0.000296512 0.000738115)
(-0.000153883 -0.000305947 0.000677466)
(2.33047e-05 -0.000309235 0.000593179)
(6.54421e-06 -0.000179814 0.000538187)
(5.20452e-05 -0.000327717 0.000694546)
(-2.09845e-05 -0.000210732 0.000661365)
(0.000139718 -0.000127024 0.000743946)
(-1.32059e-06 -6.02612e-05 0.000554303)
(1.55173e-05 -7.11681e-05 0.000606371)
(-0.000112695 6.3155e-05 0.000685944)
(-2.64452e-05 0.000108911 0.00078497)
(0.000129503 8.16966e-05 0.000461505)
(-2.89594e-05 9.71371e-06 0.000510391)
(-0.000111168 5.87995e-05 0.000703021)
(-0.00127363 -9.01979e-05 0.00113917)
(0 0 0)
(0 0 0)
(0 0 0)
(0 0 0)
(0 0 0)
(0 0 0)
(0 0 0)
(0 0 0)
(0 0 0)
(0 0 0)
(0 0 0)
(0 0 0)
(0 0 0)
(0 0 0)
(0 0 0)
(0 0 0)
(0 0 0)
(0 0 0)
(0 0 0)
(0 0 0)
(0 0 0)
(0 0 0)
(0 0 0)
(0 0 0)
(0 0 0)
(0 0 0)
(0 0 0)
(0 0 0)
(0 0 0)
(0 0 0)
(0 0 0)
(0 0 0)
(0 0 0)
(0 0 0)
(0 0 0)
(0 0 0)
(0 0 0)
(0 0 0)
(0 0 0)
(0 0 0)
(0 0 0)
(0 0 0)
(0 0 0)
(0 0 0)
(0 0 0)
(0 0 0)
(0 0 0)
(0 0 0)
(0 0 0)
(0 0 0)
(0 0 0)
(0 0 0)
(0 0 0)
(0 0 0)
(0 0 0)
(0 0 0)
(0 0 0)
(0 0 0)
(0 0 0)
(0 0 0)
(0 0 0)
(0 0 0)
(0 0 0)
(0 0 0)
(0 0 0)
(0 0 0)
(0 0 0)
(0 0 0)
(-0.000143319 -0.000141683 0.00014133)
(-4.90837e-05 -9.71725e-05 7.19058e-05)
(-2.78357e-05 -0.000255628 3.06442e-05)
(-6.20624e-05 -2.43123e-05 2.07503e-05)
(1.71456e-05 -0.000292581 0.000285568)
(5.80414e-05 -0.000274511 0.000228294)
(-4.00832e-05 -0.000177773 0.000233626)
(-0.000194044 4.19657e-06 0.000135699)
(3.90388e-05 -0.000389819 0.000426128)
(-8.69581e-05 -0.000209337 0.000386619)
(-8.96851e-05 -0.000200867 0.000372262)
(-0.000139991 -6.57336e-05 0.000318764)
(0.000122657 -0.000183922 0.000702913)
(-2.23261e-05 -0.000200204 0.000565515)
(4.92945e-05 -0.000175953 0.000425722)
(-0.000337067 -7.56928e-05 0.000545761)
(-1.5065e-05 7.13034e-05 0.00074261)
(-0.000133998 1.0011e-05 0.000735195)
(-0.000181302 -0.000109442 0.000555339)
(-0.00020628 -3.06125e-05 0.000317257)
(-0.000111707 0.000292909 0.000640577)
(-0.000198424 0.000301528 0.000712387)
(-0.00042804 0.000113032 0.000439784)
(-0.000201409 -2.03693e-05 0.000137044)
(-0.000221767 0.000179122 0.000635669)
(-0.000247828 0.000397836 0.000565592)
(-0.000754203 0.00029411 0.000412241)
(-5.13441e-05 5.54115e-05 5.61646e-05)
(0 0 0)
(0 0 0)
(0 0 0)
(0 0 0)
(0 0 0)
(0 0 0)
(0 0 0)
(0 0 0)
(0 0 0)
(0 0 0)
(0 0 0)
(0 0 0)
(0 0 0)
(0 0 0)
(0 0 0)
(0 0 0)
(0 0 0)
(0 0 0)
(0 0 0)
(0 0 0)
(0 0 0)
(0 0 0)
(0 0 0)
(0 0 0)
(0 0 0)
(0 0 0)
(0 0 0)
(0 0 0)
(0 0 0)
(0 0 0)
(0 0 0)
(0 0 0)
(0 0 0)
(0 0 0)
(0 0 0)
(0 0 0)
(0 0 0)
(0 0 0)
(0 0 0)
(0 0 0)
(0 0 0)
(0 0 0)
(0 0 0)
(0 0 0)
(0 0 0)
(0 0 0)
(0 0 0)
(0 0 0)
(0 0 0)
(0 0 0)
(0 0 0)
(0 0 0)
(0 0 0)
(0 0 0)
(0 0 0)
(0 0 0)
(0 0 0)
(0 0 0)
(0 0 0)
(0 0 0)
(0 0 0)
(0 0 0)
(0 0 0)
(0 0 0)
(0 0 0)
(0 0 0)
(0 0 0)
(0 0 0)
)
;
    }
}


// ************************************************************************* //
