/*--------------------------------*- C++ -*----------------------------------*\
| =========                 |                                                 |
| \\      /  F ield         | OpenFOAM: The Open Source CFD Toolbox           |
|  \\    /   O peration     | Version:  2506                                  |
|   \\  /    A nd           | Website:  www.openfoam.com                      |
|    \\/     M anipulation  |                                                 |
\*---------------------------------------------------------------------------*/
FoamFile
{
    version     2.0;
    format      ascii;
    arch        "LSB;label=32;scalar=64";
    class       volScalarField;
    location    "0.04";
    object      voidfraction;
}
// * * * * * * * * * * * * * * * * * * * * * * * * * * * * * * * * * * * * * //

dimensions      [0 0 0 0 0 0 0];

internalField   nonuniform List<scalar> 
1152
(
0.420663
0.381163
0.407496
0.357463
0.470697
0.43383
0.420663
0.349563
0.428563
0.436463
0.423296
0.525997
0.452263
0.452263
0.439097
0.454897
0.431196
0.367996
0.41803
0.317962
0.396963
0.41013
0.423296
0.412763
0.412763
0.40223
0.354829
0.446997
0.41803
0.44173
0.396963
0.367996
0.399596
0.40223
0.399596
0.47333
0.46543
0.452263
0.336396
0.43383
0.38643
0.41803
0.436463
0.39433
0.46543
0.365363
0.415396
0.357463
0.41803
0.367996
0.391696
0.407496
0.415396
0.396963
0.415396
0.420663
0.317962
0.373263
0.391696
0.431196
0.362729
0.38643
0.399596
0.325862
0.352196
0.399596
0.428563
0.44173
0.396963
0.404863
0.38643
0.373263
0.362729
0.396963
0.396963
0.460163
0.431196
0.412763
0.439097
0.339029
0.46543
0.391696
0.383796
0.344296
0.404863
0.404863
0.346929
0.41013
0.404863
0.41013
0.44963
0.383796
0.510197
0.444363
0.41013
0.323229
0.644498
0.615531
0.599731
0.604998
0.697165
0.612898
0.570764
0.597097
0.702431
0.649764
0.562864
0.607631
0.705065
0.620798
0.510197
0.602364
1
1
1
1
1
1
1
1
1
1
1
1
1
1
1
1
1
1
1
1
1
1
1
1
1
1
1
1
1
1
1
1
1
1
1
1
1
1
1
1
1
1
1
1
1
1
1
1
1
1
1
1
1
1
1
1
1
1
1
1
1
1
1
1
1
1
1
1
1
1
1
1
1
1
1
1
1
1
1
1
1
1
1
1
1
1
1
1
1
1
1
1
1
1
1
1
1
1
1
1
1
1
1
1
1
1
1
1
1
1
1
1
1
1
1
1
1
1
1
1
1
1
1
1
1
1
1
1
1
1
1
1
1
1
1
1
1
1
1
1
1
1
1
1
1
1
1
1
1
1
1
1
1
1
1
1
1
1
1
1
1
1
1
1
1
1
1
1
1
1
1
1
1
1
1
1
1
1
1
1
1
1
1
1
1
1
1
1
1
1
1
1
1
1
1
1
1
1
1
1
1
1
1
1
1
1
1
1
1
1
1
1
1
1
1
1
1
1
1
1
1
1
1
1
1
1
1
1
1
1
1
1
1
1
1
1
1
1
1
1
1
1
1
1
1
1
1
1
1
1
1
1
1
1
1
1
1
1
1
1
1
1
1
1
1
1
1
1
1
1
1
1
0.496182
0.422277
0.537121
0.408616
0.459614
0.418323
0.444441
0.427367
0.427599
0.461609
0.452394
0.457994
0.503604
0.436883
0.487363
0.450572
0.478658
0.441535
0.396362
0.355993
0.434226
0.351846
0.363718
0.365461
0.387377
0.471354
0.429136
0.402607
0.438857
0.419489
0.434003
0.395092
0.360371
0.415858
0.404483
0.483792
0.405212
0.415554
0.370841
0.482641
0.427599
0.393397
0.443936
0.376891
0.433461
0.432534
0.420663
0.387933
0.404181
0.383763
0.366586
0.451216
0.45236
0.468181
0.404079
0.391992
0.436882
0.446992
0.452394
0.398651
0.44695
0.395573
0.424475
0.445203
0.465515
0.415858
0.442379
0.396087
0.339931
0.376775
0.373215
0.378727
0.34406
0.422631
0.458737
0.42041
0.436159
0.482541
0.355869
0.40762
0.373514
0.364505
0.366586
0.373534
0.426973
0.412784
0.399331
0.462742
0.399753
0.432375
0.454508
0.32546
0.438857
0.397747
0.393983
0.493524
0.728377
0.675833
0.656224
0.70932
0.669965
0.642684
0.726969
0.652883
0.675124
0.678427
0.674396
0.794275
0.66817
0.745619
0.71986
0.833561
1
1
1
1
1
1
1
1
1
1
1
1
1
1
1
1
1
1
1
1
1
1
1
1
1
1
1
1
1
1
1
1
1
1
1
1
1
1
1
1
1
1
1
1
1
1
1
1
1
1
1
1
1
1
1
1
1
1
1
1
1
1
1
1
1
1
1
1
1
1
1
1
1
1
1
1
1
1
1
1
1
1
1
1
1
1
1
1
1
1
1
1
1
1
1
1
1
1
1
1
1
1
1
1
1
1
1
1
1
1
1
1
1
1
1
1
1
1
1
1
1
1
1
1
1
1
1
1
1
1
1
1
1
1
1
1
1
1
1
1
1
1
1
1
1
1
1
1
1
1
1
1
1
1
1
1
1
1
1
1
1
1
1
1
1
1
1
1
1
1
1
1
1
1
1
1
1
1
1
1
1
1
1
1
1
1
1
1
1
1
1
1
1
1
1
1
1
1
1
1
1
1
1
1
1
1
1
1
1
1
1
1
1
1
1
1
1
1
1
1
1
1
1
1
1
1
1
1
1
1
1
1
1
1
1
1
1
1
1
1
1
1
1
1
1
1
1
1
1
1
1
1
1
1
1
1
1
1
1
1
1
1
1
1
1
1
1
1
1
1
1
1
0.454151
0.459973
0.378727
0.458734
0.416852
0.435479
0.401705
0.477569
0.491238
0.464045
0.440483
0.512145
0.44695
0.381189
0.503135
0.421705
0.361088
0.412498
0.341141
0.361005
0.464495
0.399536
0.408828
0.41531
0.491238
0.388525
0.404474
0.467211
0.430763
0.436882
0.405212
0.426086
0.448782
0.517338
0.414102
0.456228
0.353963
0.450279
0.418325
0.339517
0.482541
0.37878
0.398934
0.32599
0.42267
0.461634
0.408839
0.377895
0.409409
0.461951
0.40968
0.436181
0.380643
0.437593
0.425447
0.358465
0.447754
0.461609
0.346306
0.48005
0.449648
0.409035
0.423346
0.395419
0.439834
0.394694
0.367672
0.423652
0.418757
0.40165
0.430195
0.393655
0.402096
0.434812
0.390625
0.419068
0.441554
0.399753
0.405212
0.395419
0.439834
0.499535
0.387571
0.436181
0.435909
0.448165
0.411202
0.380121
0.408618
0.454301
0.401704
0.444744
0.395692
0.371906
0.361691
0.364752
0.754815
0.86351
0.803227
0.794519
0.761786
0.655367
0.705601
0.645396
0.702135
0.671119
0.720241
0.669414
0.61961
0.631807
0.698979
0.737139
1
1
1
1
1
1
1
1
1
1
1
1
1
1
1
1
1
1
1
1
1
1
1
1
1
1
1
1
1
1
1
1
1
1
1
1
1
1
1
1
1
1
1
1
1
1
1
1
1
1
1
1
1
1
1
1
1
1
1
1
1
1
1
1
1
1
1
1
1
1
1
1
1
1
1
1
1
1
1
1
1
1
1
1
1
1
1
1
1
1
1
1
1
1
1
1
1
1
1
1
1
1
1
1
1
1
1
1
1
1
1
1
1
1
1
1
1
1
1
1
1
1
1
1
1
1
1
1
1
1
1
1
1
1
1
1
1
1
1
1
1
1
1
1
1
1
1
1
1
1
1
1
1
1
1
1
1
1
1
1
1
1
1
1
1
1
1
1
1
1
1
1
1
1
1
1
1
1
1
1
1
1
1
1
1
1
1
1
1
1
1
1
1
1
1
1
1
1
1
1
1
1
1
1
1
1
1
1
1
1
1
1
1
1
1
1
1
1
1
1
1
1
1
1
1
1
1
1
1
1
1
1
1
1
1
1
1
1
1
1
1
1
1
1
1
1
1
1
1
1
1
1
1
1
1
1
1
1
1
1
1
1
1
1
1
1
1
1
1
1
1
1
)
;

boundaryField
{
    inlet
    {
        type            fixedValue;
        value           uniform 1;
    }
    outlet
    {
        type            fixedValue;
        value           uniform 1;
    }
    wall
    {
        type            zeroGradient;
    }
    procBoundary2to0
    {
        type            processor;
        value           nonuniform List<scalar> 
192
(
0.41013
0.544431
0.47333
0.42593
0.431196
0.38643
0.41803
0.360096
0.362729
0.460163
0.346929
0.367996
0.367996
0.478597
0.420663
0.51283
0.470697
0.352196
0.341663
0.360096
0.444363
0.428563
0.415396
0.428563
0.749832
0.607631
0.539164
0.599731
1
1
1
1
1
1
1
1
1
1
1
1
1
1
1
1
1
1
1
1
1
1
1
1
1
1
1
1
1
1
1
1
1
1
1
1
1
1
1
1
1
1
1
1
1
1
1
1
1
1
1
1
1
1
1
1
1
1
1
1
1
1
1
1
1
1
1
1
0.418358
0.410519
0.473797
0.466251
0.387933
0.418432
0.416313
0.416134
0.386144
0.376891
0.33893
0.441193
0.45773
0.353154
0.367672
0.411122
0.411199
0.396673
0.425157
0.408616
0.436254
0.414476
0.438422
0.431169
0.668911
0.758669
0.845234
0.761943
1
1
1
1
1
1
1
1
1
1
1
1
1
1
1
1
1
1
1
1
1
1
1
1
1
1
1
1
1
1
1
1
1
1
1
1
1
1
1
1
1
1
1
1
1
1
1
1
1
1
1
1
1
1
1
1
1
1
1
1
1
1
1
1
1
1
1
1
)
;
    }
    procBoundary2to3
    {
        type            processor;
        value           nonuniform List<scalar> 
192
(
0.573397
0.560231
0.341663
0.446997
0.499664
0.41803
0.328496
0.439097
0.38643
0.349563
0.404863
0.40223
0.281096
0.404863
0.415396
0.431196
0.286362
0.383796
0.389063
0.41013
0.533897
0.48123
0.365363
0.48123
0.462797
0.594464
0.589197
0.47333
1
1
1
1
1
1
1
1
1
1
1
1
1
1
1
1
1
1
1
1
1
1
1
1
1
1
1
1
1
1
1
1
1
1
1
1
1
1
1
1
1
1
1
1
1
1
1
1
1
1
1
1
1
1
1
1
1
1
1
1
1
1
1
1
1
1
1
1
0.463745
0.391992
0.497557
0.382564
0.428663
0.436211
0.426344
0.486365
0.358499
0.356617
0.38876
0.373616
0.363511
0.391992
0.438213
0.40404
0.41864
0.453899
0.32546
0.362878
0.513863
0.374305
0.442169
0.414778
0.53391
0.717
0.717128
0.778081
1
1
1
1
1
1
1
1
1
1
1
1
1
1
1
1
1
1
1
1
1
1
1
1
1
1
1
1
1
1
1
1
1
1
1
1
1
1
1
1
1
1
1
1
1
1
1
1
1
1
1
1
1
1
1
1
1
1
1
1
1
1
1
1
1
1
1
1
)
;
    }
}


// ************************************************************************* //
