/*--------------------------------*- C++ -*----------------------------------*\
| =========                 |                                                 |
| \\      /  F ield         | OpenFOAM: The Open Source CFD Toolbox           |
|  \\    /   O peration     | Version:  2506                                  |
|   \\  /    A nd           | Website:  www.openfoam.com                      |
|    \\/     M anipulation  |                                                 |
\*---------------------------------------------------------------------------*/
FoamFile
{
    version     2.0;
    format      ascii;
    arch        "LSB;label=32;scalar=64";
    class       volScalarField;
    location    "0.01";
    object      p;
}
// * * * * * * * * * * * * * * * * * * * * * * * * * * * * * * * * * * * * * //

dimensions      [0 2 -2 0 0 0 0];

internalField   nonuniform List<scalar> 
512
(
-0.305572
-0.539557
-0.542914
-0.361477
-0.335914
-0.506089
-0.631575
-0.446179
-0.194491
-0.258875
-0.439793
-0.315031
0.00197815
-0.068247
-0.195542
-0.361053
-0.345646
-0.0198925
0.207323
0.249514
0.109622
0.064314
0.2255
0.287431
0.172441
0.126829
0.156705
-0.00604224
-0.0617044
0.0673914
0.0679906
-0.0509159
-0.205129
-0.407831
-0.615132
-0.424257
-0.333648
-0.492377
-0.625956
-0.463722
-0.196949
-0.248929
-0.395166
-0.295906
-0.101715
-0.0864478
-0.147449
-0.285944
-0.304753
0.023922
0.242251
0.145986
-0.0316034
0.00587893
0.208684
0.279612
0.226883
0.170919
0.152383
0.00447065
0.0385544
0.00580204
-0.103801
-0.155406
-0.262579
-0.283661
-0.468576
-0.418111
-0.402564
-0.511629
-0.466507
-0.364497
-0.32746
-0.363946
-0.250422
-0.200728
-0.225055
-0.217355
-0.201607
-0.185392
-0.0771686
0.0972902
0.193746
0.0275263
-0.0831986
0.0757859
0.318352
0.262885
0.0980152
0.203933
0.2403
0.0599671
-0.0161164
-0.124535
-0.223303
-0.2577
-0.363783
-0.268913
-0.306879
-0.436372
-0.441151
-0.443842
-0.448339
-0.284287
-0.393505
-0.610455
-0.337964
-0.181833
-0.21343
-0.18342
-0.121378
-0.0291907
0.0599414
0.107928
0.000490036
-0.14079
-0.0737103
0.00559944
0.209373
0.191962
0.0714848
0.162074
0.187029
0.0584506
-0.097761
-0.0883985
0.0281783
-0.216851
-0.443053
-0.506843
-0.328324
-0.157963
-0.315198
-0.570341
-0.426876
-0.297551
-0.45979
-0.617786
-0.359725
-0.12675
-0.186875
-0.218398
-0.168791
-0.0288599
0.0106203
0.0470776
0.0915908
0.0547107
-0.0651604
-0.000986043
0.185843
0.168271
0.0956471
0.0741779
0.0495931
-0.0562609
-0.143857
-0.0105306
0.0600348
-0.117883
-0.413628
-0.473761
-0.164821
0.00347538
-0.24523
-0.467685
-0.44801
-0.395387
-0.605979
-0.617184
-0.323376
-0.156496
-0.254113
-0.311154
-0.22225
-8.82621e-06
0.169904
0.194048
0.0809758
0.00184298
-0.0331688
-0.0246408
0.0258287
0.0304812
-0.0079021
0.0297517
0.175135
0.189033
-0.100712
-0.216364
-0.0132528
-0.073137
-0.186386
-0.227662
-0.130656
-0.0211716
-0.159823
-0.542498
-0.833446
-0.707563
-0.604199
-0.546524
-0.311661
-0.16669
-0.27376
-0.361762
-0.204075
0.0732809
0.172511
0.0789594
0.0199715
0.0469353
0.0422162
-0.0448609
-0.150908
-0.142189
-0.0207705
0.132554
0.335433
0.251388
-0.212491
-0.37326
-0.00544825
0.0457726
-0.288887
-0.494157
-0.110993
0.0870349
-0.142951
-0.513814
-0.603861
-0.493851
-0.582638
-0.670192
-0.408675
-0.132292
-0.195802
-0.307297
-0.156851
0.103199
0.149345
0.0579527
0.0549101
0.144548
0.0213836
-0.335659
-0.318037
-0.0550688
0.0814854
0.398508
0.563692
0.167121
-0.287253
-0.343224
-0.0465473
0.0818664
-0.187234
-0.498718
-0.605668
-0.364632
-0.331428
-0.465697
-0.512535
-0.357186
-0.379513
-0.555886
-0.379954
-0.203259
-0.098402
-0.12868
-0.138913
-0.198994
-0.259847
-0.124444
0.170398
0.403464
0.378997
0.163644
-0.0148394
-0.0637667
0.052865
-0.0666051
-0.153511
0.0299314
0.18721
0.234662
0.125215
-0.00390896
-0.204745
-0.402072
-0.53299
-0.39816
-0.406919
-0.516669
-0.540495
-0.322216
-0.271284
-0.519294
-0.435311
-0.280764
-0.193007
-0.124994
-0.11608
-0.151397
-0.0888569
0.146298
0.157942
0.140258
0.155832
0.149755
0.0453637
-0.0139203
0.067294
0.0243626
-0.0464364
0.0534717
0.109529
0.0932676
0.0204284
-0.0553385
-0.331685
-0.31776
-0.327869
-0.371974
-0.417342
-0.424054
-0.434442
-0.289937
-0.360679
-0.590932
-0.615077
-0.433784
-0.318306
-0.154175
-0.030615
-0.00970184
0.046365
0.214439
0.24688
0.110008
-0.0133781
0.118488
0.233154
0.13281
0.081364
0.101647
0.0907722
0.0513177
0.00203568
-0.0487168
-0.125051
-0.253649
-0.343149
-0.367276
-0.319421
-0.309859
-0.359422
-0.42358
-0.281572
-0.172339
-0.441431
-0.75598
-0.464473
-0.395316
-0.418906
-0.02208
0.071455
0.039348
0.0784036
0.123885
0.0253565
-0.118587
-0.118212
0.122743
0.250406
0.125029
0.00878637
0.0909821
0.171076
0.0786758
-0.14309
-0.0961177
0.0193872
-0.162358
-0.322187
-0.542115
-0.37069
-0.147469
-0.245764
-0.446554
-0.416736
-0.420057
-0.605395
-0.618838
-0.412125
-0.396871
-0.379826
-0.138314
-0.0133766
0.0490172
0.128505
0.0982947
0.0376851
0.0433803
0.00281187
0.0798394
0.150065
0.0612722
0.0221444
0.12028
0.109173
-0.118773
-0.214532
0.00885385
0.0706625
-0.0432278
-0.232527
-0.344145
-0.19749
-0.100269
-0.311378
-0.419873
-0.376615
-0.395822
-0.613404
-0.659654
-0.372824
-0.289691
-0.349129
-0.275209
-0.114484
0.0145493
0.143148
0.196729
0.109602
0.0434949
0.0427854
0.0106742
-0.064134
-0.0918015
-0.0178063
0.145042
0.253416
0.140334
-0.109972
-0.177074
-0.0539234
-0.0275087
-0.225324
-0.223701
-0.104574
0.118814
0.0434346
-0.335153
-0.807202
-1.03511
-0.915642
-0.647239
-0.310142
-0.316921
-0.407535
-0.268363
-0.0828323
-0.00478231
0.0657129
0.0965814
0.170601
0.205408
0.109741
0.000373266
-0.137274
-0.26406
-0.0766977
0.147807
0.268666
0.172387
-0.17375
-0.285328
-0.0661102
-0.0141652
-0.350876
-0.461133
-0.175168
0.231431
0.120099
-0.421782
-0.745732
-0.725405
-0.791321
-0.658866
-0.37706
-0.306673
-0.298757
-0.146902
-0.0200231
0.0482716
0.0671555
0.0573114
0.159373
0.177632
0.0645085
-0.0266525
-0.089446
-0.380584
-0.153735
0.394812
0.541875
0.17989
-0.195283
-0.208855
-0.0670367
-0.053077
)
;

boundaryField
{
    wall
    {
        type            zeroGradient;
    }
    outlet
    {
        type            cyclic;
    }
    inlet
    {
        type            cyclic;
    }
    procBoundary0to1
    {
        type            processor;
        value           nonuniform List<scalar> 
256
(
-0.202491
-0.455039
-0.419849
-0.361953
-0.572968
-0.687517
-0.450713
-0.159051
-0.173932
-0.354976
-0.277977
-0.230811
-0.35831
-0.281945
-0.189051
-0.218531
-0.264431
-0.101679
0.174261
0.326173
0.272898
0.137329
-0.0563833
0.0448862
0.198177
0.0729294
-0.0841811
-0.00627723
0.0916992
0.114414
0.0811588
-0.00987645
-0.248623
-0.33783
-0.249068
-0.244907
-0.598484
-0.866959
-0.503409
-0.153283
-0.169469
-0.332068
-0.346634
-0.296539
-0.353567
-0.236787
-0.101676
-0.201259
-0.203047
0.0181096
0.181983
0.191713
0.157809
0.149271
0.0664258
0.0701783
0.177856
0.117819
-0.00627678
-0.000734842
0.0606643
0.0741523
-0.0621058
-0.118432
-0.334929
-0.365597
-0.175945
-0.294861
-0.551739
-0.61676
-0.506007
-0.27107
-0.227399
-0.349126
-0.40156
-0.331911
-0.39259
-0.314596
-0.0517325
0.0128194
-0.0791526
0.0290208
0.139826
0.0816945
-0.0042036
0.115734
0.123521
0.0641073
0.10974
0.0715321
-0.0348989
0.00560899
0.0589491
0.0761024
-0.0290669
-0.186451
-0.380075
-0.505595
-0.242267
-0.145965
-0.356962
-0.604801
-0.496372
-0.335018
-0.360702
-0.408823
-0.46201
-0.447659
-0.339102
-0.0995426
0.0446669
0.0280452
-0.0676239
0.015357
0.169738
0.145396
0.0783353
0.0402842
0.0286389
0.0602481
0.0311567
-0.0646386
-0.0525984
0.0251013
0.029379
0.0691879
0.0444442
-0.104377
-0.207372
-0.298319
-0.334559
-0.338446
-0.388636
-0.426941
-0.347954
-0.379946
-0.408009
-0.429111
-0.484042
-0.470077
-0.345074
-0.0734247
-0.00256141
-0.0177513
-0.0520793
-0.00764779
0.135857
0.136171
0.0279495
0.0297923
0.0863526
0.0843281
0.0104563
0.0580483
0.124609
-0.046485
-0.187428
-0.0382996
-0.0512863
-0.153857
-0.364157
-0.252837
-0.20963
-0.174809
-0.237507
-0.424763
-0.513205
-0.446799
-0.457928
-0.548583
-0.566546
-0.414874
-0.258844
-0.14121
0.00128071
0.0471828
0.00142047
0.00696625
0.0658958
0.100177
0.131538
0.0858103
-0.0380417
-0.0657375
0.0236103
0.125701
0.207389
0.105675
-0.0754591
-0.130605
-0.0751107
-0.245963
-0.374071
-0.427872
-0.14664
0.152504
-0.0385559
-0.549779
-0.686433
-0.462478
-0.445585
-0.614611
-0.52991
-0.390862
-0.302982
-0.136884
0.0962101
0.0120038
-0.103419
0.0323534
0.134406
0.0838404
0.0544878
-0.0364454
-0.101411
-0.0611111
0.0873998
0.10658
0.149983
0.131928
-0.110382
-0.23578
-0.0790051
-0.0431752
-0.428848
-0.410848
-0.133856
0.119308
-0.0831747
-0.610978
-0.704976
-0.280469
-0.364836
-0.710822
-0.468525
-0.276673
-0.248956
-0.126376
0.00581063
-0.106551
-0.0756502
0.0843062
0.123344
0.00522637
-0.0906895
-0.148908
-0.0440692
-0.0283317
0.109134
0.358142
0.446576
0.11173
-0.243834
-0.204963
-0.0543181
-0.0954108
)
;
    }
}


// ************************************************************************* //
