/*--------------------------------*- C++ -*----------------------------------*\
| =========                 |                                                 |
| \\      /  F ield         | OpenFOAM: The Open Source CFD Toolbox           |
|  \\    /   O peration     | Version:  2506                                  |
|   \\  /    A nd           | Website:  www.openfoam.com                      |
|    \\/     M anipulation  |                                                 |
\*---------------------------------------------------------------------------*/
FoamFile
{
    version     2.0;
    format      ascii;
    arch        "LSB;label=32;scalar=64";
    class       surfaceScalarField;
    location    "0.01";
    object      phi;
}
// * * * * * * * * * * * * * * * * * * * * * * * * * * * * * * * * * * * * * //

dimensions      [0 3 -1 0 0 0 0];

oriented        oriented;

internalField   nonuniform List<scalar> 
1200
(
0.00151766
1.93823e-07
-1.18852e-06
0.00151913
-7.74698e-07
-6.98852e-07
0.00151744
3.67228e-07
1.32288e-06
0.00151953
-6.38608e-07
-1.44837e-06
0.00152316
-1.36134e-06
-2.27287e-06
0.00152
1.96386e-06
1.20085e-06
0.00151038
4.64114e-06
4.97788e-06
0.00150959
9.28719e-07
-1.45398e-07
0.00151057
-1.21512e-07
-8.53758e-07
0.00150547
2.23271e-06
2.86916e-06
0.00150568
4.83888e-07
-6.93637e-07
0.00151355
-1.14722e-06
-6.72202e-06
0.00151557
-4.16484e-07
-1.60993e-06
0.00151117
1.18566e-07
4.28877e-06
0.00150785
5.58433e-07
2.75369e-06
0.00150991
3.25862e-07
-2.38401e-06
0.00151288
5.50493e-07
-3.5186e-06
0.00151463
-5.67941e-07
-1.18619e-06
0.00151319
-1.34608e-06
2.79143e-06
0.00151058
5.6965e-07
2.04227e-06
0.00151071
1.5647e-06
-1.70217e-06
0.00151263
1.28646e-06
-3.19882e-06
0.00151375
3.47674e-07
-1.47504e-06
0.00151435
-2.10414e-06
1.50649e-06
0.00151606
-1.42993e-06
-2.82524e-07
0.00151862
1.14722e-06
-3.70733e-06
0.00151425
2.77935e-06
1.5962e-06
0.00150899
1.7573e-06
3.50371e-06
0.00150978
-2.02452e-06
1.23367e-06
0.00151291
-2.23361e-06
-9.01494e-07
0.00151303
-4.33935e-07
3.14442e-07
1.89486e-06
9.59057e-07
0.00154486
-3.70788e-06
-1.81209e-06
0.00154582
-3.59687e-06
1.86295e-06
0.00154438
-6.66713e-07
2.476e-06
0.00154158
1.84714e-06
3.16474e-07
0.00153849
2.65945e-06
-9.34644e-07
0.00153788
2.25503e-06
3.17296e-07
0.00153771
2.89919e-06
1.91269e-06
0.00154018
-1.49746e-07
-1.39112e-06
0.00154436
-2.19162e-06
-2.11301e-06
0.00154432
2.26729e-06
8.76576e-09
0.00154261
1.84286e-06
3.50513e-07
0.00154137
1.04867e-06
-9.58706e-07
0.00153901
4.09847e-07
1.54336e-06
0.00153448
6.56677e-07
3.98711e-06
0.00153278
1.334e-07
2.12985e-06
0.00153432
-2.66961e-07
-9.51071e-07
0.00153897
-1.34692e-06
-2.75473e-06
0.00154432
-2.64815e-06
-3.26717e-06
0.00154544
-1.981e-06
-4.89666e-07
0.00154099
2.10656e-06
2.91599e-06
0.00153779
2.54209e-06
2.21964e-06
0.00154366
-1.37007e-06
-3.20837e-06
0.00154939
-3.6221e-06
-1.76151e-06
0.00154805
-2.25001e-06
1.48691e-06
0.00154617
-9.75118e-08
5.50904e-07
0.0015476
2.03704e-06
-2.32704e-06
0.0015487
2.38267e-06
-7.00219e-07
0.00154945
5.02452e-07
5.05087e-07
0.00154666
3.73657e-07
3.92169e-07
0.00154065
2.55903e-06
1.219e-06
0.00153672
2.1189e-06
1.37375e-06
-2.14955e-07
-3.18613e-07
0.00154595
-9.32095e-06
-1.81079e-06
0.00155163
-8.88564e-06
-3.87234e-07
0.00155248
-2.82729e-06
1.31142e-06
0.00154931
3.65378e-06
1.36602e-06
0.00154484
6.81279e-06
3.11841e-07
0.00154072
5.92689e-06
4.52439e-07
0.00153741
2.80965e-06
3.39618e-06
0.00154052
-3.49469e-06
2.36355e-07
0.00154567
-4.87002e-06
-2.46957e-06
0.00154623
3.00269e-06
-1.30369e-06
0.00154319
4.34839e-06
5.40002e-07
0.00154021
4.12798e-06
-1.0414e-07
0.00154137
2.80417e-07
-1.02944e-06
0.0015407
1.426e-08
1.31303e-06
0.00153848
3.57353e-07
1.99845e-06
0.00153806
1.24311e-07
2.86783e-08
0.00154065
-2.57607e-06
-1.3575e-06
0.0015443
-4.64578e-06
-1.65732e-06
0.00154298
-5.36976e-07
-1.18298e-07
0.00153917
4.87503e-06
1.04098e-06
0.00154071
2.48521e-06
-1.48895e-06
0.00154351
-1.26697e-06
-2.89599e-06
0.00154389
-2.07965e-06
-1.9265e-06
0.00154181
-2.15475e-06
1.98533e-06
0.00154319
-2.00787e-06
5.32614e-07
0.00154866
-4.25181e-07
-3.01152e-06
0.00155166
1.13255e-06
-1.74714e-06
0.00155048
5.25336e-07
1.15941e-06
0.00154521
3.60457e-06
2.03127e-06
0.00153875
7.22948e-06
1.78822e-06
0.00153422
5.21485e-06
1.4408e-06
-4.36079e-06
-1.66408e-07
0.00154077
-1.10895e-05
-1.11471e-06
0.00153659
-6.47722e-06
1.7658e-06
0.00153421
-2.29207e-06
1.84929e-06
0.00153853
-9.61694e-07
2.97886e-07
0.00153883
5.26842e-06
1.24106e-06
0.00153404
8.33769e-06
2.37496e-06
0.00153553
1.68935e-06
-3.64818e-07
0.00153863
-2.35356e-06
-4.24608e-06
0.00153976
-3.02717e-06
-2.96666e-06
0.0015426
1.85946e-06
-1.69958e-06
0.00154467
3.63262e-06
-1.35555e-06
0.00154539
3.46208e-06
-5.07275e-08
0.00154221
-9.02532e-07
4.36067e-06
0.00154108
-2.77529e-07
1.42423e-06
0.0015404
8.47983e-07
1.83212e-07
0.00153804
4.91854e-07
2.00038e-06
0.0015344
-2.1425e-07
1.27743e-06
0.00153089
-1.13459e-06
-9.48046e-09
0.00153314
-2.16622e-06
-6.12962e-07
0.00153915
-4.72254e-07
-6.63394e-07
0.00154027
1.02735e-06
3.31974e-07
0.00154365
-2.62165e-06
-2.01809e-06
0.00154599
-3.16766e-06
-1.25315e-06
0.00154377
-1.51459e-06
1.58205e-06
0.0015438
-2.56896e-06
5.24909e-07
0.00154564
-1.77203e-06
-4.93762e-07
0.00154356
2.49264e-06
7.22643e-07
0.00153899
3.17464e-06
1.92434e-06
0.00153851
3.40701e-06
6.70952e-07
0.00153986
4.82478e-06
1.05579e-06
0.00153594
7.03733e-06
2.09707e-06
-5.63071e-06
-6.71731e-07
0.00153756
-9.8286e-06
3.26946e-06
0.00153523
-4.68902e-06
5.44715e-07
0.00153672
-2.83292e-06
-9.57031e-07
0.00153727
-2.89975e-06
1.39387e-06
0.00154152
-1.28887e-06
2.30391e-06
0.00154875
-1.86508e-07
1.29944e-06
0.00155144
-1.58445e-06
5.76485e-07
0.00155081
-1.72355e-06
5.92343e-09
0.00154603
2.10122e-06
-3.48067e-07
0.00154564
4.72096e-06
-2.47785e-06
0.00154951
4.1954e-06
-4.43285e-06
0.00154937
3.68654e-06
-8.2184e-08
0.00154495
-4.94937e-07
4.01267e-06
0.00154466
-6.34042e-07
6.47842e-07
0.0015457
1.00611e-06
-1.19848e-06
0.0015448
1.7107e-07
1.22402e-06
0.00154424
-6.96211e-07
1.04377e-06
0.0015446
-1.8858e-06
3.85288e-07
0.00154391
-1.12326e-06
-3.53833e-07
0.00154364
-7.30732e-07
5.25855e-07
0.00154504
-1.34115e-06
9.68657e-07
0.00154709
-2.69665e-06
-1.97018e-06
0.00154822
-2.54441e-06
-1.74866e-06
0.00154414
9.82774e-07
1.57499e-06
0.00153877
1.04754e-06
1.76078e-06
0.0015365
9.90371e-07
-4.96394e-07
0.00153885
8.78938e-07
-7.38339e-07
0.00154237
-1.74723e-08
-3.23054e-07
0.00154506
1.78026e-06
-1.06466e-06
0.00154525
5.62258e-06
-9.85129e-07
0.00154521
5.74458e-06
1.32909e-06
-4.85355e-06
2.34245e-06
0.00154065
-1.00757e-05
1.91733e-06
0.00154483
-5.16461e-06
-3.69673e-06
0.00154657
-1.47192e-07
-4.4262e-06
0.00154619
-1.96879e-06
-5.51147e-07
0.00154696
-4.06808e-06
2.00319e-06
0.00154543
-1.11172e-06
2.4637e-06
0.00153966
2.30804e-06
1.87652e-06
0.00153619
1.20254e-06
5.43377e-07
0.00153949
3.50758e-07
-1.54983e-06
0.00154459
1.96604e-06
-2.35061e-06
0.00154841
2.99871e-06
-2.61633e-06
0.0015489
2.59112e-06
5.98552e-07
0.00154545
-9.3376e-07
3.88675e-06
0.00154399
-1.08493e-06
1.91888e-06
0.00154233
2.47406e-06
1.86319e-07
0.00153894
2.11548e-06
1.4442e-06
0.00153968
-1.65655e-06
2.24137e-07
0.0015401
-1.44074e-06
-8.70148e-07
0.00153898
-1.85317e-07
1.83051e-07
0.00153923
-2.03908e-06
1.0666e-06
0.00154288
-4.88393e-06
-1.12319e-07
0.00154636
-3.4274e-06
-2.74669e-06
0.00154823
-7.87066e-07
-3.63068e-06
0.00154303
3.77702e-06
2.41138e-06
0.00153724
3.62619e-06
3.20824e-06
0.00153904
-7.13547e-08
-7.42632e-07
0.00154113
-2.11362e-07
-9.91675e-07
0.0015402
2.76371e-07
6.29488e-07
0.00154134
1.17079e-06
-5.254e-07
0.00154584
2.90041e-06
-1.78267e-06
0.00154776
5.09231e-06
-1.26424e-06
-2.33967e-07
8.13723e-07
0.00154325
-3.41451e-06
-1.50121e-06
0.00153879
1.97716e-06
-2.6839e-06
0.00153652
3.71667e-06
-1.58816e-06
0.00153556
-1.68998e-06
6.7731e-07
0.00153386
-2.94876e-06
5.8175e-07
0.00153745
-3.28568e-07
-4.37334e-06
0.00154062
7.06365e-07
-1.56549e-06
0.00154058
-2.40405e-07
1.48369e-06
0.00154255
-2.01054e-06
3.8701e-07
0.00154456
1.28578e-06
-1.3321e-06
0.00154845
2.99429e-06
-3.87849e-06
0.00154932
1.68387e-06
3.41162e-08
0.00154403
-7.93473e-07
5.14992e-06
0.00154137
-1.16777e-06
2.74145e-06
0.00154512
1.06439e-06
-2.33799e-06
0.00154665
1.41277e-06
-8.30272e-07
0.00154482
-1.44593e-06
1.62272e-06
0.00154335
-1.05144e-06
1.08168e-06
0.00154165
5.20984e-07
9.91477e-07
0.00154126
-2.42909e-06
7.81907e-07
0.00154044
-4.45217e-06
3.89106e-07
0.00154037
-1.03413e-06
-2.32562e-06
0.00154061
2.07317e-06
-3.10277e-06
0.00153874
3.22152e-06
2.42998e-06
0.00153644
3.70324e-06
2.21483e-06
0.00153792
-1.18101e-06
-3.63714e-07
0.00153974
-1.83784e-06
-1.92335e-07
0.00153744
1.79996e-06
7.69113e-07
0.0015382
8.55593e-07
-4.41623e-07
0.00154445
-2.42705e-06
-9.23726e-07
0.00154913
7.85202e-07
-3.76603e-07
8.37752e-07
-3.46453e-07
0.00150898
2.58947e-07
0.00151369
-2.73647e-06
0.00151955
-2.13857e-06
0.00151655
1.31263e-06
0.00151225
1.35183e-06
0.00151384
-1.92696e-06
0.00151516
-6.06713e-07
0.00151202
2.89692e-06
0.00150624
3.76857e-06
0.00150993
-2.39964e-06
0.00151867
-5.74835e-06
0.00151994
4.10799e-07
0.001514
5.14655e-06
0.0015106
2.23081e-06
0.00151455
-2.88596e-06
0.00151697
-1.00289e-06
0.00151377
1.75375e-06
0.00151181
9.11072e-07
0.00151222
1.05016e-07
0.00150877
1.02458e-06
0.00150092
3.39677e-06
0.00150216
-2.26999e-06
0.00151062
-6.38701e-06
0.00151434
-4.97143e-07
0.00151452
3.51522e-06
0.00151203
1.31117e-06
0.00150984
3.53557e-07
0.00151107
5.75379e-07
0.00151158
3.36161e-07
0.00150962
-4.62779e-07
0.00151165
-1.24318e-06
-1.67962e-07
0.00154273
-3.6507e-07
0.00154248
1.31398e-07
0.00154334
-7.08864e-07
0.00154136
7.43495e-08
0.00153708
2.17725e-06
0.00153353
1.72346e-06
0.00153226
1.84319e-06
0.00153141
-1.42634e-07
0.00153402
-1.83662e-06
0.00154015
-1.31342e-06
0.0015438
-3.16745e-07
0.00154115
7.36176e-07
0.00153721
3.94971e-07
0.00153459
-1.27718e-07
0.00153246
-5.86869e-07
0.00153193
-1.6907e-08
0.00153215
4.45895e-07
0.00153448
-1.40976e-06
0.00153937
-2.22638e-06
0.0015416
-6.81543e-07
0.00153987
5.19888e-07
0.00153718
2.80408e-06
0.0015367
3.0698e-06
0.00154142
-1.78534e-06
0.00154453
-2.92907e-06
0.00154104
8.37214e-07
0.00154067
1.68407e-06
0.00154151
3.16316e-07
0.00154383
-1.10268e-06
0.00154306
-2.03041e-07
0.00154083
3.10161e-07
-9.78682e-07
0.00156902
-2.77515e-06
0.00157594
-3.44443e-06
0.00157814
-2.47932e-06
0.001576
1.40323e-06
0.00157039
5.32915e-06
0.00156401
4.22939e-06
0.00156201
2.54996e-06
0.00156327
-1.05875e-06
0.00156668
-3.78406e-06
0.00157108
-3.1473e-06
0.00157377
-9.29887e-08
0.0015754
1.23777e-06
0.0015751
4.25397e-07
0.00157436
4.85078e-07
0.00157258
-4.33055e-07
0.00157183
3.0145e-07
0.00157149
2.15987e-07
0.00156836
-9.69722e-07
0.00156669
-2.03555e-06
0.00156871
-4.51118e-07
0.00157012
1.5995e-06
0.00156778
4.00952e-06
0.00156986
2.74461e-06
0.00157576
-3.50135e-06
0.00157776
-3.15551e-06
0.00157421
1.7618e-06
0.00157213
1.84184e-06
0.00157374
-1.20823e-06
0.00157438
-1.00614e-06
0.00157053
2.69202e-06
0.00156598
2.63317e-06
7.02039e-07
0.00157129
-9.38051e-06
0.00157659
-7.37061e-06
0.00157796
-1.41875e-06
0.00157493
4.29272e-06
0.00156981
6.76343e-06
0.00156357
5.09722e-06
0.00156436
-1.11853e-06
0.0015712
-7.42643e-06
0.00157519
-6.13777e-06
0.00157161
1.69124e-06
0.00157123
1.18446e-06
0.0015724
2.12129e-06
0.00157028
2.70765e-06
0.00156738
7.36925e-07
0.00156528
-1.78439e-07
0.0015656
-3.06283e-07
0.00156744
-2.08713e-06
0.00156706
-2.18485e-06
0.00156496
-1.84126e-07
0.00156363
2.115e-06
0.00156408
1.79219e-06
0.00156929
-2.95735e-08
0.0015744
-6.46709e-07
0.00157596
-1.35538e-06
0.00157632
-3.71587e-07
0.00157599
1.25077e-06
0.00157527
-3.41758e-07
0.00157413
-2.205e-06
0.00157053
2.31796e-06
0.00156474
7.30908e-06
0.00155814
6.17824e-06
-2.79496e-06
0.00157032
-6.96191e-06
0.00156684
-4.94761e-06
0.00156835
-2.36147e-06
0.00157006
2.29499e-06
0.00157093
4.55667e-06
0.00157222
2.51295e-06
0.00156952
-9.36663e-07
0.00156142
-3.4019e-06
0.00155671
-3.03781e-06
0.00155623
2.48983e-06
0.00155015
5.62974e-06
0.00154679
3.90468e-06
0.00155209
6.21124e-07
0.00155436
-4.85326e-07
0.00155608
-1.56287e-06
0.00155804
-1.78703e-06
0.00155771
-2.95108e-06
0.00155637
-2.08632e-06
0.0015571
-1.02299e-06
0.00156238
-9.58812e-07
0.00156929
-2.01581e-06
0.00157377
-4.51278e-06
0.00157576
-2.88631e-06
0.00157367
2.11419e-06
0.00157293
2.05049e-06
0.0015736
2.6478e-07
0.00157071
4.82362e-07
0.00156479
2.66188e-06
0.00156641
3.06347e-06
0.00157135
4.55404e-06
0.00157108
7.09542e-06
-3.19722e-06
0.00156869
-7.99281e-06
0.0015688
-2.96954e-06
0.00156889
-1.30515e-06
0.00156859
1.92485e-06
0.00156775
3.50557e-06
0.00156989
-1.62937e-06
0.001573
-5.91247e-06
0.00157297
-5.27481e-06
0.00157017
1.87589e-07
0.00156677
6.97156e-06
0.00156253
6.42585e-06
0.0015651
-1.72775e-07
0.00157196
-3.03309e-06
0.00157364
-1.03876e-06
0.00157289
-7.83359e-07
0.00157321
-2.46184e-06
0.00157141
-2.49572e-06
0.00156874
-1.24334e-06
0.00156869
5.9335e-07
0.00157028
1.43102e-06
0.00157414
-2.61834e-06
0.00157284
-4.35161e-06
0.00157079
-2.00816e-06
0.00156897
5.11547e-06
0.00156708
5.5103e-06
0.00156489
2.15696e-06
0.00156312
1.15812e-06
0.00156765
-5.80919e-07
0.00157287
8.56207e-08
0.00157303
4.14768e-06
0.00157182
4.74171e-06
-3.28913e-06
0.00157813
-9.48747e-06
0.00158185
-5.09266e-06
0.00157725
-5.69084e-07
0.00157094
1.63998e-06
0.00157196
2.54684e-07
0.00157542
-2.94099e-06
0.00157439
-1.59016e-06
0.00156716
1.2705e-06
0.00156179
4.35135e-06
0.00156554
3.16766e-06
0.00156674
3.08013e-06
0.00156565
3.67746e-07
0.00156667
-1.107e-06
0.00156718
-6.10631e-07
0.00156566
6.47933e-08
0.00156849
-2.43473e-06
0.00156924
-1.74882e-06
0.00156635
1.04464e-06
0.0015681
2.37313e-07
0.00157289
-5.00525e-07
0.00157512
-4.26588e-06
0.00157375
-4.7371e-06
0.0015728
-3.48728e-06
0.00157472
4.86572e-06
0.00157682
4.93128e-06
0.00157554
2.55903e-06
0.0015734
2.50669e-06
0.00157108
2.31839e-06
0.00156984
1.86933e-06
0.00157285
1.60171e-06
0.00157584
2.26754e-06
-6.69257e-07
0.00157309
-4.6935e-06
0.00157207
-4.18123e-06
0.00157016
9.66848e-07
0.00156573
3.81678e-06
0.0015602
4.15366e-06
0.00155113
1.18757e-06
0.00154962
-2.76873e-06
0.0015547
-2.75758e-06
0.00156248
-6.00577e-07
0.0015649
1.74531e-06
0.00156407
2.15076e-06
0.00156593
-1.01104e-06
0.00157002
-2.03297e-06
0.00157063
-8.43312e-07
0.00156785
-2.21517e-07
0.00156721
-1.54485e-06
0.00156932
-1.45322e-06
0.00157247
7.66179e-07
0.0015746
6.61622e-07
0.00157385
3.71066e-07
0.00157005
-1.51547e-06
0.00156381
-1.76836e-06
0.00156101
-3.48551e-06
0.00156608
3.87335e-06
0.00156823
6.2687e-06
0.00156822
1.61393e-06
0.00156869
1.09545e-07
0.00156616
3.37481e-06
0.00156613
1.09985e-06
0.00157098
-2.50001e-06
0.00157589
-7.22458e-07
-4.3777e-07
0.00154194
0.0015381
0.00153994
0.00154306
0.00154686
0.00154252
0.00153575
0.00153339
0.00153734
0.00153909
0.00153872
0.00153884
0.00153995
0.00154022
0.00153672
0.00153364
0.00153434
0.0015384
0.00154074
0.00154203
0.00154146
0.00153228
0.00151973
0.00152888
0.00154325
0.00154694
0.00154608
0.00154777
0.0015463
0.00154169
0.0015427
)
;

boundaryField
{
    wall
    {
        type            calculated;
        value           uniform 0;
    }
    outlet
    {
        type            cyclic;
        value           nonuniform List<scalar> 
16
(
0.00151018
0.00153915
0.00153853
0.00153788
0.00154209
0.00154233
0.00154841
0.00151265
0.0015414
0.00156324
0.00156259
0.00157257
0.00156884
0.00157402
0.00157717
0.00154472
)
;
    }
    inlet
    {
        type            cyclic;
        value           nonuniform List<scalar> 
16
(
-0.00151018
-0.00153915
-0.00153853
-0.00153788
-0.00154209
-0.00154233
-0.00154841
-0.00151265
-0.0015414
-0.00156324
-0.00156259
-0.00157257
-0.00156884
-0.00157402
-0.00157717
-0.00154472
)
;
    }
    procBoundary0to1
    {
        type            processor;
        value           nonuniform List<scalar> 
256
(
-2.15497e-06
-5.76221e-07
1.1659e-06
4.65762e-07
-1.77285e-07
3.02567e-06
4.4133e-06
8.40979e-07
-1.62286e-06
-1.94844e-06
-4.03027e-06
-4.8072e-06
1.9331e-06
7.04077e-06
5.47128e-06
-1.83542e-06
-4.18593e-06
-2.11069e-06
1.31787e-07
4.94982e-07
-4.94615e-07
-3.31533e-06
-4.06225e-06
-1.42642e-06
-4.63094e-07
-1.05568e-06
2.84888e-07
2.34463e-06
1.78004e-08
7.2667e-08
2.23433e-06
1.36288e-06
-5.18334e-06
-1.47721e-06
2.04516e-06
1.12565e-06
1.52659e-06
4.18983e-06
3.21164e-06
-1.73599e-06
-3.57922e-06
-2.55839e-06
-2.56011e-06
-3.08872e-06
1.8106e-06
4.11556e-06
3.74861e-06
-5.19444e-07
-2.1764e-06
-5.7942e-07
9.89626e-07
6.61237e-07
-2.71933e-07
-2.07119e-06
-3.51392e-06
-2.69721e-06
-1.21947e-06
2.9981e-07
1.22007e-06
4.18833e-07
-3.49188e-07
2.17764e-06
3.6032e-06
7.35244e-07
-3.91104e-06
-1.76231e-06
-1.11344e-06
1.50571e-06
3.9914e-06
5.82807e-06
6.27286e-06
-2.31635e-07
-4.1041e-06
-2.56483e-06
-3.61608e-07
-2.15717e-06
-1.1891e-06
3.96154e-06
3.84022e-06
3.21827e-07
-8.94347e-07
-6.40831e-08
1.25656e-07
-1.89804e-07
-2.1295e-06
-4.06534e-06
-3.64591e-06
-1.72071e-06
-2.61741e-06
-2.16911e-06
1.15274e-06
3.303e-06
2.3007e-06
2.96403e-06
4.49645e-06
-1.11474e-06
-1.28753e-06
2.82845e-06
1.27756e-06
5.82898e-07
2.57856e-06
3.67223e-06
2.15282e-06
-1.70592e-07
-1.3626e-06
-2.01245e-06
2.75092e-07
1.52864e-06
1.15172e-06
3.77251e-07
-1.55687e-07
1.51615e-06
2.47319e-06
1.23374e-06
-5.00506e-07
-2.87395e-06
-2.77366e-06
-2.00564e-06
-1.00905e-06
2.07273e-07
-1.16591e-06
-1.76021e-07
2.79248e-06
2.97172e-06
-1.69127e-06
-1.13043e-06
1.44782e-06
-1.75127e-06
4.45064e-06
-1.53927e-06
-2.10494e-06
2.06402e-06
4.19198e-06
3.30655e-06
2.44119e-06
1.90978e-06
-7.7219e-07
-3.5636e-06
-9.8692e-07
1.42523e-06
8.0968e-07
-4.76058e-07
-1.22833e-06
1.57824e-06
2.38756e-06
2.2063e-06
-1.91651e-06
-3.45087e-06
-2.29509e-06
-8.26742e-07
-5.83368e-07
4.02393e-07
1.8271e-07
-1.93661e-07
3.51873e-07
-1.61089e-06
-3.29991e-06
-7.41472e-07
4.88768e-06
5.41477e-06
-7.02526e-07
-5.29613e-06
-5.57152e-07
6.04574e-06
4.23398e-06
3.15512e-07
-1.41713e-06
1.22603e-06
-3.45311e-07
-2.29314e-06
-4.74967e-07
1.14895e-06
9.44115e-07
9.82992e-07
8.5024e-07
-1.40715e-06
-1.27728e-06
-2.7029e-07
-1.21117e-06
-1.79049e-06
-6.89546e-07
-9.97004e-07
-1.19651e-06
7.36146e-07
1.68782e-06
1.36209e-07
-1.93742e-07
4.53425e-08
-1.07083e-06
-2.2462e-06
-1.77422e-06
1.34042e-08
-2.21339e-06
-2.57614e-06
-1.21675e-06
2.93406e-06
2.2107e-06
5.66664e-07
1.12209e-06
4.30619e-07
-2.43693e-06
-2.33299e-06
-2.11883e-06
-4.46601e-07
1.98255e-06
2.36864e-06
7.28839e-07
-1.0812e-06
-7.82639e-07
-1.79469e-06
-1.55684e-06
6.58382e-07
1.43694e-06
9.51873e-07
-3.11625e-07
-1.64356e-06
-1.27779e-06
5.97388e-07
1.73092e-06
2.24e-06
3.63509e-07
-1.67328e-06
-2.2985e-06
-1.85413e-06
-1.65505e-06
-3.08028e-06
-3.01462e-06
2.01689e-06
1.69733e-06
3.60363e-06
3.39902e-06
2.49146e-06
-7.76287e-07
-2.40534e-06
-3.22834e-06
-7.18606e-07
2.00492e-06
1.11695e-06
3.93592e-07
5.32037e-07
-4.0568e-07
-2.37792e-06
-1.57477e-06
9.98999e-08
2.45533e-06
5.14001e-06
2.67972e-06
-5.77715e-06
-4.57782e-06
-7.67926e-07
1.31977e-06
2.25718e-06
2.91547e-06
1.6466e-06
-2.97927e-06
-2.62278e-06
)
;
    }
}


// ************************************************************************* //
