/*--------------------------------*- C++ -*----------------------------------*\
| =========                 |                                                 |
| \\      /  F ield         | OpenFOAM: The Open Source CFD Toolbox           |
|  \\    /   O peration     | Version:  2506                                  |
|   \\  /    A nd           | Website:  www.openfoam.com                      |
|    \\/     M anipulation  |                                                 |
\*---------------------------------------------------------------------------*/
FoamFile
{
    version     2.0;
    format      ascii;
    arch        "LSB;label=32;scalar=64";
    class       volVectorField;
    location    "0.01";
    object      U;
}
// * * * * * * * * * * * * * * * * * * * * * * * * * * * * * * * * * * * * * //

dimensions      [0 1 -1 0 0 0 0];

internalField   nonuniform List<vector> 
512
(
(9.80847 0.00626617 -0.0027204)
(9.83139 -0.00140097 0.00514018)
(9.81347 0.000369153 0.0111502)
(9.79372 -0.0169285 -0.0174054)
(9.81403 -0.0194962 -0.0235405)
(9.83112 0.00932821 0.00641224)
(9.81938 0.0183398 0.0188011)
(9.7542 -0.00262627 -0.0266553)
(9.73377 -0.00540637 -0.0324728)
(9.75046 0.0142614 0.0221135)
(9.77548 0.00734827 0.0209545)
(9.80265 -0.00397332 -0.0347602)
(9.80381 -0.00153413 -0.0293821)
(9.79575 0.007262 0.028038)
(9.80041 0.0100015 0.029973)
(9.81764 0.00281804 -0.00107134)
(9.79598 0.00183043 -0.0152185)
(9.7866 0.00394507 -0.013272)
(9.77506 0.00109616 0.015741)
(9.7722 -0.00186146 0.0241996)
(9.80506 -0.00534549 0.00320327)
(9.82623 0.0015215 -0.0081433)
(9.79677 0.00578323 -0.0122071)
(9.76303 -0.00117778 -0.020117)
(9.7583 -0.00182937 -0.0359412)
(9.76741 -0.00186248 -0.0598435)
(9.76783 0.00638508 -0.0141135)
(9.76883 0.0145343 0.0362796)
(9.76477 -0.00239241 0.0296645)
(9.74783 -0.0174975 0.00148084)
(9.74918 -0.00991019 -0.00167393)
(9.75409 0.0125498 0.00332255)
(9.96586 0.00262741 -0.002177)
(9.9918 -0.00553371 0.00988919)
(10.025 3.65269e-05 0.00548208)
(10.0005 0.00734612 -0.000511456)
(9.92984 -0.000472125 0.000534168)
(9.93999 0.00891728 0.00158649)
(9.95603 0.0332719 0.00469232)
(9.93397 0.0134704 -0.0177303)
(9.93315 0.00613267 -0.0298246)
(9.96673 0.0148901 -0.00396339)
(9.9796 -0.00147473 0.0139637)
(9.95605 -0.00959401 0.00208861)
(9.94219 -0.00575964 -0.000948165)
(9.94143 -0.0040141 0.0260693)
(9.95209 -0.00273491 0.0258386)
(9.98446 -0.00196631 0.00279305)
(9.97926 -0.00109235 -0.0134941)
(9.96621 -0.00870866 -0.020423)
(9.96466 -0.0140371 -0.0165178)
(9.95988 0.00759305 0.0179558)
(9.96735 0.0198906 0.0284462)
(9.98135 0.00979621 -0.00918431)
(9.97329 -0.00436428 -0.0157312)
(9.97104 -0.0178484 -0.0104982)
(9.97606 -0.0113536 -0.017932)
(9.96658 0.0183909 -0.0438341)
(9.97145 0.0260724 -0.0273787)
(9.9913 0.00227717 0.00913678)
(9.99245 -0.0112613 0.0158451)
(9.95958 -0.0140853 0.01727)
(9.92418 -0.000373401 0.00706688)
(9.91779 0.00569533 -0.00432377)
(9.96387 -0.0497684 -0.00766761)
(9.99387 -0.0383975 -0.00169393)
(10.0564 -0.0026791 0.00625873)
(10.046 0.0176803 0.0101075)
(9.97926 0.0275192 0.00167219)
(9.96477 0.0206354 0.00223268)
(9.95054 0.0143954 0.0126251)
(9.94005 -0.0130262 -0.00624098)
(9.95378 -0.0341672 -0.0296738)
(9.98682 0.0128527 -0.0131261)
(9.9882 0.0281656 -0.00367845)
(9.96996 0.0264332 -0.00553257)
(9.95386 0.0106362 -0.00243308)
(9.96397 0.00705653 0.014376)
(9.96482 -0.000510421 0.0164186)
(9.96175 -0.00401976 -0.00244781)
(9.96063 -0.0101258 -0.00796864)
(9.95719 -0.0224023 -0.00778686)
(9.96006 -0.010149 0.00013618)
(9.97275 0.0232214 0.0119212)
(9.99614 0.0109667 0.000412834)
(10.011 -0.01298 -0.013508)
(9.99683 -0.0217881 -0.00739778)
(9.96178 -0.0158532 0.0168721)
(9.95779 -0.00120555 0.00208763)
(9.95899 0.0157471 -0.0194958)
(9.96643 0.0139465 -0.010456)
(9.99128 0.00632363 0.000794945)
(9.99279 0.0131721 0.00371875)
(9.95033 0.0383812 -0.000474218)
(9.91899 0.0218693 -0.00247455)
(9.9369 -0.0134506 -0.00654601)
(9.97839 -0.0723832 0.00374219)
(9.9819 -0.0666716 0.0119619)
(10.0286 -0.0289521 0.00149498)
(10.0165 0.0107552 0.000227574)
(9.98632 0.0615372 0.0153284)
(9.99184 0.0579911 0.0240835)
(9.96771 0.0188559 0.0116599)
(9.95366 -0.021208 -0.0256969)
(9.97422 -0.0329028 -0.0324822)
(10.0157 0.00571903 -0.019411)
(10.007 0.017099 -0.0182724)
(9.99165 0.0170137 -0.0148829)
(9.95987 -0.00429349 0.0311794)
(9.95386 -0.000666234 0.0286421)
(9.96761 0.01057 0.0145545)
(9.95372 0.0100526 0.00843768)
(9.912 -0.0115523 -0.000616321)
(9.90903 -0.0268982 -0.00120507)
(9.94973 -0.0117775 -0.00522427)
(9.97866 0.0166919 0.0018254)
(9.98525 0.0221492 0.0135761)
(10.0065 -0.0125763 0.00331554)
(9.98622 -0.0164436 -0.000124449)
(9.952 -0.0109407 0.0084909)
(9.96397 -0.0205129 0.00183468)
(9.96742 -0.0223062 -0.00428964)
(9.95456 -0.00113406 0.000871693)
(9.96274 -1.57494e-05 0.00420412)
(9.96779 0.0335943 0.0065341)
(9.95372 0.061589 0.00298479)
(9.94449 0.0560457 0.00343316)
(9.96426 -0.0289666 -0.00328695)
(9.97246 -0.0703471 0.00928757)
(9.98136 -0.0309192 0.012129)
(9.96184 -0.0155244 0.0103971)
(9.91501 -0.00298007 0.0152262)
(9.92209 0.00926845 0.0134212)
(10.0275 0.0296458 -0.00412919)
(10.0148 0.00855747 -0.018409)
(9.98462 -0.0122474 -0.0237066)
(9.99892 0.00148602 -0.0178771)
(10.0156 0.0254316 -0.0119977)
(10.0141 0.0305879 -0.0251597)
(10.0113 0.0268056 -0.0233032)
(9.97781 -0.00237602 0.0217765)
(9.97668 -0.00312107 0.0163485)
(10.0007 -0.00165143 0.00127646)
(10.0016 -0.00764044 -0.00181566)
(9.97372 0.000488715 -0.000610194)
(9.96424 0.00484605 0.000889636)
(9.96692 -0.00685415 0.000413263)
(9.97831 -0.00956627 0.00293666)
(9.99949 -0.00765752 0.00613207)
(9.99853 -0.0159939 -0.0138582)
(9.9783 -0.015885 -0.0142383)
(9.94769 -0.00300961 0.00956881)
(9.94488 -0.00372511 0.0124083)
(9.9438 -0.00277072 -0.000259784)
(9.94633 0.0164167 -0.00881828)
(9.96658 0.0188546 -0.0032653)
(9.99388 0.0161615 -0.00178928)
(9.97626 0.0221068 -0.000221432)
(9.96602 0.0353564 0.00614689)
(9.97013 -0.0264206 0.00460682)
(9.96815 -0.068651 0.0355364)
(10.005 -0.0271246 -0.00878189)
(10.0141 -0.014399 -0.0321755)
(9.99627 -0.0324668 -0.0178386)
(9.99275 -0.0323122 0.00748692)
(9.98874 -0.0234792 0.0230156)
(9.96067 -0.0142486 0.00602787)
(9.92144 -0.0128072 -0.0113662)
(9.96106 0.00998049 -0.012305)
(9.97636 0.0263666 -0.0057865)
(9.99268 0.0235477 -0.017464)
(10.0043 0.0163096 -0.0180771)
(9.99025 -0.0108754 0.0238583)
(9.99166 -0.00709819 0.0180789)
(9.99978 0.0109548 0.000230235)
(10.0007 0.0122055 0.00180623)
(9.98813 -0.00132308 -0.000680891)
(9.98146 -0.0132181 -0.00216748)
(9.96762 -0.0105838 0.0119117)
(9.94828 -0.00735534 0.0250802)
(9.95389 -0.0126742 0.0130052)
(9.98566 -0.0154445 -0.0164704)
(9.99013 -0.0130786 -0.0146651)
(9.97043 0.0122106 0.0170494)
(9.96176 0.0128356 0.0216501)
(9.94593 0.00881232 -0.0098344)
(9.93175 0.00239426 -0.0133986)
(9.93285 -0.0081271 -0.0050348)
(9.96109 0.00335784 -0.00453094)
(9.98031 0.0278928 -0.00760691)
(9.97251 0.0318215 -0.00341676)
(9.96028 -0.0396606 0.0226705)
(9.97209 -0.028926 0.00246881)
(9.95365 -0.0241959 -0.000383586)
(9.93089 0.00844029 -0.00246837)
(9.90165 -0.0046262 0.0104064)
(9.90384 -0.0126818 0.0085694)
(9.95654 0.00276626 -0.0210779)
(9.956 0.0231782 -0.0343587)
(9.93286 0.0145025 -0.0261232)
(9.96414 -0.000454995 -0.00339994)
(9.97804 0.00711692 0.00539704)
(10.0023 0.0181454 -0.0198546)
(10.0106 0.0149986 -0.0217375)
(9.99682 -0.00332562 0.0273372)
(9.99429 -0.00811432 0.0273206)
(10.0022 0.0180789 -0.0169844)
(9.99265 0.0166346 -0.017178)
(9.96626 -0.021561 0.0116017)
(9.97211 -0.0136153 0.0158798)
(9.97189 0.00440932 0.0181636)
(9.95682 -0.0117046 0.012629)
(9.9558 -0.0414204 0.000494325)
(9.97966 -0.0149606 -0.0171129)
(9.99861 0.00418985 -0.0203718)
(9.98134 0.0298891 0.0101221)
(9.97638 0.0316958 0.0127167)
(9.95078 -0.00969649 -0.0047982)
(9.93337 -0.00890215 -0.00480878)
(9.93746 0.0102077 -0.00114637)
(9.98505 0.00865222 -0.00103563)
(10.0004 0.00459231 0.000913055)
(9.98281 0.0306599 0.00260454)
(9.9896 0.0361279 0.00357305)
(9.78035 -0.0270767 0.0102175)
(9.81084 0.0214086 -0.0106766)
(9.80997 0.0354543 -0.0138413)
(9.76898 -0.00529432 0.0164769)
(9.76779 -0.0253436 0.0213527)
(9.78751 -0.00512486 -0.0165725)
(9.77277 0.0036579 -0.0306378)
(9.76112 -0.00429641 -0.0195857)
(9.78822 -0.0199324 0.0220893)
(9.81431 -0.00451731 0.0112769)
(9.83173 0.0117201 -0.0294405)
(9.82476 0.00918007 -0.0259138)
(9.80807 -0.000666701 0.0267334)
(9.80442 -0.00327161 0.0279399)
(9.80709 0.00137173 -0.0190394)
(9.79861 0.00116785 -0.0191011)
(9.77806 -0.00122777 0.0162629)
(9.77695 0.00169384 0.0176079)
(9.78974 0.00615811 0.0125933)
(9.76953 -0.00928137 0.0164272)
(9.75269 -0.0241862 0.0270698)
(9.79072 -0.0102895 -0.0110078)
(9.83182 0.010853 -0.0446287)
(9.81886 0.016899 -0.0113153)
(9.81537 0.0244829 0.017817)
(9.76316 0.00783049 0.0124658)
(9.69658 -0.00861171 0.00292107)
(9.74127 0.00344359 0.00513369)
(9.79844 0.00529042 0.0038305)
(9.79111 -0.0308154 -0.00646328)
(9.75373 -0.0260704 -0.0101521)
(9.739 -0.0249284 0.00163127)
(9.97152 0.00491144 -0.00839366)
(9.99822 0.00795313 -0.0146122)
(10.0104 -0.00754518 -0.00059288)
(9.9866 -0.00774166 0.00418653)
(9.92078 0.00748758 0.000510904)
(9.92401 0.00984692 0.0218296)
(9.93606 0.011399 0.0520803)
(9.92329 0.00651077 0.0292648)
(9.9177 -0.00151942 0.00908284)
(9.96047 -0.000733969 -0.00716686)
(9.96109 0.00419783 -0.0264278)
(9.96587 0.00800774 -0.0329549)
(9.96073 0.00784711 0.00365656)
(9.94264 0.00472025 0.0214436)
(9.92939 0.00203359 0.00892689)
(9.93825 0.00552285 -0.0108922)
(9.9538 0.0123759 -0.0180912)
(9.96693 -0.00362585 -0.00714744)
(9.94461 -0.0204512 0.0112507)
(9.93965 -0.0145423 0.014887)
(9.94306 -0.000681544 -0.00130546)
(9.93301 0.00258255 -0.0260819)
(9.93484 0.00464491 -0.016169)
(9.97376 -0.00475136 0.0215554)
(9.98071 -0.00410119 0.0138734)
(9.96942 0.008256 -0.00850069)
(9.95447 0.00667821 0.00979157)
(9.94642 0.00475666 0.0163222)
(9.93733 -0.00408767 -0.00216859)
(9.93692 -0.00375669 -0.00395541)
(9.92934 0.00178731 0.00885794)
(9.91975 -0.0018753 0.0110344)
(10.1441 -0.00723446 -0.0227635)
(10.1834 -0.00480701 0.00547588)
(10.2248 -0.00326682 0.0211241)
(10.2117 0.00472528 0.00244623)
(10.1642 0.0119055 -0.00932142)
(10.1507 0.00857657 0.0107872)
(10.1329 0.010587 0.027549)
(10.1089 -0.00400815 0.00529924)
(10.1092 -0.0123941 -0.00749781)
(10.1585 -0.013286 -0.010848)
(10.1543 -0.00660703 -0.0130256)
(10.1511 0.00172974 -0.0115049)
(10.1519 -0.00311772 0.0141045)
(10.1464 -0.00713062 0.0187496)
(10.1412 -0.0104511 0.00247239)
(10.1367 -0.00468863 -0.00346393)
(10.1494 0.00214237 -0.00587819)
(10.1551 -0.0014046 -0.00697849)
(10.1183 -0.00999051 0.00525875)
(10.1106 -0.00485774 0.0123118)
(10.1068 0.000282307 0.0109713)
(10.1163 0.0284193 -0.0190483)
(10.1231 0.0316402 -0.0177737)
(10.1625 -0.0208737 0.0154484)
(10.1759 -0.0311421 0.0153828)
(10.1639 0.0123542 -0.00194241)
(10.1505 0.0176367 0.00676142)
(10.1509 0.00222193 0.00216001)
(10.151 -0.00972945 -0.0066883)
(10.1361 -0.00260042 0.00936785)
(10.1109 0.00101871 0.0209983)
(10.1043 -0.00497436 0.0107732)
(10.1657 -0.040933 -0.0239779)
(10.1859 -0.0374681 -0.00809192)
(10.2179 -0.0210181 0.0110937)
(10.2063 0.0176578 0.00731101)
(10.166 0.0539451 0.00502698)
(10.1561 0.0481491 0.0146683)
(10.1388 0.0237438 0.0372231)
(10.1339 -0.0194829 0.00960428)
(10.1524 -0.0406964 -0.0139223)
(10.1988 -0.0158565 -0.0203163)
(10.1742 -0.00293226 -0.00661524)
(10.1604 0.00606177 -0.00770575)
(10.1643 0.00937544 -0.013252)
(10.1584 0.00885073 0.0129821)
(10.1552 0.00604169 0.0171633)
(10.1645 0.00855573 0.00921442)
(10.1379 -0.000997476 0.000466679)
(10.1015 -0.0122906 -0.00206378)
(10.1027 -0.00372759 0.00541679)
(10.1167 0.00906776 0.00590373)
(10.1095 0.0182588 -0.0104618)
(10.1129 0.017591 -0.0213786)
(10.1189 0.00974496 -0.0185412)
(10.1516 -0.0106748 0.00523461)
(10.1605 -0.00744021 0.00196158)
(10.1638 0.0157496 -0.0292975)
(10.158 0.00855888 -0.0155498)
(10.1697 -0.0158455 0.0184809)
(10.161 -0.00301431 0.024933)
(10.1221 0.0369707 0.0276765)
(10.1009 0.0265349 0.0263217)
(10.1204 0.000450787 0.00238581)
(10.1649 -0.0657998 -0.0134509)
(10.1841 -0.0501473 0.0125883)
(10.1757 -0.0114764 0.0153196)
(10.1402 0.0297883 0.00201314)
(10.1355 0.0389471 0.00677546)
(10.1949 0.0108889 0.0127517)
(10.1812 -0.0174343 0.00255467)
(10.1295 -0.0418706 -0.0125885)
(10.1294 -0.0406269 -0.0166291)
(10.2011 0.0173215 -0.0155168)
(10.2005 0.0266884 -0.00588273)
(10.1856 0.0257147 0.00492768)
(10.1792 0.0217997 0.00509036)
(10.1498 0.0071993 0.00223539)
(10.1289 -0.00385762 0.000989683)
(10.1076 -0.0111425 0.0185355)
(10.0737 -0.0192787 0.021329)
(10.0657 -0.0167238 0.00453519)
(10.1075 -0.0101973 -0.00466264)
(10.1347 -0.0026188 -0.0162651)
(10.1354 0.00306643 -0.0133295)
(10.1432 -0.0163244 -0.017621)
(10.1431 -0.0234421 -0.00954126)
(10.1341 -0.00980301 0.0118587)
(10.1308 -0.00218299 0.00029667)
(10.1226 -0.00521967 -0.00326836)
(10.1273 -0.0120712 0.00978523)
(10.1429 -0.00689721 0.0195361)
(10.1677 0.0335717 -0.00506795)
(10.1556 0.0606673 0.00769663)
(10.1505 0.0642779 0.0204759)
(10.1649 -0.0175685 -0.0045307)
(10.1617 -0.0375129 0.0323145)
(10.1812 -0.0272192 -0.00961227)
(10.1522 -0.0288106 -0.0250849)
(10.1154 0.0100322 0.0126175)
(10.1157 0.0325025 0.0298299)
(10.1828 0.019826 0.0287657)
(10.1853 -0.0167188 0.0241503)
(10.1504 -0.0263591 0.0177988)
(10.1519 -0.0035375 0.00316888)
(10.1633 0.0314852 -0.030072)
(10.1587 0.0398844 -0.0260437)
(10.1686 0.0093693 0.0114627)
(10.1646 -0.0107586 0.0125395)
(10.154 -0.0122435 -0.00606502)
(10.1564 -0.0126073 -0.0100333)
(10.1612 -0.0159312 0.0186238)
(10.1484 -0.0172628 0.0237281)
(10.1307 -0.00598894 0.00973494)
(10.1318 0.00179882 -0.00768432)
(10.1358 0.0039151 -0.00282771)
(10.1496 -0.022506 0.00793797)
(10.1515 -0.0354068 0.000959218)
(10.1398 -0.0123032 -0.00429876)
(10.1238 0.0311181 0.000354074)
(10.1119 0.0342076 0.00476439)
(10.1064 0.0110289 0.000453286)
(10.114 0.0116421 0.000866019)
(10.1662 0.0123548 -0.00547981)
(10.1811 0.00435301 -0.0177847)
(10.1582 0.0186322 -0.0105855)
(10.1373 0.0324132 0.0170111)
(10.1421 -0.00807165 0.0313829)
(10.1337 -0.0596831 0.00122727)
(10.2213 -0.00133976 -0.0252831)
(10.2393 0.0220556 -0.0244403)
(10.2024 0.00131949 0.00309636)
(10.1756 -0.0145998 0.011597)
(10.1359 -0.0310327 0.0166564)
(10.1317 -0.0266133 0.0227746)
(10.1267 -0.00840863 0.0192829)
(10.13 0.0177078 -0.0134823)
(10.1429 0.0327179 -0.0329536)
(10.1415 0.0337796 -0.0163002)
(10.1493 0.00289123 0.0162976)
(10.1579 -0.0142127 0.0163241)
(10.1785 -0.00623799 0.00518033)
(10.1793 -0.00295357 0.00426545)
(10.181 -0.01386 0.0126233)
(10.153 -0.00896251 0.00748602)
(10.1223 -0.00246202 -0.0015048)
(10.1311 0.000996997 -0.00365029)
(10.1503 0.00595539 -0.0103739)
(10.152 -0.021064 -0.0104851)
(10.1462 -0.0282545 -0.0217981)
(10.1329 -0.0185454 -0.0379654)
(10.1519 0.0296298 -0.00213738)
(10.1672 0.0311929 0.013815)
(10.1849 0.0173432 0.00967152)
(10.1588 0.0104839 0.00732527)
(10.1337 -0.00397173 0.0101193)
(10.1343 0.000798427 -0.00145205)
(10.1237 0.0143372 -0.0156133)
(10.125 0.0177043 -0.0139277)
(10.1244 -0.0338356 -0.00249626)
(10.1627 -0.0531128 -0.0175578)
(10.1568 -0.0552797 -0.0214264)
(10.162 -0.0164335 -0.0157659)
(10.0646 0.0338627 0.00766719)
(10.0463 0.0346678 0.00895521)
(10.087 -0.00753441 -0.0031596)
(10.1486 -0.0220965 0.010522)
(10.1591 -0.0104336 0.0181843)
(10.1585 0.00508952 -0.0158756)
(10.1497 0.0140946 -0.030246)
(10.1468 0.012763 -0.0214865)
(10.1646 -0.00595714 0.0107527)
(10.1792 -0.00859837 0.0259081)
(10.1854 -0.000730913 0.0090154)
(10.1876 0.00406358 -0.00480015)
(10.1484 -0.0147803 0.00297057)
(10.138 -0.0182588 0.00578685)
(10.1532 0.00554013 0.00335609)
(10.1587 0.00510969 0.00332989)
(10.1586 -0.00190771 0.0072174)
(10.1301 -0.0202609 0.00897633)
(10.1188 -0.0226977 -0.00819404)
(10.1299 -0.0262367 -0.0189891)
(10.154 0.0310431 0.000900992)
(10.1628 0.0361324 0.00500746)
(10.1731 0.00649636 2.80258e-07)
(10.1491 0.00412839 0.00281742)
(10.1235 0.0239587 0.0072768)
(10.1426 0.0175326 -0.00154126)
(10.1558 -0.000944399 -0.00924175)
(10.1563 0.01284 -0.0116321)
(10.1739 0.018381 -0.0129307)
(9.97471 -0.0238347 -0.0103347)
(9.97571 -0.0100912 -0.0225735)
(9.94678 0.00948147 -0.0176298)
(9.86548 0.0236734 0.0155395)
(9.87517 0.0178764 0.0107739)
(9.96938 0.0113612 0.00834846)
(9.96631 0.0103899 0.0161309)
(9.93937 0.00385901 0.028695)
(9.97947 -0.000113058 0.00200842)
(10.0013 0.00714665 -0.0278821)
(9.98873 0.00904458 -0.0296833)
(9.96722 -0.00363698 0.0158418)
(9.96663 -0.00770827 0.0280738)
(9.9765 -0.00565134 0.00658345)
(9.9827 -0.00433389 -0.0040239)
(9.94989 -0.0022871 0.00720841)
(9.94239 -0.000713124 0.00646766)
(9.95474 0.00431782 -0.00529633)
(9.95553 0.00250239 -0.00472129)
(9.94859 -0.000265222 0.00705663)
(9.93841 -0.00561262 0.0218837)
(9.93026 -0.00354686 0.00744959)
(9.95428 -0.0142211 -0.0190206)
(9.99269 0.00736781 -0.0198802)
(10.0004 0.0380904 0.00127563)
(9.96307 0.0242462 0.00463403)
(9.92548 0.00942356 0.00354864)
(9.96533 0.0165667 0.00623758)
(10.0076 0.000357599 0.00555846)
(9.99457 -0.0215786 0.00606057)
(9.93591 -0.0217332 -0.00874118)
(9.93383 -0.0252002 -0.0116613)
)
;

boundaryField
{
    wall
    {
        type            fixedValue;
        value           uniform (0 0 0);
    }
    outlet
    {
        type            cyclic;
    }
    inlet
    {
        type            cyclic;
    }
    procBoundary0to1
    {
        type            processor;
        value           nonuniform List<vector> 
256
(
(9.94971 -0.000526379 -0.0145531)
(9.97769 0.00551849 0.00982677)
(9.97799 0.00287292 0.0186609)
(9.96187 -0.00424217 -0.00190856)
(9.94676 -0.00730624 -0.0159992)
(9.95345 0.00889919 -0.00638402)
(9.94511 0.0179019 0.00246095)
(9.9291 0.0109145 -0.0110441)
(9.95145 0.00382567 -0.013355)
(9.99468 -0.00144533 0.00400261)
(9.96178 0.00138159 -0.0102953)
(9.92535 0.000309196 -0.0364874)
(9.95307 0.00140577 0.00637723)
(9.96557 -0.00161807 0.057484)
(9.9578 -0.0046918 0.0465554)
(9.96224 0.0101885 -0.0317489)
(9.96459 0.0171194 -0.0479037)
(9.9703 0.000245193 -0.0157096)
(9.96462 -0.00735604 -0.00574191)
(9.97307 -0.00279697 -0.0137152)
(9.98447 0.000804165 -0.0140689)
(9.95884 0.00716602 -0.0164087)
(9.93311 0.00721471 -0.0200735)
(9.93318 0.00148565 -0.0212054)
(9.92575 0.000582421 -0.00582036)
(9.92222 0.00141627 0.00558453)
(9.93585 0.000552145 0.00189638)
(9.94104 0.002567 0.00774731)
(9.92189 -0.00817805 -0.00502177)
(9.91817 -0.0143123 -0.00455959)
(9.91458 -0.0071248 0.00872299)
(9.91697 -0.00564673 0.00747786)
(10.1321 -0.0187458 -0.0371197)
(10.1434 0.00188073 -0.0109305)
(10.1442 0.0182723 0.0181919)
(10.1601 0.0204086 0.0163902)
(10.1734 0.019874 0.0164352)
(10.1576 0.00802602 0.00841667)
(10.1373 0.00846102 0.0097091)
(10.1323 -0.00921879 -0.0160597)
(10.1578 -0.0172208 -0.0204087)
(10.2082 -0.0143689 -0.000825412)
(10.1671 0.00303356 -0.00339798)
(10.1112 0.00545444 -0.0338028)
(10.1276 -0.01006 -0.0076817)
(10.1333 -0.00390433 0.0340812)
(10.1423 0.0154083 0.0386062)
(10.1695 0.0181212 -0.0142675)
(10.1826 0.00794803 -0.0370046)
(10.187 -0.00920332 -0.00650679)
(10.1568 -0.0104625 0.0114729)
(10.1436 -0.00449385 -6.39366e-05)
(10.141 0.0057207 -0.0140806)
(10.1371 0.00240682 -0.00873583)
(10.1412 -0.00450586 -0.0122241)
(10.1555 -0.0118635 -0.0256176)
(10.1523 -0.00821659 -0.0188062)
(10.1372 0.0110795 0.0135378)
(10.1311 0.00997979 0.0108905)
(10.1357 -0.000232711 0.000218798)
(10.0994 0.00863164 -0.00152447)
(10.0882 0.0150408 0.00676371)
(10.0976 -0.0157969 0.00668783)
(10.102 -0.0333409 -0.0101733)
(10.1246 -0.0501043 -0.0222738)
(10.1459 -0.0353205 -0.0140116)
(10.1402 -0.024531 -0.020196)
(10.1594 0.0312346 0.00488686)
(10.1585 0.0649692 0.025146)
(10.1728 0.0296531 0.0255911)
(10.172 -0.0124866 0.0288323)
(10.1601 -0.0345899 -0.0053497)
(10.1775 -0.0423354 -0.0183959)
(10.2098 -0.0212703 0.00820796)
(10.2173 0.0211943 0.0188162)
(10.135 0.0429351 -0.00224884)
(10.0962 0.0288289 -0.00722795)
(10.1158 0.00166799 0.0156251)
(10.1208 -0.00227243 0.0208035)
(10.1635 0.00346245 -0.00841137)
(10.1959 0.0100893 -0.0215761)
(10.2017 0.00144051 -0.00789065)
(10.1934 -0.00115955 -0.00709057)
(10.1929 -0.00229282 -0.0123933)
(10.1665 -0.0150536 -0.0219605)
(10.1506 -0.00918276 -0.0308308)
(10.1478 -0.00725066 -0.0312672)
(10.1518 -0.0228767 -0.0223647)
(10.1533 -0.0271039 -0.0238244)
(10.154 -0.00200003 -0.00232414)
(10.1428 0.00949199 0.0184715)
(10.1373 0.00805705 0.0216532)
(10.1274 0.0317166 0.0126462)
(10.1333 0.03289 0.022514)
(10.1404 0.0140934 0.0419236)
(10.126 -0.0480674 -0.00763494)
(10.1659 -0.0321853 -0.00683164)
(10.183 -0.0498166 0.0111233)
(10.1698 -0.0379356 0.00727898)
(10.1076 0.0317536 0.0147907)
(10.111 0.0508266 0.0163315)
(10.2139 0.0312935 0.00905712)
(10.209 0.0100765 0.00784665)
(10.1443 -0.00796592 -0.00262673)
(10.1536 -0.00621569 0.00360213)
(10.1684 -0.0207579 0.0124471)
(10.1575 -0.00961124 0.0173687)
(10.1453 0.0568009 0.0193129)
(10.1423 0.0690907 0.0141596)
(10.1347 -0.00564289 -0.00431221)
(10.1381 -0.0322776 -0.00819763)
(10.1637 -0.0284417 -0.00788171)
(10.195 -0.00114638 -0.00371545)
(10.1978 0.011618 0.0071613)
(10.1973 0.00271628 0.00746902)
(10.2078 -0.0072931 -0.00224511)
(10.1874 -0.00643315 -0.012296)
(10.16 0.000792114 -0.0214688)
(10.1396 0.00198272 -0.0155026)
(10.1357 0.000281678 -0.0083692)
(10.1404 0.00383473 -0.0122195)
(10.1388 0.0158863 -0.00778899)
(10.1477 0.00198498 0.00862401)
(10.159 -0.00201614 0.0144771)
(10.1518 0.0159622 -0.00426635)
(10.1381 0.0321207 -0.0120763)
(10.1318 0.019293 0.00563726)
(10.1338 0.00508996 -0.00537054)
(10.1396 -0.0534068 0.0324635)
(10.1997 -0.038168 0.00453889)
(10.2065 -0.00958962 -0.00931822)
(10.1723 0.00496149 -0.00766567)
(10.1593 0.00851786 0.00593317)
(10.1711 0.0230713 0.0110541)
(10.176 0.0181226 0.0143255)
(10.1658 -0.00190676 0.0124166)
(10.1642 -0.0180477 0.00457624)
(10.1515 -0.0121583 0.00323861)
(10.1197 0.0136715 0.011026)
(10.1295 0.0208243 0.00625461)
(10.1746 0.0116904 0.00106526)
(10.1672 0.00821167 -0.00121473)
(10.1389 0.00241492 -0.00733947)
(10.1622 -0.00794879 -0.00755066)
(10.183 -0.0196577 -0.00717233)
(10.2062 -0.00620693 0.00853636)
(10.1926 -0.00319192 -0.00629819)
(10.163 -0.00125621 -0.0315961)
(10.1586 -0.00149444 -0.0338147)
(10.1773 -0.0119634 -0.0169378)
(10.1737 -0.00929562 -0.0016951)
(10.1735 -0.00125334 0.0113528)
(10.153 0.0233408 -0.00116533)
(10.1287 0.0266885 -0.00725992)
(10.1402 0.0168557 -0.000981603)
(10.1642 0.0166216 -0.00646765)
(10.1698 0.00630111 -0.0220957)
(10.1568 0.00872057 -0.0049867)
(10.1514 0.0160174 0.0346632)
(10.1389 -0.0293936 0.0368329)
(10.1572 -0.0864449 -0.0227237)
(10.1604 -0.0911814 -0.0401694)
(10.1424 0.0170987 0.0130828)
(10.1244 0.0786247 0.0636486)
(10.1158 0.0701819 0.0437704)
(10.1385 0.0210352 -0.0174891)
(10.1586 0.00267728 -0.0387241)
(10.1609 -0.00944749 0.000379745)
(10.1434 -0.0246041 0.0176124)
(10.1468 0.0101968 0.00810184)
(10.1544 0.0458832 -0.00184911)
(10.1584 0.0167776 -0.00341895)
(10.1672 0.000868764 0.00472947)
(10.1719 0.0167424 0.00536914)
(10.1724 0.019308 0.00330428)
(10.1756 0.000425672 -0.0263693)
(10.181 -0.00355546 -0.028819)
(10.1785 -0.0207502 -0.0143873)
(10.1689 -0.0200448 -0.0113772)
(10.1712 0.000845439 -0.00318722)
(10.1736 -0.00385281 0.00875683)
(10.1602 -0.0172576 0.0142519)
(10.1374 -0.00444042 0.0257279)
(10.1371 0.0225151 0.0189704)
(10.1291 0.0232299 0.0110841)
(10.1496 0.00393808 -0.0125617)
(10.1534 0.00090849 -0.0136473)
(10.146 -0.00345174 -0.00911221)
(10.1385 0.00695714 -0.00570599)
(10.1295 0.0154515 -0.00533487)
(10.1386 0.0221183 -0.00751599)
(10.1701 -0.0154007 -0.00675018)
(10.1809 -0.044731 -0.0231236)
(10.1704 -0.0523077 -0.0284186)
(10.0896 -0.0210007 0.000485157)
(10.0465 0.00445596 0.0270552)
(10.0869 -0.00750964 0.00914258)
(10.1835 0.0178583 -0.00621414)
(10.1851 0.0350463 0.0210567)
(10.1539 0.0174164 0.0232462)
(10.1163 -0.00706567 0.0151163)
(10.1378 0.0142797 -0.00499285)
(10.1463 0.0190756 -0.0154594)
(10.1718 -0.00143163 -0.0168792)
(10.1809 0.00184009 0.00343702)
(10.1591 -0.00357011 0.0213035)
(10.1547 -0.00842438 0.0207426)
(10.1775 -0.00135812 -0.0137579)
(10.1846 -0.0028376 -0.0214623)
(10.1832 -0.00566004 -0.022446)
(10.1814 -0.00857101 -0.0270466)
(10.1627 -0.0174674 -0.0099338)
(10.1562 -0.023539 0.00381976)
(10.1637 -0.00221694 0.0177573)
(10.1679 0.00501517 0.0137376)
(10.1499 0.0188704 -0.0117017)
(10.1522 0.0205932 -0.0130244)
(10.1604 -0.00275571 0.00164242)
(10.1381 -0.00132128 0.00975827)
(10.1277 0.00371428 0.020601)
(10.1507 0.0132609 0.0102218)
(10.1586 0.0113941 -0.00745285)
(10.1606 0.0256455 -0.0147847)
(10.182 0.0209542 -0.0153082)
(9.9761 -0.0104106 -0.0140639)
(9.96633 -0.00309624 -0.00791316)
(9.89811 -0.0020661 -0.0112718)
(9.85478 -0.00255355 2.79492e-06)
(9.86925 -0.0119054 -0.00468955)
(9.95661 0.0129898 0.0065693)
(9.96452 0.0338204 0.0362782)
(9.95129 0.0226366 0.0295067)
(9.95877 0.01191 0.0168418)
(9.97922 0.0165564 -0.0179197)
(9.96657 0.0151797 -0.0220638)
(9.97023 0.0101159 -0.0177321)
(9.97058 -0.00472857 0.00491549)
(9.96629 -0.00922085 0.00938293)
(9.97591 -0.00811688 0.00923435)
(9.99028 0.000980857 -0.0109612)
(9.98441 -0.00255653 -0.0189555)
(9.98021 -0.0041979 -0.0149407)
(9.976 -0.00394446 -0.0124724)
(9.97434 -0.0205659 -0.0115927)
(9.98422 -0.0217154 -0.0059917)
(9.99284 0.00748685 0.0392397)
(9.98572 -0.00011822 0.0403579)
(9.97786 0.00472473 -0.0163899)
(9.97515 0.0248247 -0.0352804)
(9.94839 0.0172453 -0.0127297)
(9.91383 0.0066237 0.00997898)
(9.96679 0.0149686 0.0130857)
(10.026 -0.00361636 0.0215989)
(9.99851 -0.0212737 0.0120543)
(9.9356 -0.0148048 -0.0181872)
(9.94324 -0.0234598 -0.0213706)
)
;
    }
}


// ************************************************************************* //
