/*--------------------------------*- C++ -*----------------------------------*\
| =========                 |                                                 |
| \\      /  F ield         | OpenFOAM: The Open Source CFD Toolbox           |
|  \\    /   O peration     | Version:  2506                                  |
|   \\  /    A nd           | Website:  www.openfoam.com                      |
|    \\/     M anipulation  |                                                 |
\*---------------------------------------------------------------------------*/
FoamFile
{
    version     2.0;
    format      ascii;
    arch        "LSB;label=32;scalar=64";
    class       volVectorField;
    location    "0.01";
    object      U_0;
}
// * * * * * * * * * * * * * * * * * * * * * * * * * * * * * * * * * * * * * //

dimensions      [0 1 -1 0 0 0 0];

internalField   nonuniform List<vector> 
512
(
(9.85607 0.00481902 0.000707716)
(9.86031 0.00228518 0.0112031)
(9.81837 -0.0104462 -0.00217365)
(9.80924 -0.022483 -0.0249338)
(9.84711 -0.00708348 -0.0108277)
(9.84612 0.0188449 0.0187875)
(9.81899 0.0150598 0.0148109)
(9.75971 -0.0132025 -0.0454109)
(9.75032 0.000445649 -0.0232998)
(9.77739 0.0213677 0.0325912)
(9.8269 4.69006e-05 -0.00194241)
(9.84753 -0.00560627 -0.0470445)
(9.82748 0.000652595 -0.00451496)
(9.81209 0.00905224 0.0427201)
(9.82601 0.00888018 0.018028)
(9.83369 0.00264616 -0.00810759)
(9.8205 0.00350108 -0.0155907)
(9.81755 0.00665372 -0.00747846)
(9.79788 0.0011264 0.031367)
(9.80124 -0.00846114 0.030927)
(9.8537 -0.0104036 -0.00196487)
(9.85095 0.000898904 -0.0152884)
(9.79467 0.00378779 -0.0284031)
(9.77267 -0.00268176 -0.0381002)
(9.77631 0.000165507 -0.0594119)
(9.78535 0.00134038 -0.0685599)
(9.77899 0.0161866 0.0276591)
(9.78309 0.0134441 0.0523812)
(9.77784 -0.015702 0.0226516)
(9.76973 -0.0240694 -0.000370715)
(9.76958 -0.00457827 0.00299494)
(9.78124 0.0156711 0.00721852)
(9.99243 0.00651677 0.00470339)
(10.0109 0.00281165 0.0105089)
(10.0277 0.00183553 0.00188576)
(9.95739 0.00535834 -0.00472224)
(9.90522 -0.00383289 -0.000104394)
(9.95633 0.026825 0.00527564)
(9.96508 0.0408862 0.00678987)
(9.93564 -0.000733767 -0.0287359)
(9.94954 -0.00136325 -0.0328541)
(9.98615 0.00892353 0.00490155)
(9.98351 -0.00223089 0.0137955)
(9.95305 -0.00783986 -0.00745637)
(9.94485 -0.00870194 0.00537798)
(9.94817 -0.0086277 0.0333683)
(9.9737 -0.00102727 0.0161884)
(9.99356 0.00407929 -0.00254257)
(9.98892 0.00573639 -0.0111153)
(9.98076 -0.00972775 -0.0188712)
(9.96519 -0.00978498 -0.00522838)
(9.95348 0.0137348 0.035185)
(9.98481 0.0175789 0.0282457)
(10.0036 0.00108407 -0.0251818)
(9.97962 -0.0178947 -0.0250115)
(9.97551 -0.0216877 -0.0211503)
(9.97327 0.00357115 -0.0409513)
(9.96084 0.0323884 -0.0539809)
(9.97845 0.0252023 -0.00224712)
(9.99398 -0.00259806 0.024972)
(9.97377 -0.0179833 0.0222475)
(9.93189 -0.0158205 0.0190154)
(9.91128 -0.00926266 0.00839412)
(9.94687 0.00371296 -0.00542819)
(9.98625 -0.0571426 -0.0100404)
(10.037 -0.00854983 0.00417436)
(10.0643 0.0179368 0.0118956)
(10.0066 0.0291966 0.00818419)
(9.95329 0.0249337 -0.000903956)
(9.9616 0.0158775 0.0103392)
(9.95074 0.00944284 0.0157128)
(9.94497 -0.0338081 -0.0247371)
(9.96707 -0.0414019 -0.0345431)
(10.0125 0.0267594 -0.00941301)
(9.99464 0.0372025 -0.0143766)
(9.96194 0.0218277 -0.0154544)
(9.95324 0.00154734 0.000456364)
(9.9741 0.00298574 0.0258554)
(9.97152 -0.00262452 0.0148587)
(9.97066 0.00320576 -0.00289538)
(9.97296 -0.00899606 -0.00629156)
(9.96782 -0.024084 -0.00204228)
(9.96892 0.00261662 0.0138228)
(9.98225 0.0238743 0.0153155)
(10.0236 -0.00456092 -0.00986959)
(10.028 -0.0237855 -0.0162316)
(9.97857 -0.0277469 0.00237615)
(9.94852 -0.016838 0.0178676)
(9.96446 0.00818672 -0.0194406)
(9.96678 0.0203955 -0.0287032)
(9.97455 0.0113517 -0.00359092)
(9.98981 0.0109165 0.00561493)
(9.96444 0.0274021 0.00550923)
(9.92677 0.0462126 0.00170463)
(9.90543 0.00561684 0.000964886)
(9.97309 -0.0448929 -0.00831244)
(9.99075 -0.0863203 0.00777664)
(10.008 -0.0485869 0.00736562)
(10.0283 0.00334876 -0.00246512)
(9.99315 0.0522493 0.0109453)
(9.97754 0.0791593 0.025848)
(9.99693 0.0384178 0.0300627)
(9.95679 -0.017902 -0.00383664)
(9.95329 -0.0348648 -0.0335707)
(9.99429 -0.031525 -0.0322165)
(10.0388 0.0130383 -0.0213185)
(10.0204 0.0217259 -0.0221495)
(9.97682 0.00690304 -0.00127232)
(9.95306 -0.00966934 0.039863)
(9.96727 0.00995444 0.025013)
(9.97896 0.0165784 0.0135436)
(9.93408 0.00415161 0.00362159)
(9.90856 -0.0202328 -0.00051973)
(9.92262 -0.0324001 -0.00177029)
(9.98149 0.00683067 -0.00471511)
(9.99338 0.0277106 0.0061905)
(10.0036 0.00986166 0.0170494)
(10.0229 -0.0336835 0.00244785)
(9.96621 -0.022632 0.00227683)
(9.94578 -0.0138504 0.00791549)
(9.97885 -0.0290689 -0.00690288)
(9.96629 -0.0194624 -0.00837533)
(9.95024 -0.00334851 0.00179055)
(9.96407 0.0104429 0.00713592)
(9.96091 0.0603816 0.00582092)
(9.9546 0.0784823 0.00282355)
(9.94246 0.0307796 0.00253419)
(9.97531 -0.0681632 -0.00102613)
(9.96787 -0.074357 0.0142452)
(9.98963 -0.0095782 0.012545)
(9.94316 0.0070799 0.0102406)
(9.90468 0.019938 0.0171066)
(9.96627 0.0332453 0.00783903)
(10.0534 0.0298528 -0.00594934)
(9.9963 -0.0199853 -0.0305835)
(9.97251 -0.029727 -0.0275179)
(10.0184 0.0190529 -0.0163698)
(10.0334 0.0367145 -0.0126868)
(10.0342 0.0320976 -0.0376265)
(10.001 0.00902077 -0.0115611)
(9.97039 -0.0135104 0.0292693)
(9.99738 -0.00560524 0.00934849)
(10.0172 -0.00408447 0.00137255)
(9.99422 -0.00605945 -0.000173986)
(9.97038 0.00802264 0.00579999)
(9.97141 0.00602586 0.00200528)
(9.97928 -0.00889658 -0.0019977)
(9.99185 -0.0058189 0.00476399)
(10.0059 -0.0101959 0.00478374)
(10.0041 -0.0233521 -0.0225569)
(9.9596 -0.0170405 -0.00389559)
(9.94265 -0.00566755 0.0135785)
(9.9458 -0.00806325 0.00625555)
(9.94408 0.00177918 -0.00786577)
(9.94906 0.0248046 -0.00862939)
(9.99356 0.020373 -0.00109776)
(10.0088 0.0172591 -0.00282992)
(9.96791 0.0317015 0.00475583)
(9.95701 0.0284683 0.00872705)
(9.95985 -0.0704766 0.00681054)
(9.98344 -0.0590951 0.0359404)
(10.0402 0.00729629 -0.0300709)
(10.0237 -0.00641202 -0.0404774)
(9.97928 -0.0350878 -0.00153063)
(9.97484 -0.0257667 0.0195091)
(9.97009 -0.0249893 0.0272426)
(9.92653 -0.0260979 -0.00893786)
(9.91485 -0.0242395 -0.0164803)
(9.99948 0.0253054 -0.012797)
(10.0033 0.0319351 -0.0088034)
(10.0245 0.019124 -0.0288546)
(10.0056 -0.00299164 -0.0029249)
(9.98626 -0.0218883 0.0348543)
(10.0089 -0.00164059 0.00804481)
(10.0187 0.0158435 -0.000731413)
(10.0101 0.012957 0.00254998)
(9.98682 -0.00613018 -0.00291924)
(9.97474 -0.016447 0.00326709)
(9.95529 -0.00977939 0.0247999)
(9.94566 -0.00853942 0.027986)
(9.97342 -0.0161874 -0.00734953)
(10.0002 -0.0187318 -0.0254865)
(9.98645 -0.0129713 -0.00347517)
(9.96766 0.00949477 0.0229054)
(9.95886 0.00779348 0.0114913)
(9.94703 0.011273 -0.0170459)
(9.92962 0.0100785 -0.0111222)
(9.93515 -0.00434852 0.000109218)
(9.98465 0.0156521 -0.00512013)
(9.99441 0.0267381 -0.00653982)
(9.95963 0.00856976 0.00815945)
(9.94421 -0.0632885 0.0354559)
(9.9597 -0.0437104 0.000500158)
(9.94328 -0.00297582 -0.00207934)
(9.92077 0.0195382 0.00402834)
(9.88009 -0.0107595 0.0252828)
(9.91006 -0.0114731 0.000483696)
(9.94862 0.0105036 -0.028954)
(9.94717 0.0229887 -0.0387451)
(9.93645 0.0049103 -0.0303968)
(10.0072 -0.00628526 -0.000995083)
(10.0108 0.0110041 -0.00111452)
(10.0328 0.01963 -0.032663)
(10.0092 0.00633085 -0.00484061)
(9.99176 -0.00673512 0.0380804)
(10.0102 0.000602111 0.0107297)
(10.0238 0.0269226 -0.0261354)
(9.98489 -0.000665446 -0.00554406)
(9.96072 -0.0340205 0.0186945)
(9.98014 -0.00361996 0.0210032)
(9.97486 0.0108037 0.025272)
(9.94899 -0.0304367 0.00935557)
(9.96244 -0.045271 -0.00702518)
(9.99575 -0.00585282 -0.0277372)
(10.0002 0.00547753 -0.0107776)
(9.98595 0.0365742 0.0164772)
(9.98319 0.0249637 0.00626115)
(9.9499 -0.013362 -0.0130984)
(9.92691 0.00860987 -0.00604844)
(9.9487 0.0184724 -0.000154134)
(10.0038 0.00224442 0.00129659)
(10.0145 0.00582755 0.00394793)
(9.98101 0.0458953 0.000612687)
(9.97777 0.0129847 0.00109073)
(9.82829 -0.0130922 0.00324256)
(9.85443 0.0291995 -0.0173802)
(9.82475 0.0311053 -0.00208244)
(9.75593 -0.0216735 0.0408148)
(9.7717 -0.029484 0.0199822)
(9.79597 0.00893591 -0.0381564)
(9.78781 0.0142 -0.041112)
(9.78033 -0.00461 -0.0129738)
(9.83037 -0.0236709 0.0308421)
(9.87279 0.00546006 -0.00931368)
(9.87819 0.0131832 -0.039977)
(9.83542 0.00530276 -0.0055732)
(9.82051 -0.00108653 0.0395416)
(9.83383 -0.000919466 0.0133692)
(9.84426 0.00422589 -0.028411)
(9.81047 -0.000523653 -0.00344501)
(9.79271 -0.00231884 0.0250881)
(9.80743 0.00602457 0.0158199)
(9.81636 0.00817404 0.0151634)
(9.76338 -0.0224093 0.0241318)
(9.76081 -0.0274645 0.0254171)
(9.84123 -0.00522951 -0.0371651)
(9.87588 0.0111054 -0.0434549)
(9.84941 0.0254087 0.00832984)
(9.84932 0.029157 0.0171838)
(9.73439 0.000865927 0.00503634)
(9.69242 -0.00445025 -0.000465861)
(9.79424 0.0100308 0.00768122)
(9.82438 -0.00901686 0.00339364)
(9.811 -0.0483425 -0.00638045)
(9.75688 -0.0210867 -0.00980236)
(9.75011 -0.0223631 0.000797068)
(10.0011 0.0119631 -0.0120223)
(10.0085 0.00386935 -0.0073983)
(10.0131 -0.0129788 0.00384596)
(9.94753 -0.00414047 0.00184763)
(9.89713 0.0091754 -0.00485829)
(9.93721 0.011125 0.0457128)
(9.94667 0.0108561 0.0652432)
(9.91477 0.00158481 0.0130946)
(9.92291 -0.0009735 -0.00182533)
(9.98819 -0.00020662 -0.017632)
(9.97681 0.00424881 -0.0334559)
(9.97643 0.00739254 -0.0304811)
(9.9585 0.00445085 0.0158116)
(9.94175 0.0017841 0.0149843)
(9.93288 0.00277728 -0.000613126)
(9.94907 0.012654 -0.0182901)
(9.96733 0.018295 -0.0149783)
(9.98537 -0.00905817 -0.00081324)
(9.95574 -0.0290285 0.0195922)
(9.95075 -0.0157708 0.0175837)
(9.93444 0.000138255 -0.0129596)
(9.92429 0.00073089 -0.0311673)
(9.95394 0.00388976 -0.00426319)
(9.99067 -0.00610459 0.0230727)
(9.97472 0.00412791 -0.00379466)
(9.95842 0.0180877 -0.0180064)
(9.95553 0.00939765 0.0176638)
(9.95522 0.00142016 0.0142121)
(9.9379 -0.0111578 -0.00663821)
(9.93674 -0.00713111 0.00182826)
(9.91776 -0.00143732 0.0200903)
(9.92295 -0.00349128 0.0133575)
(10.1488 -0.00636707 -0.0178478)
(10.1935 0.00312855 0.0255254)
(10.2144 0.00316701 0.0264748)
(10.1647 0.00827089 -0.0143754)
(10.1255 0.00925517 -0.0191716)
(10.124 0.00986559 0.0229021)
(10.1145 0.0103071 0.0361784)
(10.082 -0.0138601 8.02857e-05)
(10.1011 -0.0168415 -0.0156768)
(10.1585 -0.0143738 -0.0135689)
(10.146 -0.00965268 -0.0141576)
(10.1435 -0.0050145 -0.00926469)
(10.1422 -0.00978093 0.017402)
(10.1338 -0.0109601 0.0120522)
(10.1281 -0.00576079 -0.00551828)
(10.1259 0.00593798 -0.00400934)
(10.1509 0.0155033 -0.00417884)
(10.1282 0.00301761 -0.00427605)
(10.0905 -0.00960987 0.00703049)
(10.0968 -0.0106039 0.020892)
(10.094 0.00144321 0.00816169)
(10.1055 0.0369037 -0.026904)
(10.1293 0.0160975 -0.00790026)
(10.1635 -0.034495 0.018447)
(10.1581 -0.0104171 0.00159883)
(10.1377 0.037492 -0.0118524)
(10.1305 0.0226395 0.00898706)
(10.1397 -0.00876968 -0.00137024)
(10.1239 -0.0178389 -0.00248017)
(10.0993 -0.00583476 0.027045)
(10.0833 -0.012403 0.0278724)
(10.1039 -0.0159732 -0.00447681)
(10.1699 -0.0515917 -0.0310569)
(10.1973 -0.0228358 0.00969768)
(10.1976 0.00441689 0.0211044)
(10.1607 0.0503887 0.0042833)
(10.1333 0.066839 0.00214825)
(10.1353 0.0355503 0.0288002)
(10.1196 0.00735413 0.0359595)
(10.1204 -0.0441207 -0.00763591)
(10.1507 -0.0445301 -0.0187056)
(10.1846 -0.0152161 -0.017621)
(10.1496 0.00519623 -0.00319377)
(10.1531 0.00907602 -0.0204367)
(10.1629 0.00694966 -0.0200272)
(10.1517 0.0139201 0.0251822)
(10.1457 0.0100239 0.0201424)
(10.151 0.0123212 0.00984411)
(10.099 -0.00764836 -0.00616503)
(10.0829 -0.0163681 -0.00503121)
(10.0928 0.00211254 0.00755194)
(10.0961 0.0088109 0.00121792)
(10.0925 0.0139836 -0.0167297)
(10.1129 0.0155955 -0.0277409)
(10.1225 -7.23902e-05 -0.0120858)
(10.1454 -0.0138684 0.00617778)
(10.15 0.0044615 -0.0176059)
(10.1483 0.0236697 -0.0450515)
(10.1404 -0.00241036 0.00235278)
(10.1501 -0.0183878 0.0297463)
(10.1138 0.0177198 0.0346977)
(10.0864 0.0461313 0.0376382)
(10.0732 0.00763016 0.0289341)
(10.1366 -0.0313056 -0.0167046)
(10.1492 -0.0712166 -0.0125198)
(10.1742 -0.0339141 0.018474)
(10.1398 0.0217983 0.0120771)
(10.113 0.0526034 0.00941774)
(10.1396 0.0393127 0.0158981)
(10.2045 -0.00680718 0.0096193)
(10.131 -0.04977 -0.0111669)
(10.0855 -0.0567237 -0.0174831)
(10.1227 -0.0238162 -0.0129941)
(10.2148 0.0380543 -0.00343718)
(10.1949 0.0374611 -0.00317458)
(10.1679 0.0232761 -0.00411657)
(10.1681 0.0159477 0.000546367)
(10.1243 -0.00221415 0.0028647)
(10.1022 -0.00848182 0.0110209)
(10.0737 -0.0155722 0.0254655)
(10.048 -0.0202169 0.0116779)
(10.0535 -0.0194478 -0.00702521)
(10.1236 -0.0105264 -0.00277286)
(10.1282 -0.000283903 -0.00831648)
(10.1298 0.00110591 -0.0100649)
(10.1425 -0.0329332 -0.0198153)
(10.1204 -0.0257945 -0.000358414)
(10.1105 -0.00742114 0.0104678)
(10.1123 -0.00110091 -0.0127526)
(10.1064 -0.00851606 -0.0108935)
(10.1188 -0.0181555 0.0107433)
(10.1403 0.0111984 0.0160083)
(10.1488 0.053302 -0.00130226)
(10.1377 0.0772283 0.0220635)
(10.1297 0.0464907 0.0218293)
(10.1494 -0.0638247 -0.0156585)
(10.1502 -0.037597 0.0208667)
(10.1658 -0.0189501 -0.0175685)
(10.1186 -0.00943308 -0.0243023)
(10.089 0.0418697 0.0280811)
(10.1188 0.0393014 0.0396428)
(10.1797 0.0023625 0.0338359)
(10.1466 -0.050843 0.0219627)
(10.1103 -0.0407775 0.0127584)
(10.1471 0.0245526 -0.0177701)
(10.1644 0.0479074 -0.0352186)
(10.1511 0.032078 -0.0155784)
(10.1591 -0.00655963 0.010423)
(10.1599 -0.0150964 0.00268155)
(10.1483 -0.0189075 -0.00852371)
(10.1486 -0.0173655 -0.00263285)
(10.1478 -0.018123 0.0326253)
(10.1169 -0.0132834 0.0195723)
(10.112 0.00584171 -0.00243061)
(10.1191 0.00929389 -0.010351)
(10.1296 0.000271908 0.00744654)
(10.1392 -0.0362588 0.0117274)
(10.1354 -0.0424919 -0.0043508)
(10.1088 0.00772902 -0.0090598)
(10.1032 0.0348926 -0.000553787)
(10.0914 0.026142 0.00188248)
(10.092 0.00546061 -0.00257592)
(10.1147 0.0180837 0.00276308)
(10.1732 0.0105414 -0.010576)
(10.1735 0.00619532 -0.0216006)
(10.1259 0.034931 0.00472213)
(10.1084 0.0288055 0.0261302)
(10.1218 -0.0337138 0.0381998)
(10.1597 -0.037567 -0.00518489)
(10.238 0.0359298 -0.0282071)
(10.2224 0.0397064 -0.0176985)
(10.1476 -0.00438405 0.0163339)
(10.1255 -0.0183342 0.015949)
(10.0972 -0.0405671 0.0202931)
(10.1039 -0.0408945 0.0255268)
(10.0917 -0.0151293 0.009059)
(10.1271 0.0248503 -0.033586)
(10.1496 0.0356551 -0.0377591)
(10.1427 0.0227023 -0.00134149)
(10.1445 -0.010131 0.0155843)
(10.1613 -0.0174335 0.0131697)
(10.1798 -0.00865534 0.00845636)
(10.1714 -0.00746169 0.0120099)
(10.1644 -0.0173902 0.0136882)
(10.1143 -0.00412755 -0.0050467)
(10.1033 0.00179222 -0.00925554)
(10.1297 0.0108573 -0.00536737)
(10.1347 0.00481104 -0.00811225)
(10.1291 -0.0352115 -0.00617228)
(10.1177 -0.0359884 -0.0307264)
(10.1212 -0.010434 -0.0382429)
(10.1579 0.0430554 0.0160831)
(10.1777 0.0219093 0.023146)
(10.1747 0.0107814 0.00651043)
(10.1137 0.00991 0.00713766)
(10.1009 0.00111404 0.00848295)
(10.1137 0.00876529 -0.0114219)
(10.1093 0.0108632 -0.0171835)
(10.1103 0.00343339 -0.0134549)
(10.1038 -0.0595684 -0.00233934)
(10.1368 -0.0825308 -0.0268149)
(10.1467 -0.0322528 -0.0264446)
(10.1148 0.0245748 0.00120993)
(10.0134 0.0644986 0.0248171)
(10.016 0.0207949 0.00843235)
(10.0739 -0.0364301 -0.00124434)
(10.1276 -0.0363091 0.0231499)
(10.1418 -0.0125769 0.0204175)
(10.167 0.0110113 -0.0337409)
(10.1619 0.0185556 -0.0368258)
(10.1482 0.00464165 -0.00818267)
(10.1591 -0.0122845 0.0174823)
(10.1774 -0.00497971 0.0245213)
(10.1857 0.00591801 0.00779295)
(10.1645 0.000130051 -0.0022229)
(10.1226 -0.0212341 0.00228308)
(10.1279 -0.0138017 0.00012922)
(10.1526 0.0133911 0.00519363)
(10.1534 0.00385475 0.00815664)
(10.1206 -0.00939427 0.010557)
(10.0898 -0.0250275 0.00660911)
(10.0877 -0.0248218 -0.0215506)
(10.1349 -0.00875533 -0.0139583)
(10.159 0.0382744 0.0112153)
(10.1714 0.0254056 0.00918108)
(10.1623 0.00422817 -0.00495841)
(10.1072 0.0203297 -0.000833516)
(10.0949 0.0282653 0.00429615)
(10.1405 0.00558814 -0.00679147)
(10.1498 -0.00448697 -0.00895106)
(10.1439 0.0211869 -0.0171329)
(10.155 -0.0151945 -0.0215121)
(9.99039 -0.0274825 -0.0149355)
(9.98539 -0.00317732 -0.0249317)
(9.92252 0.0265391 0.00297681)
(9.84753 0.0325832 0.0282625)
(9.89009 0.0104658 0.0074966)
(9.96215 0.00475764 0.00698841)
(9.94175 0.00999737 0.0228512)
(9.94799 0.0135134 0.0354989)
(10.0272 0.00504635 -0.0181581)
(10.031 0.00972542 -0.0386319)
(9.9853 0.00329806 -0.0131648)
(9.96815 -0.00671618 0.0249034)
(9.98307 -0.00495811 0.02806)
(9.99729 -0.000587865 0.00216717)
(9.9813 -0.00123583 -0.00338302)
(9.9422 0.000119507 0.00220524)
(9.95094 0.00163617 -0.00369013)
(9.96909 0.00462275 -0.00505773)
(9.96453 -0.000570619 -1.89535e-05)
(9.93463 -0.00462326 0.0144123)
(9.92467 -0.00830398 0.0215402)
(9.92048 -0.00341962 0.000871872)
(9.98836 -0.01195 -0.024377)
(10.0205 0.0211882 -0.00965983)
(10.034 0.0437061 0.00860944)
(9.94119 0.0191617 0.00321326)
(9.91173 0.0152931 -0.000991081)
(9.99525 0.0159342 0.00606809)
(10.0118 -0.0120566 0.00526479)
(9.96706 -0.0320098 0.00612603)
(9.92213 -0.0212468 -0.0152605)
(9.93245 -0.0304641 -0.0235175)
)
;

boundaryField
{
    wall
    {
        type            fixedValue;
        value           uniform (0 0 0);
    }
    outlet
    {
        type            cyclic;
    }
    inlet
    {
        type            cyclic;
    }
    procBoundary0to1
    {
        type            processor;
        value           nonuniform List<vector> 
256
(
(9.95659 0.00343393 -0.0109752)
(9.98451 0.013033 0.0240384)
(9.96784 0.00273855 0.0158061)
(9.94021 -0.00675185 -0.0142186)
(9.93553 -0.00847033 -0.0213535)
(9.97073 0.0161857 0.00132705)
(9.95047 0.0190111 0.00369571)
(9.93267 0.00738146 -0.0123376)
(9.97481 -0.00296888 -0.00108459)
(9.99574 -0.00291923 0.00790968)
(9.92462 0.000216532 -0.03343)
(9.92511 -0.00146042 -0.0366196)
(9.98197 0.0019554 0.0404089)
(9.97886 -0.00148152 0.0673461)
(9.95499 0.00082218 0.00959274)
(9.96372 0.0147475 -0.0493177)
(9.97517 0.0208902 -0.0453851)
(9.99025 -0.00536776 0.000892266)
(9.9803 -0.0125312 -0.0039464)
(9.98783 -0.0037927 -0.0234189)
(9.97131 0.00253519 -0.021057)
(9.92892 0.00901753 -0.0257577)
(9.92773 0.00852928 -0.0293702)
(9.94163 -0.000880454 -0.0270476)
(9.91443 0.000391606 0.00750746)
(9.91364 0.00387942 0.0166766)
(9.94477 0.0038745 0.00749138)
(9.94198 0.00301937 0.00481256)
(9.9115 -0.0142246 -0.0200143)
(9.92302 -0.0166167 0.00148404)
(9.91392 -0.0109736 0.0159074)
(9.92447 -0.0059205 0.000536915)
(10.126 -0.00848296 -0.03995)
(10.1308 0.023709 0.0174519)
(10.1232 0.0295652 0.0307857)
(10.1352 0.020261 0.0176029)
(10.1386 0.0151866 0.0150414)
(10.1474 0.00699487 0.00809737)
(10.1274 2.35872e-05 0.00146945)
(10.1227 -0.0211423 -0.0272874)
(10.1657 -0.0221712 -0.0143389)
(10.1882 -0.0108687 0.0054458)
(10.0954 0.0132165 -0.016964)
(10.0875 -0.000159888 -0.0355655)
(10.1325 -0.0190822 0.0228931)
(10.1298 -0.000966188 0.0450237)
(10.1397 0.0326207 0.0230788)
(10.1665 0.0226912 -0.0433898)
(10.1786 0.00686913 -0.0427947)
(10.1689 -0.0151794 0.00708608)
(10.1311 -0.0111542 0.0138732)
(10.1244 -0.0064272 -0.00841149)
(10.1208 -0.00129558 -0.0173608)
(10.1147 -0.00327775 -0.00933258)
(10.1333 -0.00657372 -0.0276065)
(10.1458 -0.0137362 -0.0376566)
(10.1193 0.000377377 0.000469935)
(10.1064 0.016827 0.0284407)
(10.1101 0.00843607 0.00695966)
(10.1104 0.00204912 -0.00635401)
(10.0538 0.0177488 -0.0052803)
(10.0689 0.00818586 0.0149292)
(10.0845 -0.0420548 0.00449997)
(10.0931 -0.0407504 -0.025485)
(10.1151 -0.0463264 -0.0249908)
(10.139 -0.0332734 -0.0139186)
(10.1193 0.00932216 -0.00652904)
(10.1307 0.0672618 0.02838)
(10.1357 0.0785565 0.0381193)
(10.1746 -0.00532073 0.0316841)
(10.1566 -0.0387864 0.0159658)
(10.1457 -0.0489699 -0.0174489)
(10.1712 -0.0484382 -0.0210869)
(10.2011 0.00188955 0.0238521)
(10.1711 0.0435391 0.0186012)
(10.0735 0.0456174 -0.00653506)
(10.0709 0.0126423 -0.00270694)
(10.13 -0.00906271 0.0256508)
(10.1363 0.00600432 0.00981469)
(10.1763 0.0168198 -0.0230481)
(10.1874 0.0124479 -0.0255337)
(10.1907 -0.00230628 -0.0119271)
(10.1715 0.000853898 -0.0214851)
(10.1632 -0.00934079 -0.0207737)
(10.1367 -0.0237684 -0.0232521)
(10.1289 -0.0102701 -0.0361856)
(10.1323 -0.0159149 -0.0341476)
(10.1362 -0.0352624 -0.0261201)
(10.1311 -0.0253443 -0.022092)
(10.1259 0.00947061 0.0168711)
(10.1216 0.0114302 0.0238783)
(10.1151 0.0203029 0.0151468)
(10.1053 0.0429031 0.0122138)
(10.1172 0.0322368 0.0391444)
(10.1076 -0.0202949 0.0370743)
(10.0969 -0.0701741 -0.0235328)
(10.1551 -0.0453978 -0.00315041)
(10.172 -0.0502068 0.0137152)
(10.1229 -0.0031102 0.0159436)
(10.0679 0.0578574 0.0247618)
(10.1297 0.0622443 0.0194362)
(10.2233 0.027681 0.0142022)
(10.1589 -0.0130152 0.00176553)
(10.1063 -0.021539 -0.00795113)
(10.1468 -0.018319 0.0149032)
(10.1503 -0.0267807 0.0187272)
(10.1281 0.0235897 0.0129219)
(10.1305 0.0720044 0.0166547)
(10.135 0.0609735 0.0121336)
(10.1284 -0.0377915 -0.0190129)
(10.1408 -0.0409791 -0.0115564)
(10.1685 -0.0167432 -0.00666604)
(10.1879 0.0137136 -0.00256982)
(10.1904 0.0153616 0.00518312)
(10.1892 -0.00504975 0.00415602)
(10.1773 -0.00793506 -0.00208469)
(10.1412 -0.00324315 -0.010083)
(10.123 -0.000607102 -0.02374)
(10.1173 -0.00293316 -0.0207498)
(10.1189 -0.00245492 -0.0131044)
(10.1202 0.00801154 -0.011963)
(10.1201 0.0189996 -0.00144607)
(10.1436 -0.00407368 0.0186947)
(10.1513 -0.00222455 0.0118758)
(10.123 0.0283416 -0.0103645)
(10.1119 0.0328754 -0.00106168)
(10.1011 0.0108005 0.0113853)
(10.118 -0.0151173 -0.0165903)
(10.1459 -0.0518506 0.0182671)
(10.1921 -0.0140371 0.00335368)
(10.1728 0.0120685 -0.00856121)
(10.1403 0.0120122 -0.00391432)
(10.1392 0.0208023 0.0124091)
(10.1569 0.0300036 0.0163348)
(10.1488 -0.001898 0.0176573)
(10.1355 -0.0231833 0.0132808)
(10.14 -0.0274338 0.00719344)
(10.1102 -0.00485695 0.00545164)
(10.1047 0.0196686 0.0101458)
(10.1479 0.0218141 0.00523252)
(10.1839 0.0114056 0.00333934)
(10.138 0.00427723 -0.00872589)
(10.1181 -0.00150256 -0.0146577)
(10.174 -0.0175491 -0.00962415)
(10.1832 -0.0146918 -0.00354751)
(10.1986 -0.00176596 0.0100207)
(10.1553 -0.00488548 -0.0252464)
(10.1325 -0.00299618 -0.0369875)
(10.1436 -0.00475736 -0.0277251)
(10.1649 -0.0133774 -0.0151656)
(10.1531 -0.00851117 0.00543951)
(10.1481 0.00595224 0.00734802)
(10.1181 0.0370054 -0.00969354)
(10.109 0.03185 -0.00697732)
(10.1358 0.0187052 0.00707354)
(10.1497 0.0130666 -0.00705446)
(10.1541 0.000803938 -0.0218155)
(10.1299 0.00993616 0.0183494)
(10.123 0.00449019 0.04006)
(10.1098 -0.0613201 0.0294217)
(10.1349 -0.110475 -0.0347511)
(10.1445 -0.0372523 -0.0248348)
(10.1126 0.0924915 0.0507838)
(10.096 0.113526 0.0818249)
(10.0883 0.0417848 0.00926432)
(10.1214 -0.0137259 -0.0440969)
(10.1421 -0.0197435 -0.0443338)
(10.1336 -0.0270012 0.0282301)
(10.1135 -0.0281569 0.0309865)
(10.1384 0.0434124 0.0056355)
(10.1534 0.048718 -0.0075039)
(10.1598 -0.00260661 -0.00566546)
(10.1655 -0.00250301 0.0071559)
(10.1681 0.0254348 0.00594099)
(10.1615 0.0165524 -0.00618236)
(10.1593 -0.00492656 -0.0365234)
(10.1651 -0.0152087 -0.0258876)
(10.1633 -0.0250671 -0.0133269)
(10.1502 -0.0101902 -0.0126288)
(10.1563 0.00764634 -0.00117087)
(10.1446 -0.0154071 0.0210317)
(10.1225 -0.0215938 0.0219468)
(10.1057 0.00123904 0.0321849)
(10.1292 0.0334338 0.0142477)
(10.1217 0.0181036 -0.000265338)
(10.1465 -0.00193673 -0.0214915)
(10.1298 8.50917e-05 -0.0118656)
(10.1164 0.00230221 -0.00817458)
(10.1143 0.015716 -0.0043596)
(10.1076 0.0154942 -0.00870787)
(10.1249 0.0127942 -0.0161454)
(10.1495 -0.0624111 -0.0209596)
(10.1483 -0.0690652 -0.0327634)
(10.1419 -0.0429426 -0.0286822)
(10.0338 0.0147567 0.0251846)
(10.0209 0.0183272 0.0294874)
(10.1017 -0.00558315 -0.00913495)
(10.1686 0.0190551 -0.0111656)
(10.1606 0.0347538 0.044635)
(10.1048 0.00168976 0.0441862)
(10.0891 -0.00755624 0.0302722)
(10.1458 0.0262904 -0.0186929)
(10.1491 0.0188108 -0.0244619)
(10.1749 -0.00722762 -0.0154745)
(10.1709 0.00240205 0.020294)
(10.1496 -0.00506068 0.026441)
(10.1489 -0.0103118 0.00598358)
(10.1646 -0.00554795 -0.0266369)
(10.1724 -0.00570748 -0.0268233)
(10.1719 -0.00444257 -0.0267197)
(10.158 -0.0120884 -0.0281579)
(10.1292 -0.0275786 -0.00363765)
(10.131 -0.0288771 0.00735632)
(10.142 0.00173291 0.0254442)
(10.1498 0.013772 0.00566806)
(10.1409 0.02396 -0.0112661)
(10.1448 0.0163824 -0.00304799)
(10.1387 0.00102794 0.0116777)
(10.105 0.0092841 0.0147905)
(10.106 0.00343149 0.0204173)
(10.1478 0.0129969 -0.00508439)
(10.1445 0.0130129 -0.014836)
(10.1441 0.033546 -0.0184013)
(10.1597 -0.0122766 -0.0225655)
(9.98192 -0.00571013 -0.0122233)
(9.96033 0.00485132 -0.00901497)
(9.85953 -0.00214292 -0.0151115)
(9.83813 -0.00495916 -0.00682199)
(9.87878 -0.0108206 -0.00614754)
(9.97334 0.0300545 0.0309485)
(9.97423 0.0389768 0.0566205)
(9.94831 0.017453 0.0343257)
(9.9615 0.0128753 0.0135983)
(9.99095 0.0158228 -0.0246147)
(9.97818 0.0144494 -0.0250938)
(9.98222 0.0046242 -0.005231)
(9.97983 -0.00642958 0.0108957)
(9.9776 -0.0102806 0.006888)
(9.98689 -0.00806321 -0.000320165)
(9.99262 -0.00183043 -0.0206062)
(9.99251 -0.00374833 -0.023659)
(9.98624 -0.00393352 -0.0158311)
(9.97007 -0.0110008 -0.0212861)
(9.96549 -0.0285162 -0.0217888)
(9.98823 -0.0142168 0.00834855)
(9.9954 0.0130631 0.0541374)
(9.98699 -0.00358273 0.0383869)
(9.98604 0.014246 -0.0315417)
(9.99071 0.0340128 -0.0289602)
(9.92311 0.0174045 0.00380326)
(9.89988 0.0139757 0.0115991)
(10.0107 0.0127417 0.0164675)
(10.0348 -0.0210768 0.0189221)
(9.95664 -0.0256648 -0.00941456)
(9.91569 -0.0112361 -0.0310947)
(9.94688 -0.0291539 -0.0230064)
)
;
    }
}


// ************************************************************************* //
