/*--------------------------------*- C++ -*----------------------------------*\
| =========                 |                                                 |
| \\      /  F ield         | OpenFOAM: The Open Source CFD Toolbox           |
|  \\    /   O peration     | Version:  2506                                  |
|   \\  /    A nd           | Website:  www.openfoam.com                      |
|    \\/     M anipulation  |                                                 |
\*---------------------------------------------------------------------------*/
FoamFile
{
    version     2.0;
    format      ascii;
    arch        "LSB;label=32;scalar=64";
    class       surfaceScalarField;
    location    "0.06";
    object      phi;
}
// * * * * * * * * * * * * * * * * * * * * * * * * * * * * * * * * * * * * * //

dimensions      [0 3 -1 0 0 0 0];

oriented        oriented;

internalField   nonuniform List<scalar> 
3120
(
-1.57582e-09
-5.08242e-09
3.97074e-08
4.8776e-09
-3.81379e-10
-3.63466e-09
-3.72417e-09
4.56556e-08
-2.49574e-09
3.84051e-10
2.62828e-10
2.84827e-08
4.75562e-09
-2.49037e-09
4.83089e-08
-3.08171e-09
1.06538e-09
-2.45048e-09
3.73978e-08
-3.61095e-09
-4.75538e-09
-4.08094e-09
4.39886e-08
-4.55548e-09
-5.3117e-09
4.35527e-08
-1.09285e-10
2.99897e-08
-9.24025e-10
-8.45346e-10
3.77969e-08
-2.32269e-09
-3.83347e-09
2.91102e-09
3.41321e-08
3.51239e-10
3.04023e-09
2.51625e-08
1.12366e-08
2.69124e-08
4.42992e-09
3.41507e-08
4.59497e-10
-9.23485e-09
6.6821e-08
5.29754e-09
2.79631e-08
6.29101e-08
-1.88658e-09
-5.75235e-09
4.31158e-08
2.77249e-09
1.45799e-09
-4.40238e-09
-7.77471e-09
5.37824e-08
2.16356e-09
-2.46244e-09
-2.09471e-09
2.74706e-08
1.1668e-09
-4.35095e-10
3.93552e-08
4.94647e-09
-4.79234e-09
-3.90501e-09
3.44896e-08
5.85316e-09
-7.27177e-10
2.1528e-09
2.9996e-08
-1.26483e-09
8.52835e-10
4.11428e-08
4.07052e-09
2.68969e-08
5.96878e-10
-3.08972e-09
3.50486e-08
1.33616e-09
-1.70704e-09
-1.44682e-08
5.30569e-08
1.96917e-09
-3.51617e-09
2.58552e-08
-7.73663e-09
4.45898e-08
-1.23097e-08
4.35185e-08
4.58508e-09
5.2013e-09
2.52998e-08
9.50415e-10
2.41574e-08
5.14736e-08
-2.56396e-09
-4.51213e-09
5.7947e-08
-9.02963e-09
1.27446e-09
5.03908e-09
-2.43028e-09
4.55639e-08
3.0456e-09
3.47912e-10
-3.32063e-09
3.97895e-08
-4.30706e-09
-2.24057e-10
4.26021e-08
-1.5783e-09
-6.2938e-11
-9.88965e-10
2.91033e-08
1.926e-09
5.39209e-10
-4.90162e-09
3.18652e-08
2.26106e-09
-1.39185e-09
3.74921e-08
-2.2551e-09
3.06588e-08
-3.00299e-09
-7.15417e-10
3.75128e-08
2.65302e-10
1.80913e-09
5.56841e-10
4.27863e-08
1.97098e-09
-2.28716e-09
2.65886e-08
-7.9561e-09
5.07259e-08
9.09128e-11
3.83765e-08
3.91151e-10
-6.69895e-10
2.34097e-08
-7.33015e-10
1.98237e-08
3.40947e-08
-1.99874e-09
1.86549e-09
5.3984e-08
-2.61942e-10
4.35824e-09
5.41762e-09
1.06373e-09
3.34775e-08
3.60614e-09
3.92133e-09
3.688e-09
4.01573e-08
-2.55955e-09
4.67744e-09
5.0589e-08
-4.23522e-09
-1.15365e-09
-4.72694e-09
4.49721e-08
-8.12275e-09
4.4481e-09
-4.1975e-09
3.15248e-08
2.94582e-09
-5.45934e-09
4.81418e-08
-1.01996e-08
5.59519e-08
-2.27334e-09
-2.86494e-09
4.13433e-08
-3.41913e-09
2.11012e-09
2.08968e-09
3.21156e-08
-1.10349e-09
2.31247e-11
2.43197e-08
1.0515e-09
3.27388e-08
2.65504e-09
3.26521e-08
-4.32616e-09
4.61314e-10
2.85449e-08
-4.10365e-10
1.59818e-08
2.8534e-08
-5.51518e-10
2.46963e-09
4.37598e-08
4.05932e-09
4.24674e-09
2.43266e-10
2.60726e-10
2.81403e-08
4.28177e-09
-2.76714e-10
1.66092e-09
3.60241e-08
2.99221e-09
2.49367e-09
4.10843e-08
-8.6227e-11
-1.08468e-09
-2.24284e-09
5.61811e-08
-5.41183e-09
5.34324e-10
4.51351e-10
2.97152e-08
-1.35448e-09
4.85833e-10
5.12056e-08
4.06589e-09
5.14765e-08
8.76901e-10
-1.59918e-09
3.82664e-08
1.55634e-09
3.15314e-10
2.94941e-09
3.01791e-08
9.95467e-10
2.20249e-09
2.19229e-08
3.93508e-09
3.51053e-08
4.27522e-09
2.2267e-08
1.98495e-09
5.98395e-10
3.97254e-08
-7.39946e-11
2.694e-08
4.33115e-08
1.66005e-09
-6.90288e-09
5.25147e-08
-1.76625e-09
-1.74592e-09
-2.79358e-09
-1.21262e-09
3.23044e-08
1.50217e-09
-1.48865e-09
-1.09679e-08
4.43189e-08
1.36828e-09
-5.73227e-09
4.35432e-08
2.41554e-09
6.1119e-09
4.56522e-09
3.85197e-08
8.14197e-11
-1.12609e-08
-1.28177e-09
4.71572e-08
-1.34202e-09
5.95585e-09
2.43629e-08
3.3513e-09
3.94283e-08
1.09527e-10
3.37835e-09
4.1692e-08
-2.34824e-09
-2.18992e-09
3.64879e-09
2.7548e-08
-4.78832e-09
1.95818e-09
2.8519e-08
3.01867e-09
3.31728e-08
-8.09697e-10
3.79726e-08
-7.2107e-09
-7.08516e-09
5.30645e-08
-8.20957e-09
2.9827e-08
3.65113e-08
3.76211e-09
9.89407e-11
4.7812e-08
-1.58369e-09
2.42409e-09
-4.1491e-10
-1.94022e-09
3.8992e-08
-5.69495e-10
-4.01649e-10
2.53384e-09
4.15412e-08
2.3059e-10
-1.85351e-09
4.39219e-08
1.48162e-09
-9.14907e-10
-1.43318e-10
3.82115e-08
1.46573e-09
1.19982e-09
1.53785e-09
4.15645e-08
2.73828e-09
1.81747e-10
2.51761e-08
2.07035e-10
3.36963e-08
-4.80377e-11
4.53555e-10
3.9363e-08
1.77943e-09
-9.59866e-10
-1.92384e-09
3.19209e-08
-1.2056e-09
1.24293e-10
2.88222e-08
7.34491e-11
3.26383e-08
-2.4578e-09
4.00833e-08
1.63352e-09
-2.50062e-10
4.64345e-08
-2.64992e-09
3.36371e-08
3.42561e-08
-2.29404e-10
1.07419e-10
4.30851e-08
1.67567e-09
3.17837e-09
7.82506e-10
5.57673e-10
3.85892e-08
-1.16618e-09
1.28384e-09
1.62227e-09
3.93332e-08
8.4284e-11
6.00927e-10
4.34291e-08
3.5385e-10
-3.00497e-09
-1.5983e-09
3.85962e-08
4.32636e-09
2.23147e-09
-3.053e-10
3.71924e-08
2.00977e-09
-1.95217e-09
2.89711e-08
-3.2029e-09
4.0101e-08
-1.74858e-09
-2.02815e-09
3.72521e-08
4.28937e-09
-2.00056e-10
-2.69293e-09
3.27593e-08
-3.31988e-10
-2.37701e-09
2.93788e-08
-2.71214e-09
3.32454e-08
-4.12447e-09
3.67754e-08
6.17328e-09
4.0753e-10
3.8268e-08
-1.26634e-10
3.3934e-08
3.33787e-08
3.11488e-09
3.5265e-09
4.00938e-08
-2.99521e-09
-6.52096e-10
2.08455e-09
3.25993e-09
3.85277e-08
-2.16984e-09
7.51512e-10
4.21117e-09
3.77737e-08
-1.31978e-09
2.53594e-09
3.89811e-08
4.18436e-10
1.412e-09
1.94344e-09
3.76075e-08
1.15878e-09
2.65262e-09
2.49663e-09
3.67134e-08
5.30422e-10
1.48008e-09
3.38236e-08
2.77113e-09
3.67147e-08
1.79693e-09
4.88891e-10
3.66967e-08
2.12634e-10
1.89023e-09
1.78632e-10
3.49829e-08
4.3859e-10
-9.0539e-10
3.3215e-08
8.30003e-10
3.42416e-08
4.9298e-10
3.66307e-08
9.45872e-10
1.94045e-09
3.64557e-08
1.8028e-09
3.46741e-08
3.39524e-08
1.17156e-09
1.85885e-09
3.85762e-08
-8.7258e-10
-6.41628e-10
1.21172e-09
2.1593e-09
3.78942e-08
-1.56683e-09
7.25009e-10
2.51048e-09
3.72997e-08
-1.55057e-09
2.11083e-09
3.74645e-08
-1.09764e-09
7.43797e-10
1.05719e-09
3.7228e-08
4.36408e-10
1.39211e-09
1.47116e-09
3.67521e-08
6.47202e-10
1.26888e-09
3.58095e-08
1.64068e-09
3.62521e-08
1.11066e-09
2.06155e-10
3.67414e-08
-3.05264e-10
1.29306e-09
2.20204e-10
3.60507e-08
6.14953e-10
-1.00394e-10
3.5262e-08
3.8928e-10
3.53605e-08
8.27933e-10
3.67266e-08
-2.57279e-10
1.29631e-09
3.62968e-08
1.04916e-09
3.55583e-08
3.51222e-08
1.02334e-09
1.48206e-09
3.80003e-08
-8.66436e-10
-1.06293e-09
1.01713e-09
1.45878e-09
3.76551e-08
-1.2139e-09
7.24018e-10
1.44778e-09
3.72901e-08
-1.14563e-09
1.32326e-09
3.71959e-08
-1.00641e-09
7.35417e-10
9.26131e-10
3.72941e-08
-2.46103e-10
9.25175e-10
9.92043e-10
3.70285e-08
6.30991e-10
9.19085e-10
3.6632e-08
9.29317e-10
3.65876e-08
8.11231e-10
3.2642e-10
3.69994e-08
-4.69943e-10
8.69643e-10
3.12199e-10
3.66716e-08
5.60322e-10
1.97985e-10
3.62924e-08
2.39155e-10
3.61945e-08
7.37717e-10
3.69549e-08
-4.44359e-10
8.16844e-10
3.66588e-08
5.99826e-10
3.63013e-08
3.60696e-08
5.3552e-10
8.37706e-10
3.77161e-08
-4.0341e-10
-6.85392e-10
5.74238e-10
8.46257e-10
3.75358e-08
-7.66109e-10
4.60528e-10
8.30361e-10
3.73389e-08
-7.65807e-10
7.7948e-10
3.72335e-08
-7.29842e-10
4.50082e-10
5.52272e-10
3.73573e-08
-2.28208e-10
5.25233e-10
5.86045e-10
3.72132e-08
4.06975e-10
5.58414e-10
3.70219e-08
5.18662e-10
3.69338e-08
4.95095e-10
2.27332e-10
3.71917e-08
-3.62804e-10
5.05125e-10
2.24632e-10
3.70227e-08
3.50625e-10
1.70262e-10
3.6835e-08
1.2684e-10
3.6743e-08
4.76173e-10
3.71478e-08
-3.67943e-10
4.64781e-10
3.69802e-08
3.08838e-10
3.67996e-08
3.66831e-08
3.02302e-10
4.87851e-10
3.75903e-08
-2.22432e-10
-4.41759e-10
3.26714e-10
4.80867e-10
3.74937e-08
-4.63241e-10
2.72913e-10
4.61005e-10
3.73883e-08
-4.56831e-10
4.26259e-10
3.73153e-08
-4.37975e-10
2.65751e-10
3.34735e-10
3.74067e-08
-1.62092e-10
2.94689e-10
3.38567e-10
3.73264e-08
2.34074e-10
3.14535e-10
3.72287e-08
2.7483e-10
3.71649e-08
2.78484e-10
1.54202e-10
3.73119e-08
-2.18298e-10
2.74891e-10
1.41977e-10
3.72227e-08
1.9153e-10
1.05157e-10
3.71275e-08
5.81006e-11
3.70686e-08
2.62511e-10
3.72774e-08
-2.17496e-10
2.41468e-10
3.7188e-08
1.45636e-10
3.70974e-08
3.70398e-08
1.60591e-10
2.67813e-10
3.75295e-08
-1.13577e-10
-2.54036e-10
1.75914e-10
2.61815e-10
3.74783e-08
-2.61622e-10
1.51373e-10
2.47022e-10
3.74222e-08
-2.56455e-10
2.23174e-10
3.73784e-08
-2.43325e-10
1.45928e-10
1.90082e-10
3.74355e-08
-9.69468e-11
1.57183e-10
1.8602e-10
3.7391e-08
1.25545e-10
1.67472e-10
3.73398e-08
1.37918e-10
3.73016e-08
1.47028e-10
9.36011e-11
3.73816e-08
-1.20271e-10
1.40982e-10
8.05123e-11
3.73343e-08
9.58563e-11
5.45132e-11
3.72854e-08
1.91573e-11
3.72525e-08
1.33213e-10
3.73579e-08
-1.16246e-10
1.15989e-10
3.73114e-08
6.11537e-11
3.72666e-08
3.7239e-08
8.40929e-11
1.4388e-10
3.75007e-08
-5.86345e-11
-1.4072e-10
9.25795e-11
1.39405e-10
3.74736e-08
-1.42994e-10
8.07766e-11
1.29308e-10
3.74439e-08
-1.39192e-10
1.13397e-10
3.74193e-08
-1.30007e-10
7.73485e-11
1.04359e-10
3.74522e-08
-5.427e-11
8.13177e-11
9.88963e-11
3.74279e-08
6.40893e-11
8.54569e-11
3.7401e-08
6.5218e-11
3.73799e-08
7.4526e-11
5.27165e-11
3.74219e-08
-6.30265e-11
6.90835e-11
4.17745e-11
3.7397e-08
4.40904e-11
2.37334e-11
3.73721e-08
-6.48855e-13
3.73551e-08
6.3574e-11
3.74069e-08
-5.83818e-11
5.14163e-11
3.73834e-08
2.05477e-11
3.73617e-08
3.73492e-08
4.33452e-11
7.59387e-11
3.74873e-08
-3.00375e-11
-7.60585e-11
4.76928e-11
7.26303e-11
3.74732e-08
-7.62791e-11
4.16199e-11
6.58315e-11
3.74577e-08
-7.34026e-11
5.54235e-11
3.74444e-08
-6.70535e-11
3.95667e-11
5.54561e-11
3.74622e-08
-2.87883e-11
4.05992e-11
5.06056e-11
3.74493e-08
3.09387e-11
4.12766e-11
3.74353e-08
2.80475e-11
3.74243e-08
3.59939e-11
2.74094e-11
3.74455e-08
-3.13432e-11
3.18565e-11
1.92403e-11
3.74327e-08
1.78747e-11
7.06325e-12
3.74203e-08
-8.49942e-12
3.74121e-08
2.79412e-11
3.74368e-08
-2.71745e-11
1.98332e-11
3.74252e-08
2.46467e-12
3.74152e-08
3.74102e-08
2.18427e-11
3.92288e-11
3.74815e-08
-1.50384e-11
-4.01764e-11
2.38912e-11
3.67853e-11
3.74744e-08
-3.96514e-11
2.0534e-11
3.22265e-11
3.74666e-08
-3.75041e-11
2.55407e-11
3.74596e-08
-3.31996e-11
1.93623e-11
2.82881e-11
3.74687e-08
-1.44268e-11
1.92676e-11
2.45405e-11
3.7462e-08
1.37113e-11
1.82565e-11
3.7455e-08
9.79268e-12
3.74495e-08
1.6158e-11
1.27572e-11
3.74598e-08
-1.45685e-11
1.32739e-11
7.0194e-12
3.74534e-08
5.394e-12
-9.49057e-13
3.74475e-08
-1.07411e-11
3.74438e-08
1.05981e-11
3.7455e-08
-1.12912e-11
5.40518e-12
3.74496e-08
-4.35089e-12
3.74453e-08
3.74437e-08
1.06269e-11
1.96519e-11
3.74793e-08
-7.23197e-12
-2.06276e-11
1.14417e-11
1.78792e-11
3.7476e-08
-1.99591e-11
9.44477e-12
1.48513e-11
3.74722e-08
-1.83975e-11
1.06003e-11
3.74688e-08
-1.55659e-11
8.83167e-12
1.35704e-11
3.7473e-08
-6.69016e-12
8.43728e-12
1.08392e-11
3.74698e-08
5.22849e-12
6.73368e-12
3.74664e-08
1.43416e-12
3.74639e-08
6.43619e-12
4.77184e-12
3.74685e-08
-6.11571e-12
4.46613e-12
9.28349e-13
3.74655e-08
-2.50246e-14
-4.15853e-12
3.74629e-08
-1.0258e-11
3.74614e-08
2.71605e-12
3.74661e-08
-3.69158e-12
-5.66494e-13
3.74638e-08
-6.08646e-12
3.74622e-08
3.74621e-08
4.81675e-12
9.40159e-12
3.74787e-08
-3.26709e-12
-1.01907e-11
5.08891e-12
8.09173e-12
3.74775e-08
-9.61475e-12
3.90793e-12
6.12172e-12
3.74759e-08
-8.5039e-12
3.47883e-12
3.74743e-08
-6.67501e-12
3.62863e-12
5.84459e-12
3.74759e-08
-2.76181e-12
3.14074e-12
3.95571e-12
3.74745e-08
1.25983e-12
1.32884e-12
3.74731e-08
-1.95935e-12
3.74721e-08
1.90661e-12
7.64809e-13
3.74738e-08
-2.03067e-12
5.77582e-13
-1.71745e-12
3.74726e-08
-2.00662e-12
-4.90189e-12
3.74716e-08
-8.74524e-12
3.74712e-08
-5.19386e-13
3.74729e-08
-3.67543e-13
-2.59922e-12
3.74721e-08
-5.81396e-12
3.74717e-08
3.74721e-08
1.98287e-12
4.11143e-12
3.74788e-08
-1.24159e-12
-4.80419e-12
1.96475e-12
3.22753e-12
3.74787e-08
-4.30563e-12
1.23162e-12
1.9536e-12
3.74782e-08
-3.5459e-12
3.25338e-13
3.74776e-08
-2.38542e-12
1.13442e-12
1.99793e-12
3.74779e-08
-8.73679e-13
7.06977e-13
7.51589e-13
3.74775e-08
-4.01392e-13
-9.12401e-13
3.7477e-08
-2.94249e-12
3.74767e-08
-3.37118e-14
-9.5215e-13
3.74772e-08
-2.44093e-13
-9.25009e-13
-2.53e-12
3.74768e-08
-2.42012e-12
-4.53441e-12
3.74765e-08
-6.96892e-12
3.74767e-08
-1.57938e-12
3.7477e-08
8.73471e-13
-2.91132e-12
3.74768e-08
-4.84734e-12
3.7477e-08
3.74776e-08
6.06514e-13
1.5321e-12
3.74792e-08
-3.50689e-13
-2.09849e-12
5.18453e-13
9.48684e-13
3.74796e-08
-1.709e-12
4.89605e-14
1.49298e-13
3.74798e-08
-1.19928e-12
-8.41966e-13
3.74797e-08
-4.96833e-13
4.11589e-14
2.84869e-13
3.74792e-08
-3.93731e-14
-2.75804e-13
-5.27721e-13
3.74793e-08
-9.35942e-13
-1.55692e-12
3.74794e-08
-2.78695e-12
3.74795e-08
-7.14256e-13
-1.44654e-12
3.74794e-08
4.40997e-13
-1.28667e-12
-2.44698e-12
3.74793e-08
-2.16076e-12
-3.68436e-12
3.74795e-08
-5.18494e-12
3.74798e-08
-1.69183e-12
3.74796e-08
1.17802e-12
-2.5133e-12
3.74797e-08
-3.66746e-12
3.74801e-08
3.74807e-08
-1.39874e-14
3.7261e-13
3.74796e-08
2.11428e-14
-8.08343e-13
-1.11989e-13
1.30521e-14
3.74804e-08
-5.22667e-13
-4.11935e-13
-4.6936e-13
3.74808e-08
-2.00976e-13
-1.04512e-12
3.74811e-08
2.63437e-13
-3.69336e-13
-3.46215e-13
3.74802e-08
2.85726e-13
-5.88123e-13
-8.41701e-13
3.74806e-08
-9.88696e-13
-1.4485e-12
3.74809e-08
-2.15033e-12
3.74811e-08
-8.38773e-13
-1.34607e-12
3.74807e-08
6.2312e-13
-1.18515e-12
-1.96044e-12
3.74809e-08
-1.69037e-12
-2.67661e-12
3.74812e-08
-3.52328e-12
3.74816e-08
-1.43279e-12
3.74811e-08
1.1027e-12
-1.90233e-12
3.74814e-08
-2.54367e-12
3.74818e-08
3.74824e-08
-3.6627e-13
-7.42553e-15
3.748e-08
2.79667e-13
-2.72697e-13
-4.58171e-13
-2.12538e-13
3.74809e-08
-1.02677e-13
-6.1645e-13
-4.84295e-13
3.74815e-08
1.06441e-13
-8.0063e-13
3.74818e-08
3.86153e-13
-5.69044e-13
-3.9938e-13
3.74808e-08
4.59231e-13
-7.23293e-13
-6.79074e-13
3.74813e-08
-9.34259e-13
-1.01256e-12
3.74817e-08
-1.38599e-12
3.7482e-08
-8.37672e-13
-9.31281e-13
3.74815e-08
6.71862e-13
-1.05521e-12
-1.28265e-12
3.74818e-08
-1.31004e-12
-1.65829e-12
3.74821e-08
-2.09435e-12
3.74824e-08
-1.17046e-12
3.74821e-08
9.51076e-13
-1.4415e-12
3.74823e-08
-1.7499e-12
3.74827e-08
3.74832e-08
-7.78648e-13
5.44412e-14
6.46085e-13
-2.15772e-13
-8.86655e-13
-7.84147e-14
-1.02942e-13
-9.79438e-13
-2.52901e-13
5.35162e-14
-4.53747e-13
2.42912e-13
-9.15712e-13
-1.61795e-13
7.58271e-13
-1.05701e-12
-3.28615e-13
-1.18119e-12
-5.28165e-13
-7.48497e-13
-1.07934e-12
-4.38915e-13
8.94446e-13
-1.25819e-12
-6.29185e-13
-1.40443e-12
-8.43782e-13
-1.08251e-12
-1.26681e-12
1.05401e-12
-1.47041e-12
-1.64455e-12
-4.67578e-10
2.0817e-10
3.58336e-08
7.14773e-10
-2.25178e-09
2.83743e-10
3.50181e-08
-6.30648e-10
4.50347e-10
-3.15095e-09
2.964e-08
-1.05977e-09
-6.28054e-09
3.75014e-08
-2.45098e-09
9.6033e-10
-1.44016e-09
4.57157e-08
-8.13128e-09
-3.68315e-09
5.16772e-08
-6.82364e-09
-2.62038e-09
3.30364e-08
-1.51274e-09
1.66241e-08
-4.55188e-09
3.81274e-09
5.08191e-08
-2.41523e-09
4.20397e-10
3.98717e-08
-7.19238e-09
-4.6181e-09
4.70857e-08
2.53825e-09
2.3171e-08
-1.12218e-08
7.37283e-08
-4.64649e-09
3.77492e-08
3.10245e-09
2.26069e-08
4.57249e-08
-5.27684e-09
-1.64942e-10
4.1653e-08
-1.46926e-09
-1.45652e-09
1.2779e-09
3.07142e-08
-7.94302e-10
1.80896e-09
-7.22187e-10
2.61042e-08
9.92515e-10
3.51793e-09
4.0124e-08
-1.55878e-09
7.12124e-11
-1.40328e-09
4.69393e-08
-4.14491e-10
6.60747e-10
5.27801e-08
3.74297e-09
-4.43242e-09
3.25891e-08
-4.0025e-09
3.37405e-08
3.4197e-09
-1.5972e-09
4.82618e-08
-6.45364e-09
8.9627e-11
5.03162e-08
1.85316e-09
2.99408e-09
3.13524e-08
-8.27903e-10
2.31856e-08
8.8591e-09
5.8066e-08
3.70459e-10
4.87505e-08
-5.24704e-09
3.58662e-08
4.46565e-08
1.22405e-09
8.85022e-10
3.80679e-08
9.07916e-10
1.59746e-09
-1.45311e-09
3.00929e-08
1.70108e-09
-6.98898e-09
-1.15821e-09
3.55964e-08
2.52507e-10
4.16899e-09
1.70537e-08
2.88301e-09
-4.13148e-09
-4.67289e-10
5.35099e-08
2.15565e-09
2.63785e-09
4.2402e-08
3.65916e-09
3.06885e-10
2.96203e-08
-3.14823e-09
4.66428e-08
5.23622e-09
-2.46487e-09
4.62501e-08
1.38348e-09
-3.81647e-09
6.06233e-08
-1.47813e-09
-2.14186e-09
3.66628e-08
-1.89064e-09
2.07151e-08
9.85211e-09
3.65639e-08
4.6019e-09
4.19265e-08
-5.69518e-10
4.11324e-08
4.1843e-08
-5.80529e-10
-2.77026e-09
4.40133e-08
-2.09761e-09
-4.09162e-09
-3.1515e-09
3.75982e-08
-8.42673e-10
-4.72581e-09
-4.77222e-09
4.0709e-08
2.93728e-10
-2.92972e-09
1.3865e-08
1.13098e-09
5.47033e-09
2.14254e-09
4.37193e-08
-4.74564e-09
-5.566e-09
5.50325e-08
2.00838e-09
-7.54676e-10
1.88486e-08
-2.75105e-09
4.03496e-08
-8.77803e-09
3.71862e-09
5.37226e-08
1.25014e-09
-1.04563e-09
4.60748e-08
1.1584e-10
-2.82311e-09
3.98656e-08
-2.24178e-09
1.69025e-08
-8.32753e-09
5.85148e-08
3.84541e-10
2.92325e-08
1.295e-09
3.5481e-08
3.29709e-08
-2.54502e-08
-9.8462e-09
8.58173e-08
-6.45349e-09
-9.87243e-09
-8.68867e-09
3.46295e-08
-3.92018e-09
3.33202e-09
-1.6726e-09
2.93871e-08
-2.09909e-10
-4.00707e-09
2.57182e-08
-4.54564e-10
-1.01743e-09
-2.30027e-10
3.54927e-08
3.39285e-09
3.56643e-10
4.15771e-08
7.80117e-10
3.332e-10
1.94555e-08
2.47242e-09
2.92384e-08
6.5051e-10
3.1517e-09
4.97187e-08
2.10033e-09
1.924e-09
4.30576e-08
3.11324e-09
7.86676e-10
3.83993e-08
-4.37841e-10
2.44823e-08
2.09453e-09
7.22731e-08
2.20289e-10
4.2706e-08
2.22327e-09
3.76075e-08
3.76125e-08
2.75176e-08
-4.74796e-09
5.34493e-08
9.88079e-09
9.92503e-09
-2.13791e-09
5.35544e-08
8.05953e-10
1.53641e-09
-3.32601e-09
4.53274e-08
-4.22579e-09
-4.62544e-09
3.1065e-08
-9.50892e-10
3.45394e-09
-2.6632e-09
2.9983e-08
6.07654e-09
-3.46849e-10
3.71635e-08
2.21755e-09
-2.41086e-09
2.23994e-08
-4.70057e-10
2.7382e-08
1.17975e-08
1.28624e-10
3.51509e-08
4.17485e-09
-1.56502e-09
5.18985e-08
5.26488e-09
-2.39824e-10
3.51382e-08
-1.85287e-09
2.87818e-08
9.88406e-09
5.99434e-08
5.25202e-09
4.49894e-08
3.50959e-09
3.68188e-08
3.16222e-08
-1.49553e-09
-1.25488e-09
5.14246e-08
1.93311e-09
2.51474e-09
2.9584e-10
4.82917e-08
9.54327e-10
3.20924e-09
1.73012e-09
4.16495e-08
1.25189e-09
4.53037e-10
2.97878e-08
2.45044e-09
-1.24096e-09
-1.32735e-10
2.96032e-08
6.03835e-10
-8.27301e-10
3.64422e-08
-1.82431e-09
-5.58634e-10
2.71155e-08
9.32674e-10
2.65424e-08
-1.18801e-09
5.02236e-10
3.53426e-08
4.63784e-10
1.2333e-09
4.81868e-08
-6.25726e-10
8.94997e-11
3.55797e-08
2.26342e-10
3.06413e-08
-1.72109e-09
5.84272e-08
-1.89058e-09
4.538e-08
-1.23411e-09
3.66213e-08
3.23437e-08
-3.7207e-09
1.76849e-09
5.40823e-08
-7.02685e-10
-3.45488e-09
2.0334e-09
4.63474e-08
-3.51269e-10
-1.07573e-09
2.7079e-09
3.63563e-08
2.08362e-10
2.41112e-09
2.77641e-08
2.13055e-10
-3.28022e-09
1.2304e-09
3.3424e-08
-2.95074e-09
9.63269e-10
3.71822e-08
-4.06738e-09
6.67833e-10
3.02714e-08
4.71345e-10
2.87369e-08
-5.00594e-09
3.59044e-10
4.12216e-08
-3.83839e-09
9.6063e-10
4.70216e-08
-4.03949e-09
1.05823e-12
3.64475e-08
-1.89272e-10
3.1549e-08
-3.77802e-09
6.32445e-08
-5.80605e-09
4.95505e-08
-5.95855e-09
3.87886e-08
3.31163e-08
2.24067e-09
6.17104e-09
4.54258e-08
2.48987e-10
4.03888e-09
5.16783e-09
3.84991e-08
8.859e-10
3.77482e-09
4.6861e-09
3.09235e-08
1.01184e-09
3.78053e-09
2.41491e-08
6.12916e-10
-2.81704e-09
1.50643e-09
4.09049e-08
-9.29669e-10
1.67564e-09
3.8787e-08
-1.60303e-09
1.97344e-09
3.36579e-08
2.49886e-09
2.9573e-08
-2.05666e-09
-2.78799e-09
4.75703e-08
1.38439e-09
-6.47007e-10
4.59018e-08
8.11995e-10
-3.39294e-10
3.93318e-08
8.61778e-10
3.42097e-08
2.56367e-09
5.8488e-08
2.78261e-09
4.99511e-08
1.05988e-09
4.23932e-08
3.66954e-08
1.60655e-09
2.8889e-09
4.10923e-08
-1.63561e-10
2.42491e-09
2.41898e-09
3.52773e-08
-1.5944e-11
1.96393e-09
2.01761e-09
2.93476e-08
1.86939e-11
1.58928e-09
2.37319e-08
-8.18679e-11
-7.21778e-10
6.95502e-10
4.38193e-08
-1.01591e-10
7.32767e-10
3.98527e-08
-2.57956e-10
7.55957e-10
3.50752e-08
9.18495e-10
3.04214e-08
-2.75647e-10
-1.46855e-09
5.00092e-08
9.969e-10
-6.18422e-10
4.59796e-08
8.34546e-10
-3.69711e-10
4.06189e-08
1.32416e-10
3.55244e-08
1.54749e-09
5.58644e-08
1.78059e-09
4.97557e-08
1.10986e-09
4.36876e-08
3.82087e-08
7.94149e-10
1.74602e-09
3.87115e-08
-1.59171e-10
1.16512e-09
1.56655e-09
3.3461e-08
-1.21024e-10
1.0974e-09
1.35345e-09
2.81678e-08
-1.05857e-10
1.08994e-09
2.30033e-08
-1.30862e-10
-2.31596e-10
8.35425e-10
4.49617e-08
2.05257e-12
8.41304e-10
4.03442e-08
1.1643e-10
8.27718e-10
3.54865e-08
7.90604e-10
3.05904e-08
-7.98163e-11
-2.39279e-10
5.11637e-08
3.81709e-10
-5.14103e-12
4.63642e-08
4.81746e-10
1.55494e-10
4.11908e-08
2.96027e-10
3.60302e-08
4.60954e-10
5.52906e-08
6.64038e-10
4.97533e-08
5.7958e-10
4.42302e-08
3.8848e-08
4.34769e-10
8.3682e-10
3.75887e-08
-1.48724e-10
6.22341e-10
7.60933e-10
3.26447e-08
-1.31996e-10
5.77839e-10
6.51594e-10
2.76857e-08
-1.24768e-10
5.32103e-10
2.27776e-08
-1.3236e-10
1.21739e-11
4.81624e-10
4.53048e-08
1.40012e-10
4.77949e-10
4.04993e-08
2.1192e-10
4.52816e-10
3.56132e-08
4.10996e-10
3.06949e-08
6.82808e-11
9.79467e-12
5.15672e-08
2.68567e-10
1.01897e-10
4.65399e-08
3.55014e-10
1.51832e-10
4.1405e-08
1.80851e-10
3.62523e-08
2.21058e-10
5.50939e-08
3.52682e-10
4.97633e-08
3.83614e-10
4.44233e-08
3.91076e-08
2.10287e-10
4.31845e-10
3.70568e-08
-1.10293e-10
3.03978e-10
4.02034e-10
3.22516e-08
-1.02324e-10
2.93799e-10
3.53858e-10
2.74395e-08
-9.73151e-11
2.97533e-10
2.26476e-08
-9.6338e-11
3.55001e-11
2.94028e-10
4.54071e-08
1.03562e-10
2.92562e-10
4.05409e-08
1.48655e-10
2.77831e-10
3.56442e-08
2.49388e-10
3.07296e-08
5.56715e-11
9.2315e-11
5.17132e-08
1.47125e-10
1.19729e-10
4.66215e-08
2.01584e-10
1.3426e-10
4.14941e-08
1.3217e-10
3.63528e-08
9.44692e-11
5.50711e-08
1.65067e-10
4.97982e-08
2.0324e-10
4.45149e-08
3.92301e-08
1.02554e-10
2.16414e-10
3.6809e-08
-7.11667e-11
1.4996e-10
2.04008e-10
3.20674e-08
-6.6914e-11
1.47862e-10
1.82879e-10
2.73222e-08
-6.33713e-11
1.57305e-10
2.25853e-08
-6.04847e-11
3.15649e-11
1.68634e-10
4.54235e-08
6.88751e-11
1.67289e-10
4.05407e-08
9.25811e-11
1.58794e-10
3.56449e-08
1.42364e-10
3.07405e-08
3.63382e-11
8.3049e-11
5.17627e-08
8.1127e-11
9.08098e-11
4.66535e-08
1.10643e-10
9.26921e-11
4.15308e-08
8.5317e-11
3.64004e-08
4.08693e-11
5.50885e-08
7.80476e-11
4.983e-08
1.04398e-10
4.45645e-08
3.92939e-08
5.07947e-11
1.08865e-10
3.66916e-08
-4.21643e-11
7.53169e-11
1.0345e-10
3.19795e-08
-3.96357e-11
7.5408e-11
9.42536e-11
2.72655e-08
-3.73516e-11
8.27164e-11
2.25549e-08
-3.49838e-11
2.18365e-11
9.38751e-11
4.5417e-08
4.23733e-11
9.28472e-11
4.05314e-08
5.39965e-11
8.82258e-11
3.56396e-08
7.92491e-11
3.0744e-08
2.20353e-11
5.723e-11
5.17777e-08
4.45565e-11
5.88819e-11
4.66655e-08
5.92239e-11
5.7456e-11
4.15473e-08
5.09997e-11
3.64252e-08
1.91628e-11
5.51069e-08
3.81446e-11
4.98521e-08
5.25312e-11
4.45929e-08
3.93302e-08
2.53055e-11
5.54245e-11
3.66352e-08
-2.41361e-11
3.8003e-11
5.28056e-11
3.19371e-08
-2.25232e-11
3.83536e-11
4.86714e-11
2.72378e-08
-2.10836e-11
4.33488e-11
2.25402e-08
-1.9495e-11
1.33104e-11
5.17323e-11
4.54079e-08
2.43422e-11
5.08426e-11
4.0523e-08
2.97586e-11
4.82087e-11
3.56351e-08
4.32003e-11
3.07456e-08
1.22298e-11
3.53556e-11
5.17823e-08
2.34639e-11
3.51876e-11
4.66705e-08
3.03373e-11
3.32674e-11
4.15558e-08
2.85453e-11
3.64392e-08
8.90514e-12
5.51206e-08
1.8087e-11
4.98667e-08
2.49962e-11
4.46104e-08
3.93521e-08
1.2549e-11
2.86364e-11
3.66079e-08
-1.36246e-11
1.90336e-11
2.7169e-11
3.19165e-08
-1.25367e-11
1.92325e-11
2.51606e-11
2.72244e-08
-1.16244e-11
2.25675e-11
2.25331e-08
-1.06097e-11
7.41069e-12
2.8311e-11
4.54013e-08
1.31141e-11
2.75027e-11
4.05177e-08
1.55128e-11
2.58627e-11
3.56325e-08
2.29217e-11
3.07467e-08
6.15812e-12
2.0399e-11
5.17844e-08
1.15895e-11
1.97373e-11
4.66735e-08
1.46305e-11
1.80489e-11
4.1561e-08
1.47797e-11
3.64478e-08
3.68319e-12
5.51304e-08
7.79811e-12
4.98768e-08
1.07796e-11
4.46218e-08
3.93659e-08
6.11287e-12
1.49581e-11
3.65948e-08
-7.65052e-12
9.34616e-12
1.40187e-11
3.19065e-08
-6.89095e-12
9.40824e-12
1.29273e-11
2.7218e-08
-6.30966e-12
1.15592e-11
2.25298e-08
-5.67358e-12
3.76364e-12
1.52929e-11
4.53976e-08
6.59382e-12
1.45664e-11
4.05149e-08
7.57958e-12
1.3471e-11
3.56315e-08
1.16731e-11
3.07479e-08
2.75717e-12
1.10638e-11
5.17862e-08
5.23786e-12
1.03237e-11
4.66759e-08
6.45085e-12
9.00981e-12
4.15648e-08
6.78822e-12
3.64533e-08
1.20777e-12
5.51375e-08
2.76931e-12
4.98839e-08
3.82117e-12
4.46295e-08
3.93748e-08
2.85005e-12
7.85317e-12
3.65885e-08
-4.28845e-12
4.41346e-12
7.18682e-12
3.19018e-08
-3.74803e-12
4.41165e-12
6.51859e-12
2.7215e-08
-3.37328e-12
5.73698e-12
2.25285e-08
-2.97763e-12
1.72133e-12
8.07454e-12
4.5396e-08
3.03076e-12
7.46417e-12
4.05138e-08
3.38968e-12
6.69828e-12
3.56313e-08
5.54643e-12
3.07489e-08
1.01099e-12
5.5764e-12
5.17881e-08
2.01277e-12
4.9308e-12
4.6678e-08
2.40449e-12
3.95666e-12
4.15675e-08
2.47998e-12
3.6457e-08
8.06819e-14
5.51428e-08
4.48723e-13
4.9889e-08
6.93448e-13
4.46348e-08
3.93805e-08
1.20843e-12
4.11141e-12
3.65857e-08
-2.40199e-12
1.90829e-12
3.62689e-12
3.18998e-08
-2.01531e-12
1.84707e-12
3.18921e-12
2.72138e-08
-1.76624e-12
2.71496e-12
2.2528e-08
-1.5112e-12
6.3332e-13
4.1319e-12
4.53955e-08
1.16555e-12
3.64647e-12
4.05136e-08
1.26256e-12
3.10929e-12
3.56316e-08
2.35224e-12
3.07498e-08
1.96094e-13
2.52781e-12
5.17898e-08
4.77075e-13
2.0222e-12
4.66798e-08
5.29979e-13
1.33608e-12
4.15696e-08
3.64927e-13
3.64595e-08
-3.57203e-13
5.51466e-08
-4.6337e-13
4.98926e-08
-5.53904e-13
4.46383e-08
3.93841e-08
3.82119e-13
2.13872e-12
3.65846e-08
-1.33397e-12
6.63527e-13
1.78901e-12
3.1899e-08
-1.06829e-12
5.83378e-13
1.50026e-12
2.72134e-08
-9.04728e-13
1.19881e-12
2.2528e-08
-7.45198e-13
1.12142e-13
2.04591e-12
4.53957e-08
2.57609e-13
1.68213e-12
4.05139e-08
2.41114e-13
1.30782e-12
3.56321e-08
8.12973e-13
3.07506e-08
-1.60221e-13
9.79462e-13
5.17913e-08
-1.86895e-13
6.14354e-13
4.66813e-08
-2.64122e-13
1.46764e-13
4.15712e-08
-4.8409e-13
3.64612e-08
-4.59097e-13
5.51493e-08
-7.35338e-13
4.98951e-08
-9.41938e-13
4.46408e-08
3.93865e-08
4.8401e-14
1.09399e-12
3.65842e-08
-7.29626e-13
1.00897e-13
8.56964e-13
3.18987e-08
-5.58274e-13
6.1464e-15
6.74468e-13
2.72133e-08
-4.55577e-13
4.90985e-13
2.25281e-08
-3.55943e-13
-8.65309e-14
9.82963e-13
4.5396e-08
-1.19075e-13
7.25695e-13
4.05143e-08
-1.8979e-13
4.77038e-13
3.56326e-08
1.66628e-13
3.07512e-08
-2.55616e-13
3.01332e-13
5.17925e-08
-3.94031e-13
4.65533e-14
4.66824e-08
-5.16704e-13
-2.6392e-13
4.15723e-08
-6.69187e-13
3.64623e-08
-4.32279e-13
5.51512e-08
-7.20328e-13
4.98968e-08
-9.3731e-13
4.46424e-08
3.9388e-08
-3.90809e-14
5.8363e-13
3.65842e-08
-4.29715e-13
-1.13434e-13
4.39829e-13
3.18988e-08
-3.39304e-13
-2.38903e-13
3.34898e-13
2.72134e-08
-2.86293e-13
2.33323e-13
2.25283e-08
-2.36099e-13
-1.29718e-13
4.89906e-13
4.53964e-08
-2.44475e-13
3.30197e-13
4.05147e-08
-3.64418e-13
1.80604e-13
3.5633e-08
7.9021e-15
3.07516e-08
-2.38083e-13
9.243e-14
5.17933e-08
-4.07849e-13
-6.6364e-14
4.66831e-08
-5.64128e-13
-2.56045e-13
4.1573e-08
-4.89058e-13
3.6463e-08
-3.56379e-13
5.51524e-08
-6.03007e-13
4.98979e-08
-8.09715e-13
4.46434e-08
3.93889e-08
-1.76707e-13
4.92684e-13
-4.07322e-13
-3.54459e-13
4.36035e-13
-3.80521e-13
-5.24104e-13
3.92164e-13
-3.69017e-13
3.45976e-13
-3.60555e-13
-2.46662e-13
4.27425e-13
-4.55443e-13
3.53169e-13
-6.3681e-13
2.79441e-13
1.94821e-13
-3.2404e-13
1.7479e-13
-5.70121e-13
9.43143e-14
-7.72504e-13
-5.04296e-15
-1.25264e-13
-4.06403e-13
-6.98319e-13
-9.22655e-13
-3.64271e-09
-7.45596e-09
4.76323e-08
-3.67595e-09
-1.0031e-09
4.5463e-08
-9.13967e-10
3.31113e-09
4.64262e-08
1.69721e-09
5.09467e-08
-2.64309e-09
-3.7961e-09
3.07277e-08
-4.15305e-09
-1.00775e-08
5.19401e-08
-2.99264e-09
-2.91617e-09
5.11325e-08
-2.59892e-09
5.27206e-08
-4.28861e-09
-3.91456e-09
3.0569e-08
-2.80514e-10
-1.2412e-09
2.24432e-08
-2.84469e-09
3.04479e-09
3.89463e-08
-8.60335e-10
3.54394e-08
-3.56069e-09
1.96969e-08
2.99594e-09
1.97864e-08
-5.54157e-09
5.25065e-08
2.69773e-08
2.68138e-09
-4.45813e-09
4.70868e-08
-2.24901e-09
-7.42901e-09
5.71753e-08
9.34975e-10
-1.35195e-09
4.54303e-08
-5.33518e-09
5.98945e-08
1.11719e-09
1.04446e-09
2.33136e-08
-1.32201e-09
4.95377e-10
4.6455e-08
-6.23842e-10
-7.27304e-09
5.63555e-08
-3.70981e-09
5.09056e-08
2.64412e-09
-5.20507e-09
3.51669e-08
-2.91956e-09
-5.88289e-09
3.4385e-08
1.52628e-09
-3.33539e-09
3.05629e-08
-2.95545e-09
3.91674e-08
9.44855e-10
1.34463e-08
-1.56836e-09
1.85803e-08
2.01734e-09
4.67522e-08
3.63132e-08
-1.33406e-09
1.65142e-09
4.73281e-08
-2.22326e-09
2.32079e-09
5.57805e-08
6.32526e-10
-2.74708e-10
4.35849e-08
4.73233e-09
5.46493e-08
-8.375e-10
-3.6007e-09
3.11044e-08
-2.51403e-09
-9.06573e-10
5.1359e-08
3.78134e-09
-1.11295e-09
5.08984e-08
-4.1619e-09
6.51699e-08
5.15237e-10
-2.20591e-09
3.35093e-08
-9.98778e-10
8.90877e-10
3.41015e-08
1.89796e-09
1.48251e-09
2.50707e-08
6.34501e-10
3.67376e-08
1.07535e-09
1.43226e-08
-1.15935e-09
2.47515e-08
1.01091e-09
4.17573e-08
3.89042e-08
-3.66193e-09
5.14449e-10
4.84123e-08
2.81836e-09
6.44477e-09
4.3941e-08
-1.73705e-09
1.1355e-09
4.76023e-08
4.25219e-10
5.05766e-08
-2.5491e-09
3.13859e-09
3.01867e-08
3.50867e-09
2.02812e-09
4.97179e-08
-2.89593e-09
-1.00711e-09
5.94457e-08
2.57516e-11
6.23396e-08
-1.92851e-09
-2.04932e-09
4.09194e-08
4.92379e-10
-4.30971e-11
3.37518e-08
-5.84953e-10
-1.66382e-09
2.68048e-08
3.51856e-09
2.73937e-08
-6.53515e-10
1.84161e-08
-4.35037e-10
2.80961e-08
1.16518e-09
3.59336e-08
3.5345e-08
4.97118e-10
6.09771e-10
4.11428e-08
1.54793e-09
-3.16594e-09
4.61191e-08
-3.89896e-10
2.88952e-09
4.66527e-08
-6.47263e-09
5.80614e-08
-8.19173e-10
9.04163e-09
1.8654e-08
4.49777e-09
5.8037e-09
3.54314e-08
-5.91119e-09
2.90816e-09
6.98361e-08
3.0063e-09
4.48059e-08
-1.45787e-09
-1.99018e-09
5.31992e-08
2.0965e-09
1.33964e-09
3.46615e-08
-1.98542e-09
3.49962e-10
3.34449e-08
3.6004e-10
2.59579e-08
2.23017e-09
1.79881e-08
1.09757e-09
3.48501e-08
-2.35519e-09
4.27285e-08
2.5352e-08
1.36103e-09
-1.36382e-09
5.08488e-08
-9.84691e-10
3.20058e-09
4.50375e-08
-5.4725e-11
3.3734e-09
4.28358e-08
7.09789e-09
5.34284e-08
1.85662e-09
-5.30293e-09
2.15428e-08