/*--------------------------------*- C++ -*----------------------------------*\
| =========                 |                                                 |
| \\      /  F ield         | OpenFOAM: The Open Source CFD Toolbox           |
|  \\    /   O peration     | Version:  2506                                  |
|   \\  /    A nd           | Website:  www.openfoam.com                      |
|    \\/     M anipulation  |                                                 |
\*---------------------------------------------------------------------------*/
FoamFile
{
    version     2.0;
    format      ascii;
    arch        "LSB;label=32;scalar=64";
    class       volVectorField;
    location    "0.06";
    object      U;
}
// * * * * * * * * * * * * * * * * * * * * * * * * * * * * * * * * * * * * * //

dimensions      [0 1 -1 0 0 0 0];

internalField   nonuniform List<vector> 
1152
(
(-0.00259292 -0.00169457 0.0185471)
(-0.00113685 -0.000233235 0.012781)
(-0.000924588 -0.00100926 0.0138397)
(-0.00117868 0.000373412 0.0208721)
(0.00159957 -0.00218866 0.0143143)
(-0.000754991 -0.00252786 0.02111)
(-0.00294807 -0.00182058 0.0176382)
(-0.000607135 -0.000565085 0.0136525)
(0.000513937 -0.000869112 0.0137986)
(-0.0013997 -0.000586337 0.00927949)
(-0.00109112 -0.000303567 0.0115057)
(-0.000175629 0.00175747 0.0142288)
(4.37545e-05 -0.000575614 0.0110518)
(-0.00132758 -0.00360402 0.033064)
(-0.000150922 0.000560863 0.0125466)
(-0.00110663 0.00349582 0.027532)
(-0.000672006 -0.0021954 0.0238843)
(-0.00220093 -0.00357425 0.0433113)
(-0.00180831 -0.000760833 0.0193259)
(0.000481971 -0.00225693 0.0325622)
(-0.0045677 -0.00320104 0.0308803)
(-0.00177698 -0.000904086 0.0231668)
(-0.000458037 -0.000382855 0.0322968)
(-0.00119401 0.00220521 0.0232952)
(-0.000704058 -0.00196613 0.0313792)
(-0.000535655 -0.00458235 0.0359387)
(0.000496675 -0.000980991 0.0206861)
(-0.000324948 -0.000381862 0.0159121)
(-0.00612793 -0.00282632 0.0329901)
(-0.00173762 -1.63157e-05 0.0220476)
(0.00256022 -0.000353425 0.0220144)
(0.00107668 -0.0031975 0.0331702)
(0.00227602 -0.00175952 0.0414259)
(0.00115915 -0.00203391 0.0341653)
(0.00136634 0.00043855 0.025228)
(0.00017826 0.000285346 0.0270747)
(-0.000473796 -0.00129474 0.0240434)
(0.000162209 -0.00224739 0.0257713)
(0.0010347 -0.00179256 0.0313559)
(0.000792059 -0.000273449 0.0222447)
(-0.000699871 -0.000445762 0.0239353)
(-0.000458894 -0.00107743 0.0431649)
(0.00066802 -0.00123549 0.0245849)
(0.00136489 -0.00350515 0.0502069)
(-8.67676e-05 0.00182919 0.0324837)
(-5.02544e-05 0.000473362 0.0175086)
(-0.00045949 -0.000275878 0.0193668)
(0.00162215 -0.00100751 0.0412008)
(-0.000969109 -0.00115441 0.0455861)
(0.00132561 -0.000895761 0.0365654)
(0.00249593 0.00240908 0.0385602)
(-0.000699586 0.00248633 0.0388293)
(0.00148974 -0.000809468 0.0251672)
(0.0008666 -0.0013134 0.0282235)
(0.00240175 -0.00119488 0.0277288)
(-0.00131067 -0.00200912 0.0273862)
(0.000390998 -0.00253116 0.0373877)
(0.000181363 -0.000460491 0.0226239)
(0.00037346 -0.00159407 0.0224378)
(0.00175213 -0.00268741 0.0265184)
(0.0021975 0.000153421 0.0299869)
(0.000888668 0.00051085 0.026634)
(2.84744e-05 0.000698568 0.0184984)
(3.29321e-05 0.000672723 0.0120337)
(-0.00205921 -0.000960686 0.0359337)
(-9.5516e-05 -0.00139639 0.0180292)
(-2.36706e-05 -0.00106586 0.0255565)
(0.00252139 0.000488127 0.0400782)
(0.00134372 0.000123869 0.0432236)
(-0.000196091 0.000319745 0.0253786)
(-6.4712e-05 0.000982821 0.0454239)
(0.000312862 0.00230662 0.054404)
(-0.000476491 -0.00109768 0.0277142)
(0.000347835 0.00153868 0.029974)
(0.000440607 0.00111556 0.0203068)
(6.39057e-05 0.00174982 0.0243963)
(0.000683795 0.000509001 0.0248119)
(0.00160211 -0.000512507 0.0215302)
(0.000137281 -0.000212981 0.0121448)
(-0.00237629 -0.000677637 0.0317858)
(0.000902863 -0.000828088 0.0184417)
(-0.000263092 -0.000760872 0.0170724)
(-0.0016484 -0.00337889 0.0196635)
(-0.000374246 -0.00281571 0.0136168)
(0.00189596 -0.000901491 0.0246153)
(-0.00140431 -0.000812877 0.0147986)
(-0.00472869 -0.00111909 0.022111)
(0.000114374 -0.00109842 0.0135264)
(0.000827099 0.00272691 0.0199719)
(-0.000799285 0.000349623 0.0131104)
(-0.00162725 0.00176062 0.0127483)
(-0.00282139 0.00203672 0.0228773)
(0.000857798 5.83809e-05 0.00873025)
(-0.00246094 -0.00012417 0.0236063)
(-0.00392395 0.000824582 0.0201647)
(-0.0037113 0.00255115 0.0252257)
(0.000836731 -0.000610941 0.0238551)
(0.00083209 -0.000631287 0.0144805)
(-0.000580906 0.000588178 0.0211105)
(0.000218448 -0.000200339 0.0210842)
(-0.000298417 0.000182991 0.0184502)
(0.000376406 0.000235758 0.0218205)
(-0.000448773 0.000442308 0.0117065)
(0.00375994 -0.000761836 0.0180495)
(-0.000378354 -7.37676e-06 0.0197693)
(-0.000144028 -1.39237e-05 0.0134895)
(-0.000485423 3.09202e-05 0.0146055)
(-0.000458955 0.00032545 0.0160386)
(-0.000630413 -8.57769e-05 0.0173075)
(-0.00016426 0.000117628 0.0245226)
(-0.00067396 -0.000207243 0.0141143)
(-0.000793803 4.80464e-05 0.016164)
(-0.000250202 -0.000323995 0.0288225)
(0.000124556 0.000317847 0.0249617)
(0.000320921 0.000392413 0.026777)
(0.000261601 0.000230891 0.0297192)
(-0.00109588 7.91671e-05 0.0262462)
(4.06169e-05 0.000181403 0.0254242)
(0.000625462 5.83946e-05 0.0181172)
(0.000250683 -0.000241825 0.0298272)
(-0.000898448 -0.000581131 0.0256474)
(-0.00013852 -0.000521045 0.0216522)
(2.75413e-05 -0.000693156 0.0198467)
(-0.00019971 -0.000811588 0.0227715)
(-0.00144754 -0.000335498 0.0246762)
(-0.000227974 -0.000224634 0.0260857)
(0.000164204 -0.000675352 0.0227099)
(-7.07035e-05 -0.000556426 0.0230606)
(0.000843898 0.000649888 0.00866652)
(0.000733595 0.000821076 0.00809533)
(0.000286489 0.000834567 0.00788634)
(0.000233287 0.000316174 0.00838929)
(2.1354e-05 0.000842872 0.00765255)
(0.000719481 0.000866444 0.00752988)
(0.000228388 0.000890063 0.00620924)
(0.000344045 0.000800013 0.0073748)
(9.49636e-05 0.000258609 0.00743631)
(0.000616608 0.000201168 0.00683473)
(0.000196445 6.56373e-06 0.00613784)
(0.000186981 0.000490644 0.00654078)
(-0.000183483 -4.27602e-05 0.00751277)
(0.000396803 2.18577e-05 0.0077231)
(0.000451465 -0.000457248 0.00687647)
(0.000689173 -0.000163843 0.0066615)
(0.000253138 0.000344373 0.0143861)
(0.000333427 0.00052364 0.01398)
(0.000232153 0.000573155 0.0137048)
(0.000190451 0.000453262 0.0138438)
(2.31503e-05 0.000434308 0.01373)
(0.000350427 0.000521553 0.0134643)
(0.000221448 0.000557124 0.01296)
(0.000229384 0.000542231 0.0133039)
(0.000135579 0.000142605 0.0134744)
(0.000368356 0.000175342 0.0131022)
(0.00022412 0.000129534 0.0127259)
(0.000162736 0.000277788 0.012843)
(8.28985e-05 -3.87742e-05 0.013441)
(0.000310273 -9.91347e-06 0.0132563)
(0.000300468 -0.000170239 0.0128994)
(0.000297581 -0.000115279 0.0127023)
(0.000257461 0.0003613 0.0126277)
(0.000278184 0.000371968 0.0125067)
(0.000221472 0.000360485 0.0123683)
(0.00015985 0.000323209 0.0123673)
(0.000132589 0.0003364 0.0123373)
(0.000240726 0.000341276 0.0122391)
(0.000195609 0.000333369 0.0120496)
(0.00015703 0.000316032 0.0120898)
(0.00015947 0.000152479 0.0122311)
(0.000238781 0.00015903 0.0120831)
(0.000183318 0.000139035 0.0119117)
(0.000122251 0.00015776 0.0119024)
(0.000141452 9.08795e-06 0.0122284)
(0.000217033 1.14421e-05 0.012109)
(0.000186956 -3.87116e-05 0.0119444)
(0.000130075 -5.16434e-05 0.0118434)
(0.000126829 0.000212407 0.0127314)
(0.000148874 0.000221318 0.0126411)
(0.000134269 0.000217942 0.0125482)
(0.000101376 0.000205648 0.0125069)
(9.12289e-05 0.000189251 0.0125589)
(0.000134986 0.000194915 0.0124919)
(0.000121483 0.000190012 0.0124002)
(9.11092e-05 0.000177744 0.0123709)
(0.000110384 9.68636e-05 0.0124824)
(0.000137123 0.000101991 0.0124049)
(0.00011244 9.31051e-05 0.0123181)
(6.99621e-05 8.58545e-05 0.0122834)
(0.000107382 1.44791e-05 0.0124644)
(0.000128642 1.23048e-05 0.0123909)
(0.000103435 -7.84098e-06 0.0123078)
(5.52441e-05 -2.66926e-05 0.0122545)
(7.10151e-05 0.000128232 0.0126463)
(8.39105e-05 0.000128397 0.0126053)
(7.8401e-05 0.000124174 0.0125596)
(5.97602e-05 0.000116598 0.0125299)
(5.76239e-05 0.000110325 0.0125652)
(7.59571e-05 0.000110021 0.0125313)
(6.97387e-05 0.000104476 0.0124882)
(4.98025e-05 9.47268e-05 0.0124625)
(6.49505e-05 6.1608e-05 0.0125257)
(7.4675e-05 6.1306e-05 0.0124865)
(6.19503e-05 5.42373e-05 0.0124442)
(3.58801e-05 4.40777e-05 0.0124197)
(6.2497e-05 1.41815e-05 0.0125127)
(6.83244e-05 9.91419e-06 0.0124731)
(5.22415e-05 -1.60787e-06 0.0124324)
(2.16809e-05 -1.61174e-05 0.0124063)
(3.6986e-05 7.15363e-05 0.0126193)
(4.47523e-05 7.09583e-05 0.0125967)
(4.29484e-05 6.78671e-05 0.0125718)
(3.31848e-05 6.27125e-05 0.012553)
(3.2621e-05 6.0967e-05 0.0125771)
(4.07002e-05 5.97229e-05 0.0125577)
(3.74598e-05 5.54546e-05 0.0125349)
(2.59242e-05 4.85441e-05 0.0125185)
(3.5174e-05 3.6074e-05 0.0125538)
(3.86329e-05 3.42694e-05 0.0125328)
(3.16494e-05 2.88902e-05 0.0125109)
(1.67958e-05 2.08882e-05 0.0124965)
(3.28612e-05 1.00986e-05 0.0125441)
(3.3737e-05 5.94148e-06 0.0125233)
(2.41566e-05 -1.6272e-06 0.0125029)
(6.66122e-06 -1.15299e-05 0.0124901)
(1.91469e-05 3.88688e-05 0.0126059)
(2.34448e-05 3.82494e-05 0.0125939)
(2.27855e-05 3.61683e-05 0.0125806)
(1.77152e-05 3.27047e-05 0.0125699)
(1.75962e-05 3.29288e-05 0.0125842)
(2.12021e-05 3.16801e-05 0.0125735)
(1.93084e-05 2.86657e-05 0.0125615)
(1.28668e-05 2.40163e-05 0.0125522)
(1.81493e-05 2.01183e-05 0.012571)
(1.92289e-05 1.82043e-05 0.0125599)
(1.52119e-05 1.43222e-05 0.0125487)
(6.95911e-06 8.79585e-06 0.012541)
(1.61965e-05 5.99138e-06 0.0125647)
(1.5621e-05 2.65511e-06 0.0125541)
(9.99719e-06 -2.44944e-06 0.0125441)
(2.92042e-07 -8.92582e-06 0.0125382)
(9.77564e-06 2.07454e-05 0.0125996)
(1.20645e-05 2.02133e-05 0.0125933)
(1.17521e-05 1.88024e-05 0.0125864)
(9.07031e-06 1.65055e-05 0.0125805)
(9.08855e-06 1.74126e-05 0.0125884)
(1.06935e-05 1.63821e-05 0.0125827)
(9.5238e-06 1.43194e-05 0.0125764)
(5.9376e-06 1.12883e-05 0.0125714)
(8.89488e-06 1.06866e-05 0.0125811)
(9.104e-06 9.10649e-06 0.0125753)
(6.7512e-06 6.42343e-06 0.0125697)
(2.15467e-06 2.78594e-06 0.0125659)
(7.38631e-06 2.94775e-06 0.0125773)
(6.56839e-06 5.02412e-07 0.012572)
(3.26628e-06 -2.90812e-06 0.0125673)
(-2.11627e-06 -7.08539e-06 0.0125648)
(4.86911e-06 1.08725e-05 0.0125968)
(6.05956e-06 1.04421e-05 0.0125935)
(5.85612e-06 9.48117e-06 0.01259)
(4.39303e-06 7.97763e-06 0.0125868)
(4.46153e-06 8.96535e-06 0.012591)
(5.16333e-06 8.17973e-06 0.012588)
(4.42162e-06 6.79401e-06 0.0125848)
(2.40108e-06 4.85378e-06 0.0125823)
(4.06966e-06 5.33672e-06 0.0125871)
(3.98992e-06 4.16311e-06 0.0125841)
(2.59295e-06 2.37199e-06 0.0125814)
(9.07263e-09 5.60763e-08 0.0125796)
(2.98118e-06 1.02655e-06 0.0125849)
(2.27802e-06 -6.67282e-07 0.0125824)
(3.49278e-07 -2.89462e-06 0.0125803)
(-2.68008e-06 -5.54299e-06 0.0125794)
(2.31929e-06 5.5615e-06 0.0125956)
(2.93218e-06 5.23391e-06 0.0125941)
(2.77149e-06 4.58294e-06 0.0125923)
(1.94516e-06 3.61178e-06 0.0125907)
(2.03695e-06 4.43661e-06 0.0125927)
(2.3313e-06 3.86347e-06 0.0125912)
(1.84957e-06 2.95146e-06 0.0125897)
(6.96853e-07 1.72869e-06 0.0125884)
(1.65701e-06 2.41653e-06 0.0125907)
(1.51093e-06 1.59373e-06 0.0125893)
(6.74315e-07 4.32944e-07 0.012588)
(-7.86011e-07 -1.01178e-06 0.0125872)
(9.12714e-07 -3.0514e-08 0.0125896)
(3.92505e-07 -1.15538e-06 0.0125884)
(-7.38156e-07 -2.56827e-06 0.0125876)
(-2.43791e-06 -4.20415e-06 0.0125874)
(1.02569e-06 2.74935e-06 0.0125953)
(1.33458e-06 2.50698e-06 0.0125946)
(1.19915e-06 2.07133e-06 0.0125938)
(7.17919e-07 1.45455e-06 0.012593)
(8.20072e-07 2.06082e-06 0.0125939)
(9.26474e-07 1.65268e-06 0.0125932)
(6.1564e-07 1.06412e-06 0.0125925)
(-4.99766e-08 3.03493e-07 0.012592)
(5.19551e-07 8.98383e-07 0.0125929)
(3.75458e-07 3.46802e-07 0.0125923)
(-1.28533e-07 -3.928e-07 0.0125918)
(-9.50342e-07 -1.29467e-06 0.0125915)
(2.70136e-08 -5.12988e-07 0.0125924)
(-3.39203e-07 -1.2346e-06 0.012592)
(-1.01713e-06 -2.10782e-06 0.0125917)
(-1.93656e-06 -3.08909e-06 0.0125918)
(3.9259e-07 1.28973e-06 0.0125952)
(5.34751e-07 1.11538e-06 0.0125951)
(4.34522e-07 8.28163e-07 0.0125948)
(1.49309e-07 4.39076e-07 0.0125944)
(2.41474e-07 8.492e-07 0.0125947)
(2.65522e-07 5.76063e-07 0.0125944)
(6.6655e-08 1.9968e-07 0.0125942)
(-3.17369e-07 -2.71414e-07 0.012594)
(2.61996e-08 1.71396e-07 0.0125943)
(-9.30398e-08 -1.86662e-07 0.0125941)
(-4.00897e-07 -6.5367e-07 0.0125939)
(-8.56403e-07 -1.21979e-06 0.0125939)
(-2.91378e-07 -6.48786e-07 0.0125942)
(-5.44658e-07 -1.10344e-06 0.012594)
(-9.62408e-07 -1.6341e-06 0.012594)
(-1.43227e-06 -2.20943e-06 0.0125942)
(9.99899e-08 5.57019e-07 0.0125953)
(1.59462e-07 4.35754e-07 0.0125954)
(8.64186e-08 2.4986e-07 0.0125954)
(-7.63041e-08 7.1074e-09 0.0125953)
(-8.29577e-09 2.7267e-07 0.0125952)
(-1.42655e-08 9.52e-08 0.0125952)
(-1.40471e-07 -1.39767e-07 0.0125952)
(-3.56738e-07 -4.25167e-07 0.0125952)
(-1.54132e-07 -1.24324e-07 0.0125952)
(-2.40558e-07 -3.5261e-07 0.0125951)
(-4.27244e-07 -6.41775e-07 0.0125951)
(-6.76458e-07 -9.89083e-07 0.0125952)
(-3.57033e-07 -5.99294e-07 0.0125952)
(-5.22949e-07 -8.82256e-07 0.0125952)
(-7.75086e-07 -1.20192e-06 0.0125953)
(-1.00617e-06 -1.53351e-06 0.0125956)
(-2.26884e-08 2.07116e-07 0.0125955)
(-7.83079e-09 1.26925e-07 0.0125957)
(-5.99638e-08 1.15052e-08 0.0125958)
(-1.47386e-07 -1.34743e-07 0.0125959)
(-9.88004e-08 2.844e-08 0.0125956)
(-1.14201e-07 -8.16944e-08 0.0125957)
(-1.94237e-07 -2.21159e-07 0.0125958)
(-3.10928e-07 -3.85685e-07 0.0125958)
(-1.93466e-07 -1.99294e-07 0.0125957)
(-2.50818e-07 -3.3946e-07 0.0125958)
(-3.60537e-07 -5.08934e-07 0.0125959)
(-4.93853e-07 -7.06079e-07 0.012596)
(-3.20214e-07 -4.66856e-07 0.0125959)
(-4.18839e-07 -6.37211e-07 0.0125959)
(-5.60147e-07 -8.23592e-07 0.0125961)
(-6.75898e-07 -1.00804e-06 0.0125963)
(-9.57258e-08 6.18588e-08 0.0125956)
(-1.01613e-07 1.66103e-08 0.0125959)
(-1.33486e-07 -5.04548e-08 0.0125961)
(-1.76118e-07 -1.34564e-07 0.0125962)
(-1.41539e-07 -3.92443e-08 0.0125959)
(-1.61215e-07 -1.01199e-07 0.012596)
(-2.07803e-07 -1.78586e-07 0.0125961)
(-2.66643e-07 -2.67212e-07 0.0125962)
(-1.97462e-07 -1.58967e-07 0.0125961)
(-2.38057e-07 -2.37984e-07 0.0125962)
(-2.98322e-07 -3.30512e-07 0.0125963)
(-3.66421e-07 -4.33502e-07 0.0125964)
(-2.69558e-07 -3.02389e-07 0.0125963)
(-3.30034e-07 -3.9737e-07 0.0125963)
(-4.03164e-07 -4.99109e-07 0.0125965)
(-4.6274e-07 -5.96198e-07 0.0125967)
(-1.87394e-07 4.36243e-08 0.0125958)
(-2.10248e-07 1.37742e-08 0.0125961)
(-2.3489e-07 -2.94603e-08 0.0125963)
(-2.59548e-07 -8.1478e-08 0.0125964)
(-2.17793e-07 -7.57086e-09 0.0125961)
(-2.48994e-07 -4.59734e-08 0.0125962)
(-2.82273e-07 -9.35627e-08 0.0125964)
(-3.1545e-07 -1.47307e-07 0.0125965)
(-2.53189e-07 -7.10932e-08 0.0125963)
(-2.95558e-07 -1.16843e-07 0.0125964)
(-3.36482e-07 -1.70114e-07 0.0125965)
(-3.75445e-07 -2.28511e-07 0.0125966)
(-2.94357e-07 -1.4861e-07 0.0125965)
(-3.4664e-07 -1.99785e-07 0.0125966)
(-3.94061e-07 -2.55702e-07 0.0125967)
(-4.32611e-07 -3.11316e-07 0.0125969)
(-9.74369e-05 -8.69324e-05 0.0109509)
(-0.000894087 -0.000121224 0.0195274)
(-2.12598e-05 -0.00166951 0.017281)
(-0.000527022 -0.0024422 0.0126377)
(0.000319306 -0.000345312 0.017268)
(-0.00101742 -0.00144146 0.00930095)
(-0.0040644 -0.00273175 0.0144874)
(-1.05252e-05 -0.00316563 0.0101807)
(-0.0010003 0.000442061 0.0132024)
(-0.000939236 -0.00157811 0.0147882)
(-0.00202181 -0.00375046 0.0217371)
(-0.000837516 -0.000280721 0.0113757)
(-0.00270402 -8.13227e-05 0.0159298)
(-0.00290871 0.00119449 0.012261)
(-0.000568538 0.00110822 0.00970232)
(0.00106127 0.000740103 0.0187391)
(-0.00148263 -0.000495683 0.0360077)
(-0.00159866 -0.000323329 0.0240278)
(0.000553027 -0.000562149 0.0288626)
(-0.00188919 0.00307964 0.0624568)
(8.35327e-05 -0.000291839 0.0234932)
(-0.000648537 0.000659075 0.0525186)
(0.00196945 -0.0019404 0.0258011)
(-0.000215266 -0.00144853 0.016005)
(0.00134579 -0.000949339 0.0317156)
(-0.00112189 0.000113582 0.0213963)
(-0.00106575 -0.000371553 0.0196026)
(0.000846006 -0.0020979 0.0185606)
(0.00255242 0.00228866 0.0405182)
(0.00143122 -0.000598868 0.0217486)
(-0.00118802 0.000438441 0.0148963)
(-0.00305993 -0.000328045 0.0281465)
(0.000233389 1.05058e-05 0.0303984)
(0.00173751 -0.00129268 0.0341907)
(-0.00147218 -0.000726178 0.0271935)
(0.000274668 -0.000416255 0.0294062)
(-0.000910418 0.000111174 0.0375105)
(-0.000720153 0.000138142 0.017531)
(0.00169576 -1.98464e-05 0.02929)
(9.52951e-06 0.000556658 0.0466324)
(0.00134128 -0.00122586 0.0240516)
(0.00147305 0.000323021 0.0397795)
(-0.000100825 -0.000426038 0.0251231)
(-0.000431398 -0.00120185 0.0224425)
(0.00177856 0.00147017 0.0190951)
(0.00393304 0.00226645 0.036551)
(0.000892713 -0.00122999 0.0340185)
(-0.000283838 -0.000572004 0.0355822)
(-5.71624e-05 -0.000389948 0.0313925)
(-0.000476476 -0.000920853 0.0217965)
(-0.00236856 -0.0042436 0.0467624)
(-0.000190163 -0.00133753 0.0166731)
(0.00125169 0.000165747 0.0310452)
(0.00102197 -0.00345039 0.0406448)
(0.000170115 -0.00131315 0.0230821)
(0.00384315 -0.00224569 0.0390633)
(-0.00195112 0.00204594 0.0291971)
(-0.00128331 -0.00238023 0.0355829)
(0.000442999 -0.00132265 0.032503)
(0.000893998 -0.00114108 0.017755)
(-0.00267894 -0.00116343 0.0203303)
(-0.0014805 -1.15979e-05 0.0125036)
(0.000537905 -0.000495533 0.0230766)
(0.00180824 0.000688352 0.0310085)
(-0.00355116 -0.00413666 0.0315156)
(-0.00761142 -0.00640735 0.0435238)
(-0.000874459 -0.00187312 0.0382199)
(0.000109429 -0.000704845 0.0244999)
(0.00154189 -0.00305676 0.0258937)
(0.00219693 -0.00233272 0.0382433)
(0.000575069 0.000336175 0.0126703)
(0.00190819 3.71276e-05 0.0351987)
(-2.78558e-05 0.000981246 0.0321062)
(0.000415766 0.00099259 0.0207248)
(0.0018107 0.000625703 0.0232628)
(0.000298832 0.000280768 0.0136261)
(0.000392556 -0.00315343 0.0418089)
(0.000326436 -0.00200044 0.0241262)
(0.000742509 -0.000546222 0.0245943)
(0.000116671 -0.000246068 0.0173588)
(0.0110641 -0.00204298 0.0592039)
(0.00447341 0.000789159 0.0147102)
(0.00246545 0.000655115 0.0145078)
(0.00125271 -0.00164314 0.0248036)
(0.00127294 -0.00098743 0.0159205)
(0.00235255 -3.39585e-05 0.014337)
(0.00271234 -0.000923458 0.0151459)
(0.00121702 -0.00089327 0.0141169)
(0.00244183 -0.000652052 0.0185826)
(0.003616 0.000313212 0.0228214)
(0.00253004 -0.000485859 0.0208908)
(0.00205189 -0.000187961 0.0184337)
(0.00213033 0.00167559 0.0219586)
(0.00322815 -8.63226e-05 0.0204745)
(0.00182388 0.000732041 0.018573)
(0.0042884 -0.000184458 0.0251379)
(0.000392042 -0.00166516 0.0150046)
(0.000394444 -0.00022218 0.0313632)
(0.000945345 0.000781838 0.0305646)
(0.000868308 -0.000401746 0.0251556)
(-0.000182105 -0.000183692 0.01271)
(-3.1588e-05 -0.000285992 0.0175696)
(-6.2024e-05 -6.48608e-05 0.0121502)
(-0.00092864 0.000347016 0.0166476)
(-0.000226621 3.12999e-05 0.0118635)
(-2.98489e-05 -0.000186197 0.0202744)
(-2.36642e-05 -0.000129613 0.0149842)
(-0.000402369 0.00020882 0.0144673)
(-0.00063489 0.000452049 0.018887)
(-0.000699446 0.00087461 0.016069)
(-0.000525447 -5.08011e-05 0.0152775)
(-0.000405173 -6.85654e-05 0.0138586)
(-0.000469582 6.85463e-05 0.0374483)
(-0.000723411 -0.000154761 0.0366981)
(-0.000436823 7.18305e-05 0.0329727)
(-0.000341196 8.39391e-05 0.0297805)
(-0.000556085 0.000434943 0.0191604)
(-0.000827521 0.000300524 0.0244369)
(-0.000907604 0.000400437 0.0209523)
(-0.00114344 0.000243666 0.023647)
(-0.000495936 1.15158e-05 0.0217622)
(-0.000905329 -4.83989e-05 0.0277906)
(-0.000775009 -0.000196445 0.0229076)
(-0.00101041 -0.000357499 0.0220221)
(-0.000365682 3.51071e-05 0.0315034)
(-0.00097434 3.62772e-05 0.0263285)
(-0.0012279 -0.000264472 0.0228036)
(-0.00149563 -0.000191697 0.0214814)
(-0.000501385 0.00118599 0.0107076)
(0.000207135 0.00121913 0.0104125)
(0.000645144 0.00128183 0.00962423)
(0.000680082 0.00111053 0.00889517)
(-0.00113209 0.00147269 0.00555494)
(-0.000896215 0.00124995 0.00655662)
(-0.000554613 0.00134491 0.00645924)
(-0.000563984 0.00118175 0.00695574)
(-0.000167753 -0.000684242 0.00557011)
(-6.03281e-05 -0.000164156 0.00681512)
(0.000366754 0.000163308 0.0064384)
(-8.95437e-05 0.000368577 0.00659019)
(0.000314313 -0.000608391 0.00773519)
(0.000562734 -0.000285768 0.00698824)
(0.000477224 -0.000342328 0.00643976)
(-0.000108699 1.0779e-05 0.00650017)
(-0.000244339 0.0006483 0.0161384)
(0.000142572 0.000722084 0.0158168)
(0.000338623 0.00070838 0.015274)
(0.000274332 0.00057797 0.0147461)
(-0.000487315 0.000740279 0.0132359)
(-0.000328848 0.000635498 0.0135982)
(-0.000153754 0.000599078 0.0135688)
(-0.000164208 0.000498071 0.0136259)
(4.35207e-06 -0.000363538 0.0132615)
(8.2085e-05 -0.000136714 0.0136485)
(0.000250774 1.84857e-05 0.0134373)
(8.36922e-05 0.000121762 0.0133445)
(0.000185083 -0.000360247 0.0141809)
(0.000357346 -0.000212765 0.0138277)
(0.000343459 -0.000193615 0.0134399)
(0.000104039 -5.11491e-05 0.0132479)
(-0.000178904 0.000398872 0.0133722)
(7.44005e-06 0.000455509 0.0132098)
(0.000136108 0.000467562 0.0129626)
(0.000185067 0.000433278 0.0127363)
(-0.00028092 0.000490142 0.0121861)
(-0.000201943 0.000453282 0.0122945)
(-8.65676e-05 0.000433282 0.012286)
(-4.60139e-06 0.00038366 0.0122925)
(-2.53947e-05 -2.44263e-05 0.0122185)
(6.81719e-06 5.70616e-05 0.0123273)
(8.95955e-05 0.000123353 0.0122597)
(9.48938e-05 0.000156355 0.0122117)
(5.3069e-05 -0.00010854 0.012565)
(0.000116676 -5.58485e-05 0.0124341)
(0.000139763 -3.42163e-05 0.0122885)
(0.000104765 8.85118e-06 0.0121979)
(-9.10327e-05 0.000203142 0.0131067)
(2.66818e-06 0.000239067 0.0130374)
(6.73155e-05 0.000248346 0.0129312)
(9.32941e-05 0.000236336 0.0128172)
(-0.000125197 0.000244067 0.0125537)
(-7.70729e-05 0.000234698 0.0125936)
(-1.47828e-05 0.000223068 0.0125949)
(3.31562e-05 0.000201161 0.0125792)
(-9.43196e-06 2.98121e-05 0.0125051)
(1.71784e-05 5.96457e-05 0.0125443)
(5.88228e-05 8.38358e-05 0.0125306)
(7.91882e-05 9.40412e-05 0.0125068)
(2.11415e-05 -2.68928e-05 0.0125786)
(5.58023e-05 -9.03946e-06 0.0125507)
(7.9013e-05 1.81999e-06 0.0125137)
(8.47326e-05 1.43391e-05 0.0124817)
(-5.19989e-05 0.000108249 0.0128172)
(-6.08139e-06 0.000128128 0.0127843)
(2.86525e-05 0.000136132 0.0127358)
(4.82674e-05 0.000134294 0.0126842)
(-6.14631e-05 0.000127557 0.0125937)
(-3.54186e-05 0.000127222 0.0126026)
(-2.28278e-06 0.000124147 0.0125977)
(2.67886e-05 0.000115602 0.0125825)
(-8.18483e-06 3.88886e-05 0.0125706)
(7.87112e-06 5.04766e-05 0.0125766)
(2.98511e-05 5.9576e-05 0.0125664)
(4.68822e-05 6.19074e-05 0.0125482)
(7.03081e-06 2.67536e-06 0.0125804)
(2.3501e-05 8.6864e-06 0.01257)
(3.81865e-05 1.29522e-05 0.0125538)
(4.87919e-05 1.58893e-05 0.012534)
(-2.79645e-05 5.57867e-05 0.0127022)
(-5.31857e-06 6.6269e-05 0.0126871)
(1.26633e-05 7.14541e-05 0.0126647)
(2.43283e-05 7.20422e-05 0.0126396)
(-2.97905e-05 6.52001e-05 0.0126035)
(-1.54257e-05 6.66886e-05 0.0126051)
(1.84453e-06 6.63779e-05 0.0126007)
(1.74671e-05 6.31501e-05 0.01259)
(-5.85734e-06 2.96106e-05 0.0125863)
(3.69201e-06 3.41376e-05 0.0125862)
(1.55481e-05 3.73223e-05 0.0125801)
(2.59044e-05 3.72703e-05 0.0125688)
(2.02678e-06 9.30105e-06 0.0125802)
(1.00059e-05 1.12287e-05 0.0125762)
(1.85079e-05 1.24984e-05 0.012569)
(2.59491e-05 1.23784e-05 0.0125583)
(-1.47306e-05 2.85894e-05 0.0126463)
(-3.36296e-06 3.40487e-05 0.0126393)
(5.94926e-06 3.71925e-05 0.0126286)
(1.2555e-05 3.81275e-05 0.0126163)
(-1.46073e-05 3.34008e-05 0.0126029)
(-6.68397e-06 3.48086e-05 0.0126026)
(2.26213e-06 3.52153e-05 0.0125991)
(1.03284e-05 3.40136e-05 0.0125923)
(-3.719e-06 1.91072e-05 0.0125916)
(1.82236e-06 2.09371e-05 0.0125906)
(8.14384e-06 2.19933e-05 0.0125867)
(1.37353e-05 2.13949e-05 0.0125799)
(5.12541e-07 8.30784e-06 0.0125842)
(4.5399e-06 8.83068e-06 0.0125825)
(9.08541e-06 8.95735e-06 0.0125789)
(1.31565e-05 8.06908e-06 0.012573)
(-7.78178e-06 1.4741e-05 0.0126198)
(-1.98801e-06 1.75213e-05 0.0126164)
(2.83527e-06 1.92957e-05 0.0126112)
(6.48407e-06 1.9983e-05 0.012605)
(-7.33276e-06 1.72849e-05 0.0126004)
(-2.99813e-06 1.8198e-05 0.0125997)
(1.60973e-06 1.85859e-05 0.0125973)
(5.69372e-06 1.80836e-05 0.0125932)
(-2.27855e-06 1.14615e-05 0.0125935)
(8.01071e-07 1.21692e-05 0.0125925)
(4.09401e-06 1.24232e-05 0.0125901)
(6.93213e-06 1.17819e-05 0.0125861)
(4.15034e-08 5.73613e-06 0.012588)
(2.03206e-06 5.77264e-06 0.0125871)
(4.28385e-06 5.50259e-06 0.0125852)
(6.23226e-06 4.57427e-06 0.0125819)
(-4.16918e-06 7.68453e-06 0.0126069)
(-1.17811e-06 9.04525e-06 0.0126053)
(1.31995e-06 9.97151e-06 0.0126027)
(3.30653e-06 1.03494e-05 0.0125996)
(-3.78552e-06 9.0374e-06 0.0125981)
(-1.44518e-06 9.51573e-06 0.0125975)
(9.07273e-07 9.72517e-06 0.012596)
(2.94267e-06 9.4429e-06 0.0125936)
(-1.37537e-06 6.56939e-06 0.012594)
(2.55934e-07 6.78207e-06 0.0125934)
(1.91449e-06 6.73087e-06 0.012592)
(3.28308e-06 6.18108e-06 0.0125897)
(-9.8717e-08 3.47233e-06 0.0125906)
(8.12891e-07 3.32888e-06 0.0125901)
(1.83723e-06 2.9676e-06 0.0125891)
(2.66201e-06 2.20223e-06 0.0125873)
(-2.26979e-06 4.04506e-06 0.0126007)
(-7.11338e-07 4.66768e-06 0.0125999)
(5.77391e-07 5.10403e-06 0.0125986)
(1.63893e-06 5.25582e-06 0.012597)
(-1.99924e-06 4.74218e-06 0.0125968)
(-7.55935e-07 4.93768e-06 0.0125963)
(4.22005e-07 4.99668e-06 0.0125954)
(1.41165e-06 4.78708e-06 0.0125941)
(-8.16515e-07 3.61486e-06 0.0125945)
(6.67628e-09 3.61006e-06 0.0125941)
(8.00873e-07 3.45882e-06 0.0125932)
(1.41202e-06 3.02676e-06 0.012592)
(-1.23923e-07 1.87591e-06 0.0125925)
(2.39895e-07 1.68813e-06 0.0125922)
(6.48749e-07 1.35621e-06 0.0125916)
(9.25462e-07 7.8224e-07 0.0125907)
(-1.25634e-06 2.14208e-06 0.0125978)
(-4.39316e-07 2.38917e-06 0.0125973)
(2.20736e-07 2.56054e-06 0.0125967)
(7.76597e-07 2.58295e-06 0.0125959)
(-1.07575e-06 2.47364e-06 0.0125961)
(-4.29426e-07 2.51218e-06 0.0125958)
(1.48347e-07 2.48425e-06 0.0125953)
(6.15886e-07 2.3112e-06 0.0125946)
(-4.75981e-07 1.89844e-06 0.0125949)
(-8.81519e-08 1.81384e-06 0.0125946)
(2.64526e-07 1.64791e-06 0.0125942)
(5.09438e-07 1.32473e-06 0.0125936)
(-1.06304e-07 8.8252e-07 0.0125938)
(-6.50728e-09 7.09901e-07 0.0125937)
(1.12992e-07 4.45034e-07 0.0125934)
(1.50481e-07 3.61175e-08 0.0125929)
(-7.07805e-07 1.13286e-06 0.0125964)
(-2.82517e-07 1.19863e-06 0.0125962)
(5.05549e-08 1.23879e-06 0.0125958)
(3.45974e-07 1.20191e-06 0.0125955)
(-5.87209e-07 1.27171e-06 0.0125958)
(-2.62794e-07 1.23661e-06 0.0125956)
(9.7743e-09 1.17285e-06 0.0125953)
(2.20509e-07 1.03188e-06 0.012595)
(-2.72908e-07 9.39325e-07 0.0125953)
(-1.0993e-07 8.38472e-07 0.0125952)
(2.4827e-08 6.94426e-07 0.0125949)
(9.9728e-08 4.60676e-07 0.0125946)
(-7.86582e-08 3.27163e-07 0.0125948)
(-9.18695e-08 1.89656e-07 0.0125948)
(-9.80165e-08 -6.95143e-09 0.0125946)
(-1.51749e-07 -2.87654e-07 0.0125944)
(-4.03008e-07 5.93663e-07 0.0125958)
(-1.88017e-07 5.81951e-07 0.0125957)
(-2.75672e-08 5.66366e-07 0.0125955)
(1.29861e-07 5.11639e-07 0.0125954)
(-3.25611e-07 6.42243e-07 0.0125958)
(-1.71673e-07 5.82146e-07 0.0125957)
(-5.39258e-08 5.12077e-07 0.0125955)
(3.32184e-08 4.02338e-07 0.0125953)
(-1.56322e-07 4.34671e-07 0.0125957)
(-1.04945e-07 3.44423e-07 0.0125956)
(-7.20125e-08 2.31388e-07 0.0125955)
(-6.86347e-08 6.76836e-08 0.0125953)
(-5.4981e-08 5.77445e-08 0.0125956)
(-1.09531e-07 -4.35466e-08 0.0125955)
(-1.63151e-07 -1.81521e-07 0.0125954)
(-2.39739e-07 -3.6788e-07 0.0125953)
(-2.26469e-07 3.05577e-07 0.0125956)
(-1.24324e-07 2.70498e-07 0.0125955)
(-5.75597e-08 2.37621e-07 0.0125954)
(2.444e-08 1.86858e-07 0.0125954)
(-1.79304e-07 3.17184e-07 0.0125959)
(-1.13411e-07 2.5873e-07 0.0125958)
(-7.3483e-08 1.98096e-07 0.0125957)
(-4.6956e-08 1.19307e-07 0.0125956)
(-8.96567e-08 1.89736e-07 0.012596)
(-8.7252e-08 1.18445e-07 0.012596)
(-9.73719e-08 3.57009e-08 0.0125958)
(-1.2139e-07 -7.44845e-08 0.0125958)
(-3.95258e-08 -4.24199e-08 0.0125961)
(-1.0126e-07 -1.12406e-07 0.012596)
(-1.62443e-07 -2.04768e-07 0.012596)
(-2.34675e-07 -3.23423e-07 0.0125959)
(-1.28941e-07 1.64606e-07 0.0125955)
(-8.60772e-08 1.34175e-07 0.0125955)
(-7.0059e-08 1.01693e-07 0.0125954)
(-4.36595e-08 6.01888e-08 0.0125955)
(-1.00174e-07 1.61094e-07 0.012596)
(-7.919e-08 1.17058e-07 0.0125959)
(-7.96267e-08 7.13755e-08 0.0125958)
(-8.96263e-08 1.80558e-08 0.0125958)
(-5.32023e-08 8.76514e-08 0.0125963)
(-6.96919e-08 3.87048e-08 0.0125962)
(-9.85665e-08 -1.65652e-08 0.0125961)
(-1.37856e-07 -8.49668e-08 0.0125961)
(-2.95557e-08 -4.91539e-08 0.0125964)
(-8.40846e-08 -9.26103e-08 0.0125964)
(-1.40282e-07 -1.49971e-07 0.0125963)
(-2.05127e-07 -2.20023e-07 0.0125962)
(-1.18733e-07 1.34223e-07 0.0125956)
(-1.18987e-07 1.12162e-07 0.0125956)
(-1.30855e-07 8.80689e-08 0.0125955)
(-1.41134e-07 5.88668e-08 0.0125956)
(-8.93689e-08 1.28556e-07 0.0125961)
(-1.07265e-07 9.79352e-08 0.012596)
(-1.34655e-07 6.56648e-08 0.012596)
(-1.66973e-07 2.91312e-08 0.012596)
(-5.46761e-08 8.26135e-08 0.0125965)
(-9.70636e-08 5.06136e-08 0.0125964)
(-1.44307e-07 1.47738e-08 0.0125963)
(-1.96167e-07 -2.7026e-08 0.0125963)
(-3.61995e-08 -5.2702e-09 0.0125967)
(-1.02477e-07 -3.02525e-08 0.0125966)
(-1.67102e-07 -6.34342e-08 0.0125966)
(-2.33406e-07 -1.03196e-07 0.0125965)
(-0.00183648 -0.0011264 0.0163737)
(-0.00255362 0.000742067 0.0168672)
(-0.00115158 0.000936769 0.011149)
(0.000254803 0.000309897 0.0130493)
(-0.00231611 -0.00138665 0.0178609)
(-0.00321636 -0.00202583 0.01773)
(-0.00205412 0.000692466 0.0161587)
(-0.000897125 0.000120507 0.0153632)
(-0.00371274 -0.00099802 0.0148724)
(-0.00213203 -0.00167921 0.00941417)
(-0.00115636 1.29092e-05 0.0159015)
(-0.000106878 -0.00101677 0.0115031)
(-0.00277963 7.01951e-05 0.01611)
(-0.000279481 0.000670241 0.0109694)
(-0.00114535 -0.000686879 0.0208009)
(-0.000303241 0.000413773 0.0081461)
(2.53202e-05 -0.00122441 0.0421371)
(-0.000682261 -0.00129555 0.0237845)
(-0.000388089 0.000168565 0.0319772)
(-0.000338387 -0.00110411 0.0292871)
(-0.000304246 -0.000183818 0.0209716)
(-0.000787845 -0.0013914 0.0364804)
(-0.000965521 -0.00178712 0.0309706)
(-0.000184761 -0.00206417 0.0321577)
(0.00119523 -0.00167268 0.0365757)
(-0.00113724 -0.00177468 0.0217557)
(-0.00109768 -0.00255341 0.0243805)
(-0.000330984 -0.00190704 0.0262965)
(-0.000593325 -0.00164159 0.020649)
(-0.000971603 -0.00242665 0.0190888)
(-0.000574793 -0.00109821 0.038207)
(-0.00116941 -0.00209757 0.0290054)
(0.000322015 -5.20591e-05 0.0264083)