/*--------------------------------*- C++ -*----------------------------------*\
| =========                 |                                                 |
| \\      /  F ield         | OpenFOAM: The Open Source CFD Toolbox           |
|  \\    /   O peration     | Version:  2506                                  |
|   \\  /    A nd           | Website:  www.openfoam.com                      |
|    \\/     M anipulation  |                                                 |
\*---------------------------------------------------------------------------*/
FoamFile
{
    version     2.0;
    format      ascii;
    arch        "LSB;label=32;scalar=64";
    class       volVectorField;
    location    "0.06";
    object      Us;
}
// * * * * * * * * * * * * * * * * * * * * * * * * * * * * * * * * * * * * * //

dimensions      [0 1 -1 0 0 0 0];

internalField   nonuniform List<vector> 
1152
(
(-0.000494756 -0.000470994 -0.000189988)
(0.000207209 -0.000993409 -0.000245941)
(0.00015456 -0.000261725 -0.000196878)
(-4.61639e-05 0.000267731 0.00012488)
(-1.38134e-05 -0.00095632 -0.000209486)
(-0.000165317 -0.0012021 -9.77896e-05)
(-0.00114513 -0.000429713 3.1511e-05)
(-0.000141076 0.000264001 9.45063e-05)
(-0.000739859 -0.000340434 -0.000670139)
(-0.000556974 -0.000598004 4.34466e-05)
(-0.000236266 -0.000126749 -0.000133816)
(-0.000300628 0.000402486 -0.000414309)
(-0.000611097 3.7066e-05 -0.000274922)
(-0.00106472 -0.000342596 -0.00059103)
(-0.000189453 9.55389e-05 5.20419e-05)
(-0.000108314 0.000243341 -0.000339664)
(-0.000247362 -0.00205281 0.00383997)
(-0.000390208 -0.00151915 0.00307823)
(-0.000892724 -0.000480772 0.00248873)
(6.27467e-05 -0.000974874 0.003532)
(-0.00122001 -0.00209947 0.00319174)
(-0.00122087 -0.000743965 0.00426742)
(-0.000286141 -0.000679018 0.00288119)
(-1.05167e-05 0.000723103 0.00258778)
(-0.000884101 -0.0014805 0.00424096)
(-0.000728896 -0.001181 0.00450391)
(3.26826e-05 -0.000583476 0.00231081)
(0.000288062 -0.000255865 0.00254625)
(-0.00179899 -0.00123608 0.00361682)
(-0.00109548 -0.000656006 0.00307949)
(0.000748873 -0.000484372 0.00224697)
(0.000379023 -0.00115091 0.00216666)
(0.000540093 -0.00130253 0.00346278)
(0.000795892 -0.00115186 0.00342009)
(0.00065066 0.00054617 0.00228819)
(0.000759229 0.000269248 0.00247364)
(7.01474e-06 -0.000552205 0.0031701)
(0.000238198 -0.00162548 0.00356854)
(0.000398958 -0.000380192 0.00274999)
(0.000368347 0.000224396 0.00210559)
(-0.000152386 -9.25068e-05 0.00283218)
(-0.000261251 -0.000435704 0.00266824)
(-7.57291e-05 -0.000481969 0.00277932)
(0.00017094 -0.000306016 0.00310365)
(4.96906e-05 0.000128233 0.00246912)
(0.000255213 -0.00025286 0.00185498)
(-2.51252e-05 -0.000601581 0.00187978)
(-0.000159807 -0.000110554 0.00222745)
(-7.66616e-05 -0.000667375 0.00298894)
(0.000692061 -0.000808161 0.0025571)
(0.000184056 6.7208e-05 0.00286963)
(0.000534484 -0.000604188 0.00283394)
(0.000461727 -0.000395506 0.00249422)
(6.34025e-05 -0.000608003 0.00224653)
(0.000168922 -0.00037579 0.00245293)
(-0.000153333 1.10241e-05 0.0027809)
(7.2339e-05 -0.0003001 0.0026037)
(9.72866e-05 -0.000143429 0.00184621)
(0.000196669 -0.000356713 0.00214971)
(0.000329157 -0.000112531 0.00219855)
(0.000346827 -0.000524731 0.00255451)
(9.43911e-05 -0.00013697 0.00170222)
(7.26669e-05 -0.000200567 0.0018419)
(-0.00027978 7.95001e-05 0.00201561)
(9.54347e-05 -0.00062157 0.00194496)
(-0.000114225 -0.00088639 0.00186591)
(-0.000144575 -0.000394543 0.00273417)
(7.60634e-05 8.26842e-05 0.00205651)
(0.000241558 -0.000216898 0.00184941)
(-2.19823e-05 -0.000231901 0.00171617)
(7.63192e-05 8.9999e-05 0.00207947)
(-2.78247e-05 0.000186198 0.0020217)
(0.000131002 -0.000133818 0.00150335)
(4.48937e-05 0.000347588 0.00188808)
(0.000147978 6.7846e-05 0.00186767)
(4.67016e-05 0.000242225 0.00177292)
(7.00698e-05 8.50603e-05 0.00151767)
(-2.68291e-05 -0.000178533 0.00176324)
(-4.48667e-05 4.99747e-05 0.00176229)
(-0.000134025 0.000144576 0.00180959)
(0.000458215 -9.66633e-05 0.001978)
(0.000212057 -7.36395e-05 0.00189206)
(-0.000134743 0.000135066 0.00193358)
(0.000163735 0.000105615 0.00179392)
(0.00013296 3.73178e-05 0.00178519)
(3.50037e-05 -4.54907e-05 0.00168046)
(5.66564e-05 0.000228979 0.00185249)
(0.000152945 0.00031265 0.0019104)
(5.32974e-06 0.000167719 0.00133326)
(-0.000122996 8.02545e-06 0.00143329)
(4.28723e-05 0.000113745 0.00174282)
(4.60379e-06 0.00026545 0.00176853)
(-7.21435e-05 6.1871e-05 0.0012031)
(-0.000135504 2.08544e-05 0.00162655)
(-0.00030775 4.065e-05 0.00194726)
(-0.000248945 0.000298781 0.00216597)
(0.000436466 -0.000437701 0.00155715)
(0.000810076 -0.000783604 0.00180709)
(-0.00039817 0.000148316 0.00174741)
(0.000193552 0.000366243 0.00129669)
(-0.000166847 0.000189331 0.00179143)
(-0.000284472 0.000251808 0.00154471)
(-0.000379828 0.000406331 0.00170624)
(0.00389034 -0.000839392 -0.00495081)
(-0.000435847 -2.65298e-05 0.00121868)
(-0.000312672 3.95505e-05 0.00151367)
(-0.000469815 0.000225062 0.00157256)
(-0.000439665 0.000176915 0.00181322)
(-0.000233812 -7.55804e-05 0.00134799)
(-0.000402907 -1.09174e-05 0.00163885)
(-0.000777058 -1.92289e-06 0.00181596)
(-0.00110246 2.3775e-05 0.00183478)
(0 0 0)
(0 0 0)
(0 0 0)
(0 0 0)
(0 0 0)
(0 0 0)
(0 0 0)
(0 0 0)
(0 0 0)
(0 0 0)
(0 0 0)
(0 0 0)
(0 0 0)
(0 0 0)
(0 0 0)
(0 0 0)
(0 0 0)
(0 0 0)
(0 0 0)
(0 0 0)
(0 0 0)
(0 0 0)
(0 0 0)
(0 0 0)
(0 0 0)
(0 0 0)
(0 0 0)
(0 0 0)
(0 0 0)
(0 0 0)
(0 0 0)
(0 0 0)
(0 0 0)
(0 0 0)
(0 0 0)
(0 0 0)
(0 0 0)
(0 0 0)
(0 0 0)
(0 0 0)
(0 0 0)
(0 0 0)
(0 0 0)
(0 0 0)
(0 0 0)
(0 0 0)
(0 0 0)
(0 0 0)
(0 0 0)
(0 0 0)
(0 0 0)
(0 0 0)
(0 0 0)
(0 0 0)
(0 0 0)
(0 0 0)
(0 0 0)
(0 0 0)
(0 0 0)
(0 0 0)
(0 0 0)
(0 0 0)
(0 0 0)
(0 0 0)
(0 0 0)
(0 0 0)
(0 0 0)
(0 0 0)
(0 0 0)
(0 0 0)
(0 0 0)
(0 0 0)
(0 0 0)
(0 0 0)
(0 0 0)
(0 0 0)
(0 0 0)
(0 0 0)
(0 0 0)
(0 0 0)
(0 0 0)
(0 0 0)
(0 0 0)
(0 0 0)
(0 0 0)
(0 0 0)
(0 0 0)
(0 0 0)
(0 0 0)
(0 0 0)
(0 0 0)
(0 0 0)
(0 0 0)
(0 0 0)
(0 0 0)
(0 0 0)
(0 0 0)
(0 0 0)
(0 0 0)
(0 0 0)
(0 0 0)
(0 0 0)
(0 0 0)
(0 0 0)
(0 0 0)
(0 0 0)
(0 0 0)
(0 0 0)
(0 0 0)
(0 0 0)
(0 0 0)
(0 0 0)
(0 0 0)
(0 0 0)
(0 0 0)
(0 0 0)
(0 0 0)
(0 0 0)
(0 0 0)
(0 0 0)
(0 0 0)
(0 0 0)
(0 0 0)
(0 0 0)
(0 0 0)
(0 0 0)
(0 0 0)
(0 0 0)
(0 0 0)
(0 0 0)
(0 0 0)
(0 0 0)
(0 0 0)
(0 0 0)
(0 0 0)
(0 0 0)
(0 0 0)
(0 0 0)
(0 0 0)
(0 0 0)
(0 0 0)
(0 0 0)
(0 0 0)
(0 0 0)
(0 0 0)
(0 0 0)
(0 0 0)
(0 0 0)
(0 0 0)
(0 0 0)
(0 0 0)
(0 0 0)
(0 0 0)
(0 0 0)
(0 0 0)
(0 0 0)
(0 0 0)
(0 0 0)
(0 0 0)
(0 0 0)
(0 0 0)
(0 0 0)
(0 0 0)
(0 0 0)
(0 0 0)
(0 0 0)
(0 0 0)
(0 0 0)
(0 0 0)
(0 0 0)
(0 0 0)
(0 0 0)
(0 0 0)
(0 0 0)
(0 0 0)
(0 0 0)
(0 0 0)
(0 0 0)
(0 0 0)
(0 0 0)
(0 0 0)
(0 0 0)
(0 0 0)
(0 0 0)
(0 0 0)
(0 0 0)
(0 0 0)
(0 0 0)
(0 0 0)
(0 0 0)
(0 0 0)
(0 0 0)
(0 0 0)
(0 0 0)
(0 0 0)
(0 0 0)
(0 0 0)
(0 0 0)
(0 0 0)
(0 0 0)
(0 0 0)
(0 0 0)
(0 0 0)
(0 0 0)
(0 0 0)
(0 0 0)
(0 0 0)
(0 0 0)
(0 0 0)
(0 0 0)
(0 0 0)
(0 0 0)
(0 0 0)
(0 0 0)
(0 0 0)
(0 0 0)
(0 0 0)
(0 0 0)
(0 0 0)
(0 0 0)
(0 0 0)
(0 0 0)
(0 0 0)
(0 0 0)
(0 0 0)
(0 0 0)
(0 0 0)
(0 0 0)
(0 0 0)
(0 0 0)
(0 0 0)
(0 0 0)
(0 0 0)
(0 0 0)
(0 0 0)
(0 0 0)
(0 0 0)
(0 0 0)
(0 0 0)
(0 0 0)
(0 0 0)
(0 0 0)
(0 0 0)
(0 0 0)
(0 0 0)
(0 0 0)
(0 0 0)
(0 0 0)
(0 0 0)
(0 0 0)
(0 0 0)
(0 0 0)
(0 0 0)
(0 0 0)
(0 0 0)
(0 0 0)
(0 0 0)
(0 0 0)
(0 0 0)
(0 0 0)
(0 0 0)
(0 0 0)
(0 0 0)
(0 0 0)
(0 0 0)
(0 0 0)
(0 0 0)
(0 0 0)
(0 0 0)
(0 0 0)
(0 0 0)
(0 0 0)
(-0.000535734 0.000270174 -9.40998e-05)
(-0.000875665 1.27696e-05 0.00019465)
(-0.000263989 -7.23153e-05 0.000229975)
(-0.00025904 -0.000131409 0.000316211)
(-0.000446629 0.000449482 -0.000169706)
(-0.000374912 -2.56986e-05 -0.000812513)
(-0.000925008 -3.7063e-05 -0.000487725)
(-0.000343813 -0.00124918 0.000240845)
(-0.000302469 0.000221651 -0.000127299)
(-0.000203172 -2.2704e-05 -0.000368936)
(7.36504e-05 -0.000869675 -0.000615793)
(-0.000594674 -0.000665066 -0.000111848)
(0.000116552 -0.000173072 -7.82663e-05)
(0.000138764 0.00027775 -2.32088e-05)
(-0.000167672 8.46658e-05 5.50924e-05)
(6.17612e-06 8.95467e-05 -0.000396937)
(-0.00044553 -9.26909e-05 0.00281737)
(-0.00053358 -0.000271456 0.00257695)
(0.000403578 -0.000775817 0.00361843)
(-0.000139272 -0.000842321 0.0030704)
(-7.64592e-05 0.000191218 0.00220057)
(2.77702e-06 0.000312607 0.00281183)
(0.000774145 -0.000870042 0.0023933)
(0.000137787 -0.00101952 0.00198594)
(0.000341116 -0.000250088 0.00318336)
(-0.000166962 0.000223687 0.00176383)
(-0.000281159 -0.000546923 0.00122961)
(0.000122569 -0.00114828 0.00194254)
(0.000361128 0.000447184 0.00136552)
(0.000103526 -0.000148302 0.000820119)
(-0.000522059 1.4819e-05 0.00103386)
(-0.00104487 -0.000323362 0.00233618)
(-0.000461601 0.000213589 0.00173579)
(-3.04221e-05 -0.000422449 0.00355684)
(-0.00045223 -7.29217e-05 0.00267718)
(0.000405826 -0.000398202 0.00232268)
(-3.25738e-05 0.000932563 0.00487574)
(-0.00075635 0.000129423 0.00203918)
(4.0247e-05 -0.000369075 0.00238729)
(0.000450002 -0.000469374 0.00310521)
(0.00052363 3.54472e-05 0.00243395)
(0.000179556 0.000303982 0.00158931)
(0.000189732 -0.000184462 0.00186474)
(-0.000128114 -0.000530967 0.0018729)
(0.000664297 0.00064432 0.00148267)
(0.000361502 0.000250001 0.000984352)
(9.5314e-08 -4.04827e-05 0.001616)
(-0.000133504 -0.000961418 0.00235935)
(-0.000246229 0.000616582 0.00176683)
(-9.7934e-06 -0.000266501 0.00226727)
(-0.000611956 -0.00043712 0.00234894)
(6.30887e-05 -0.000372216 0.00196331)
(-0.000111906 0.000696927 0.00246502)
(0.00043588 -0.000454131 0.00202471)
(0.000508018 0.000317312 0.00222835)
(0.000472416 -0.00035203 0.00176997)
(-6.68843e-05 0.000585563 0.001702)
(1.01587e-05 4.05937e-05 0.00238798)
(0.000156271 -0.000113899 0.00174377)
(0.000299888 -0.000477911 0.00159471)
(0.000131099 -0.000331653 0.00126338)
(0.000363166 7.73792e-05 0.00100837)
(0.000534702 -0.00040582 0.00216492)
(0.000514282 -0.000100758 0.00160372)
(0.000132583 -0.00012901 0.00217879)
(2.39484e-06 3.57662e-05 0.00160608)
(-2.48995e-05 0.000395041 0.00178072)
(0.000495983 0.000174687 0.00176763)
(0.000159759 1.9462e-05 0.00116086)
(0.000178721 0.000119921 0.00108833)
(0.000106148 0.000580292 0.00183689)
(0.000363223 -3.46803e-05 0.00145812)
(-0.00011772 0.000425586 0.00154812)
(1.51249e-05 0.000328143 0.00116456)
(0.000292861 0.000204212 0.00151596)
(0.000169905 -0.000180051 0.00129795)
(9.95074e-05 -4.28263e-05 0.00142605)
(0.000298428 6.10829e-05 0.000792422)
(0.000307837 0.000252565 0.00135288)
(0.000287423 0.000123165 0.00140686)
(0.000381616 -0.000329163 0.000931849)
(0.000304307 -5.73373e-05 0.00111272)
(0.000422199 -0.000118293 0.00127713)
(0.000580922 -0.00038985 0.0015357)
(0.00013601 -0.000229726 0.000467547)
(0.000155149 -0.000179378 0.000847675)
(0.000391943 2.29185e-05 0.00100739)
(0.00081231 -0.000135497 0.00125342)
(0.00012237 -0.000374401 0.000179467)
(5.18515e-07 -7.30633e-05 0.000735671)
(0.000174612 -8.36905e-06 0.000914984)
(5.60458e-05 4.51861e-05 0.00120747)
(0.000223117 0.000403388 7.09679e-05)
(9.72411e-05 -0.000150844 0.000801761)
(-6.76539e-05 0.000153883 0.0010679)
(-0.000135215 0.00024542 0.00130441)
(0.000419203 -0.00182768 0.00108655)
(7.09515e-06 -0.000289725 0.000980529)
(0.00021533 -4.12262e-05 0.00145283)
(0.000363264 -0.000750714 0.00124285)
(-3.64146e-05 -0.000262633 0.000421119)
(1.07976e-05 -0.000355696 0.000636104)
(-4.00909e-05 -0.000219139 0.00106682)
(-0.000746369 0.000258522 1.78505e-05)
(-0.000152979 0.000106861 -0.000200283)
(4.98499e-05 -0.000224628 0.000681932)
(-0.000168159 -9.41851e-05 0.00100841)
(-0.000312586 0.000211546 0.00118943)
(-0.000763191 0.000512938 -0.00030553)
(-0.000818677 0.000848641 0.00037263)
(-0.00055288 2.75854e-05 0.000662267)
(-0.00037072 -0.000168707 0.00129216)
(0 0 0)
(0 0 0)
(0 0 0)
(0 0 0)
(0 0 0)
(0 0 0)
(0 0 0)
(0 0 0)
(0 0 0)
(0 0 0)
(0 0 0)
(0 0 0)
(0 0 0)
(0 0 0)
(0 0 0)
(0 0 0)
(0 0 0)
(0 0 0)
(0 0 0)
(0 0 0)
(0 0 0)
(0 0 0)
(0 0 0)
(0 0 0)
(0 0 0)
(0 0 0)
(0 0 0)
(0 0 0)
(0 0 0)
(0 0 0)
(0 0 0)
(0 0 0)
(0 0 0)
(0 0 0)
(0 0 0)
(0 0 0)
(0 0 0)
(0 0 0)
(0 0 0)
(0 0 0)
(0 0 0)
(0 0 0)
(0 0 0)
(0 0 0)
(0 0 0)
(0 0 0)
(0 0 0)
(0 0 0)
(0 0 0)
(0 0 0)
(0 0 0)
(0 0 0)
(0 0 0)
(0 0 0)
(0 0 0)
(0 0 0)
(0 0 0)
(0 0 0)
(0 0 0)
(0 0 0)
(0 0 0)
(0 0 0)
(0 0 0)
(0 0 0)
(0 0 0)
(0 0 0)
(0 0 0)
(0 0 0)
(0 0 0)
(0 0 0)
(0 0 0)
(0 0 0)
(0 0 0)
(0 0 0)
(0 0 0)
(0 0 0)
(0 0 0)
(0 0 0)
(0 0 0)
(0 0 0)
(0 0 0)
(0 0 0)
(0 0 0)
(0 0 0)
(0 0 0)
(0 0 0)
(0 0 0)
(0 0 0)
(0 0 0)
(0 0 0)
(0 0 0)
(0 0 0)
(0 0 0)
(0 0 0)
(0 0 0)
(0 0 0)
(0 0 0)
(0 0 0)
(0 0 0)
(0 0 0)
(0 0 0)
(0 0 0)
(0 0 0)
(0 0 0)
(0 0 0)
(0 0 0)
(0 0 0)
(0 0 0)
(0 0 0)
(0 0 0)
(0 0 0)
(0 0 0)
(0 0 0)
(0 0 0)
(0 0 0)
(0 0 0)
(0 0 0)
(0 0 0)
(0 0 0)
(0 0 0)
(0 0 0)
(0 0 0)
(0 0 0)
(0 0 0)
(0 0 0)
(0 0 0)
(0 0 0)
(0 0 0)
(0 0 0)
(0 0 0)
(0 0 0)
(0 0 0)
(0 0 0)
(0 0 0)
(0 0 0)
(0 0 0)
(0 0 0)
(0 0 0)
(0 0 0)
(0 0 0)
(0 0 0)
(0 0 0)
(0 0 0)
(0 0 0)
(0 0 0)
(0 0 0)
(0 0 0)
(0 0 0)
(0 0 0)
(0 0 0)
(0 0 0)
(0 0 0)
(0 0 0)
(0 0 0)
(0 0 0)
(0 0 0)
(0 0 0)
(0 0 0)
(0 0 0)
(0 0 0)
(0 0 0)
(0 0 0)
(0 0 0)
(0 0 0)
(0 0 0)
(0 0 0)
(0 0 0)
(0 0 0)
(0 0 0)
(0 0 0)
(0 0 0)
(0 0 0)
(0 0 0)
(0 0 0)
(0 0 0)
(0 0 0)
(0 0 0)
(0 0 0)
(0 0 0)
(0 0 0)
(0 0 0)
(0 0 0)
(0 0 0)
(0 0 0)
(0 0 0)
(0 0 0)
(0 0 0)
(0 0 0)
(0 0 0)
(0 0 0)
(0 0 0)
(0 0 0)
(0 0 0)
(0 0 0)
(0 0 0)
(0 0 0)
(0 0 0)
(0 0 0)
(0 0 0)
(0 0 0)
(0 0 0)
(0 0 0)
(0 0 0)
(0 0 0)
(0 0 0)
(0 0 0)
(0 0 0)
(0 0 0)
(0 0 0)
(0 0 0)
(0 0 0)
(0 0 0)
(0 0 0)
(0 0 0)
(0 0 0)
(0 0 0)
(0 0 0)
(0 0 0)
(0 0 0)
(0 0 0)
(0 0 0)
(0 0 0)
(0 0 0)
(0 0 0)
(0 0 0)
(0 0 0)
(0 0 0)
(0 0 0)
(0 0 0)
(0 0 0)
(0 0 0)
(0 0 0)
(0 0 0)
(0 0 0)
(0 0 0)
(0 0 0)
(0 0 0)
(0 0 0)
(0 0 0)
(0 0 0)
(0 0 0)
(0 0 0)
(0 0 0)
(0 0 0)
(0 0 0)
(0 0 0)
(0 0 0)
(0 0 0)
(0 0 0)
(0 0 0)
(0 0 0)
(0 0 0)
(0 0 0)
(0 0 0)
(0 0 0)
(0 0 0)
(0 0 0)
(0 0 0)
(0 0 0)
(0 0 0)
(0 0 0)
(0 0 0)
(0 0 0)
(0 0 0)
(0 0 0)
(0 0 0)
(0 0 0)
(0 0 0)
(0 0 0)
(0 0 0)
(0 0 0)
(0 0 0)
(-0.00051476 -0.000330865 0.000114842)
(-0.000596061 -0.000157108 -0.000155117)
(-0.00039064 0.000242327 -0.000106189)
(7.97018e-05 0.000124246 -0.00031555)
(-0.000540203 0.000320213 -1.72144e-05)
(-0.00111528 -0.00021795 5.96865e-05)
(-0.000693219 0.000329648 -0.00038304)
(-2.97581e-05 0.000524844 1.82393e-05)
(-0.00105357 -0.000146271 -0.000208434)
(-0.000925244 -0.000648236 -0.000332884)
(-0.000367903 0.000237101 3.05458e-05)
(-0.000196638 -0.000287099 -0.000647082)
(4.04147e-05 1.37676e-05 -6.4218e-06)
(3.17077e-05 -0.000241755 -0.000491462)
(8.34616e-05 5.23521e-05 -0.000320309)
(3.85949e-05 0.000107363 8.00127e-05)
(-0.00074523 0.000211933 0.00442718)
(-0.000588115 1.68947e-05 0.00151144)
(-0.000149658 0.000388801 0.00345007)
(-6.38495e-05 -0.000124826 0.00433233)
(-0.000608501 -8.80107e-06 0.00304299)
(-0.0010793 0.000368748 0.00143293)
(-0.000417644 8.32303e-05 0.00264232)
(0.000117406 -0.000375155 0.00365656)
(-5.42582e-05 -0.000993716 0.00476062)
(-0.000390453 -0.000917586 0.00126279)
(-0.000177921 -0.00134985 0.00322387)
(-3.60043e-05 -0.000825526 0.00189514)
(-0.000218614 -0.00176431 0.00366696)
(-0.000370531 -0.00150353 0.00199212)
(-0.000221049 -0.000751786 0.00295795)
(0.000424123 -0.000476028 0.00262124)
(-0.00012786 -7.85392e-05 0.00279817)
(-0.00109097 0.000597664 0.00440387)
(-0.000614956 0.000508274 0.00288338)
(0.000182153 -0.00015568 0.0035694)
(0.000519566 -1.53989e-05 0.00405995)
(-0.000726023 0.00101713 0.00196638)
(-0.000433264 0.000171899 0.00236839)
(5.69093e-05 0.000207911 0.00308631)
(0.000235343 -0.000249677 0.00368698)
(0.000661218 0.000222384 0.00204238)
(-0.000128642 0.000521173 0.00163916)
(0.00104019 0.000162544 0.0029309)
(0.000412643 -0.00119854 0.00398841)
(0.00037192 -0.000168063 0.00265785)
(-1.53355e-05 0.000740701 0.00168233)
(-8.85182e-06 0.000738901 0.00261362)
(3.93598e-05 -1.66916e-05 0.00102202)
(0.00012503 0.000447324 0.00199951)
(-9.5899e-05 0.00028139 0.00275789)
(-9.80014e-05 6.27969e-05 0.00171736)
(0.000282088 -0.000465182 0.00248344)
(0.000103807 0.000215053 0.00154905)
(0.000263617 0.000305174 0.00110717)
(9.49291e-05 0.000187082 0.00192631)
(-0.000255812 -0.000373977 0.00354322)
(6.24579e-05 -0.000286705 0.00309754)
(0.000301306 0.000425339 0.00136807)
(0.000271672 0.000731218 0.00216004)
(-0.00018615 -0.000490215 0.00307237)
(0.000431193 -0.000407997 0.00219038)
(-8.44777e-05 -0.000565741 0.0026362)
(-0.000301587 0.000869649 0.00240873)
(-1.19008e-05 0.000160032 0.000770759)
(0.000906716 -0.00045705 0.00105946)
(-0.000290618 8.90319e-05 0.00131996)
(-0.000422453 0.000239171 0.00086555)
(-8.78963e-05 0.000452115 0.00286098)
(0.000268376 -0.000197465 0.00107459)
(0.000295616 0.000125581 0.000994802)
(-0.000260497 0.000124477 0.00148585)
(0.000113307 0.000388427 0.00489576)
(0.00113656 -0.000437456 0.00182317)
(-0.000171031 0.000218247 0.00132964)
(-0.000207018 0.000426208 0.00161294)
(0.000405547 -0.000768952 0.00177737)
(0.000801885 -0.00092817 0.00204701)
(-0.000106018 -8.51786e-05 0.00226874)
(-6.10832e-05 0.000258378 0.00177116)
(0.000238716 -0.000282689 0.000698148)
(-7.93251e-05 -6.2377e-05 0.000399882)
(5.1879e-05 0.000187667 0.000651312)
(-0.000142528 -3.58716e-05 0.000490263)
(-2.11055e-05 -7.08382e-05 0.000886192)
(-2.64107e-05 5.57036e-05 0.000662967)
(-2.42702e-05 0.000317902 0.0008177)
(-6.13427e-05 0.000145914 0.000841258)
(0.000392543 -0.000159856 0.00152774)
(0.000691954 -0.000212849 0.00110341)
(0.000274776 0.000261281 0.00127362)
(-1.66926e-05 -5.4402e-05 0.00138343)
(0.000420816 -0.000261126 0.00156019)
(0.000207452 -5.50833e-05 0.00196252)
(5.20682e-05 0.000106739 0.0018165)
(-3.85314e-05 -0.000106106 0.00174242)
(0.000238217 -0.000407848 0.00090973)
(-0.000244416 1.59701e-06 0.000362303)
(-6.31597e-05 1.73585e-05 0.000328936)
(3.03451e-05 -6.04075e-05 0.000568291)
(-0.000932178 -0.000122811 0.00112987)
(-0.000136553 -7.8858e-05 0.000975637)
(-9.34882e-05 -1.06873e-05 0.000550448)
(-6.87664e-06 -0.000167033 0.000839111)
(-0.000297073 -0.0002244 0.00145469)
(0.000598527 -0.000430682 0.00131754)
(4.97545e-05 -2.12191e-05 0.00119637)
(-0.0001994 -0.00014533 0.00141268)
(0.00125798 -0.000342199 0.0016013)
(0.000441581 -0.000413614 0.00175185)
(-8.40393e-05 -2.94118e-05 0.00151258)
(7.69978e-05 -0.000292142 0.00148104)
(0 0 0)
(0 0 0)
(0 0 0)
(0 0 0)
(0 0 0)
(0 0 0)
(0 0 0)
(0 0 0)
(0 0 0)
(0 0 0)
(0 0 0)
(0 0 0)
(0 0 0)
(0 0 0)
(0 0 0)
(0 0 0)
(0 0 0)
(0 0 0)
(0 0 0)
(0 0 0)
(0 0 0)
(0 0 0)
(0 0 0)
(0 0 0)
(0 0 0)
(0 0 0)
(0 0 0)
(0 0 0)
(0 0 0)
(0 0 0)
(0 0 0)
(0 0 0)
(0 0 0)
(0 0 0)
(0 0 0)
(0 0 0)
(0 0 0)
(0 0 0)
(0 0 0)
(0 0 0)
(0 0 0)
(0 0 0)
(0 0 0)
(0 0 0)
(0 0 0)
(0 0 0)
(0 0 0)
(0 0 0)
(0 0 0)
(0 0 0)
(0 0 0)
(0 0 0)
(0 0 0)
(0 0 0)
(0 0 0)
(0 0 0)
(0 0 0)
(0 0 0)
(0 0 0)
(0 0 0)
(0 0 0)
(0 0 0)
(0 0 0)
(0 0 0)
(0 0 0)
(0 0 0)
(0 0 0)
(0 0 0)
(0 0 0)
(0 0 0)
(0 0 0)
(0 0 0)
(0 0 0)
(0 0 0)
(0 0 0)
(0 0 0)
(0 0 0)
(0 0 0)
(0 0 0)
(0 0 0)
(0 0 0)
(0 0 0)
(0 0 0)
(0 0 0)
(0 0 0)
(0 0 0)
(0 0 0)
(0 0 0)
(0 0 0)
(0 0 0)
(0 0 0)
(0 0 0)
(0 0 0)
(0 0 0)
(0 0 0)
(0 0 0)
(0 0 0)
(0 0 0)
(0 0 0)
(0 0 0)
(0 0 0)
(0 0 0)
(0 0 0)
(0 0 0)
(0 0 0)
(0 0 0)
(0 0 0)
(0 0 0)
(0 0 0)
(0 0 0)
(0 0 0)
(0 0 0)
(0 0 0)
(0 0 0)
(0 0 0)
(0 0 0)
(0 0 0)
(0 0 0)
(0 0 0)
(0 0 0)
(0 0 0)
(0 0 0)
(0 0 0)
(0 0 0)
(0 0 0)
(0 0 0)
(0 0 0)
(0 0 0)
(0 0 0)
(0 0 0)
(0 0 0)
(0 0 0)
(0 0 0)
(0 0 0)
(0 0 0)
(0 0 0)
(0 0 0)
(0 0 0)
(0 0 0)
(0 0 0)
(0 0 0)
(0 0 0)
(0 0 0)
(0 0 0)
(0 0 0)
(0 0 0)
(0 0 0)
(0 0 0)
(0 0 0)
(0 0 0)
(0 0 0)
(0 0 0)
(0 0 0)
(0 0 0)
(0 0 0)
(0 0 0)
(0 0 0)
(0 0 0)
(0 0 0)
(0 0 0)
(0 0 0)
(0 0 0)
(0 0 0)
(0 0 0)
(0 0 0)
(0 0 0)
(0 0 0)
(0 0 0)
(0 0 0)
(0 0 0)
(0 0 0)
(0 0 0)
(0 0 0)
(0 0 0)
(0 0 0)
(0 0 0)
(0 0 0)
(0 0 0)
(0 0 0)
(0 0 0)
(0 0 0)
(0 0 0)
(0 0 0)
(0 0 0)
(0 0 0)
(0 0 0)
(0 0 0)
(0 0 0)
(0 0 0)
(0 0 0)
(0 0 0)
(0 0 0)
(0 0 0)
(0 0 0)
(0 0 0)
(0 0 0)
(0 0 0)
(0 0 0)
(0 0 0)
(0 0 0)
(0 0 0)
(0 0 0)
(0 0 0)
(0 0 0)
(0 0 0)
(0 0 0)
(0 0 0)
(0 0 0)
(0 0 0)
(0 0 0)
(0 0 0)
(0 0 0)
(0 0 0)
(0 0 0)
(0 0 0)
(0 0 0)
(0 0 0)
(0 0 0)
(0 0 0)
(0 0 0)
(0 0 0)
(0 0 0)
(0 0 0)
(0 0 0)
(0 0 0)
(0 0 0)
(0 0 0)
(0 0 0)
(0 0 0)
(0 0 0)
(0 0 0)
(0 0 0)
(0 0 0)
(0 0 0)
(0 0 0)
(0 0 0)
(0 0 0)
(0 0 0)
(0 0 0)
(0 0 0)
(0 0 0)
(0 0 0)
(0 0 0)
(0 0 0)
(0 0 0)
(0 0 0)
(0 0 0)
(0 0 0)
(0 0 0)
(0 0 0)
(0 0 0)
(0 0 0)
(0 0 0)
(0 0 0)
(0 0 0)
(0 0 0)
(0 0 0)
(0 0 0)
(0 0 0)
(0 0 0)
(0 0 0)
(0 0 0)
(0 0 0)
(0 0 0)
(0 0 0)
(0 0 0)
(0 0 0)
(0 0 0)
(0 0 0)
(0 0 0)
(0 0 0)
(0 0 0)
)
;

boundaryField
{
    inlet
    {
        type            zeroGradient;
    }
    outlet
    {
        type            zeroGradient;
    }
    wall
    {
        type            zeroGradient;
    }
    procBoundary0to1
    {
        type            processor;
        value           nonuniform List<vector> 
192
(
(-0.000236239 -1.33362e-05 -0.000195369)
(-0.00016806 2.78113e-05 -0.000137304)
(-0.000199779 0.000558096 -0.000268021)
(0.000154902 0.000903142 0.000107917)
(-0.0002778 0.000211986 0.000941053)
(0.000247161 0.000513611 0.00365752)
(-0.000841218 0.00139684 0.00310148)
(0.000382981 0.000557073 0.00368572)
(-0.000324166 -0.000244954 0.00142109)
(0.000339034 0.000569704 0.00216317)
(0.00022106 0.0003389 0.00317918)
(5.03963e-05 -3.73483e-05 0.0024675)
(0.000136629 0.000505032 0.00202573)
(0.000238125 0.000399322 0.00183255)
(0.000103373 -4.70712e-05 0.00180449)
(0.000142553 -0.000284448 0.00185775)
(0.000136726 0.00037458 0.00197615)
(-3.87343e-05 0.000278781 0.00178692)
(3.62097e-05 0.000296959 0.00186215)
(8.60164e-05 0.000208 0.00204121)
(-5.92498e-05 -8.00971e-05 0.00173543)
(0.000100668 0.000295514 0.00189536)
(1.57885e-05 0.000199037 0.00172549)
(-3.55415e-05 0.000352092 0.00183769)
(-0.000695114 0.000279079 0.00115621)
(-0.000104206 0.000367803 0.00177654)
(-1.6219e-05 0.000240807 0.00179316)
(-0.000230176 0.000104615 0.0018641)
(0 0 0)
(0 0 0)
(0 0 0)
(0 0 0)
(0 0 0)
(0 0 0)
(0 0 0)
(0 0 0)
(0 0 0)
(0 0 0)
(0 0 0)
(0 0 0)
(0 0 0)
(0 0 0)
(0 0 0)
(0 0 0)
(0 0 0)
(0 0 0)
(0 0 0)
(0 0 0)
(0 0 0)
(0 0 0)
(0 0 0)
(0 0 0)
(0 0 0)
(0 0 0)
(0 0 0)
(0 0 0)
(0 0 0)
(0 0 0)
(0 0 0)
(0 0 0)
(0 0 0)
(0 0 0)
(0 0 0)
(0 0 0)
(0 0 0)
(0 0 0)
(0 0 0)
(0 0 0)
(0 0 0)
(0 0 0)
(0 0 0)
(0 0 0)
(0 0 0)
(0 0 0)
(0 0 0)
(0 0 0)
(0 0 0)
(0 0 0)
(0 0 0)
(0 0 0)
(0 0 0)
(0 0 0)
(0 0 0)
(0 0 0)
(0 0 0)
(0 0 0)
(0 0 0)
(0 0 0)
(0 0 0)
(0 0 0)
(0 0 0)
(0 0 0)
(0 0 0)
(0 0 0)
(0 0 0)
(0 0 0)
(-0.000167053 -0.000273542 -0.000211471)
(0.000206799 -0.000507538 0.000160391)
(8.74689e-06 -0.00056812 -0.000651886)
(0.000128371 -0.000106146 -0.000200754)
(-0.00136106 -0.000664189 0.00309591)
(-0.000472171 -0.00113896 0.00193173)
(-0.000217896 -0.00101841 0.00225569)
(-0.000498718 -0.000318512 0.00207168)
(-0.000184166 -0.00034756 0.00280699)
(0.000515295 -2.03748e-05 0.00359677)
(-0.00042193 0.000398116 0.00436408)
(-0.00111516 -0.000330607 0.00320143)
(0.000445261 -9.53222e-05 0.0016736)
(8.45597e-05 0.000286027 0.00240165)
(0.000337394 0.000746484 0.00263051)
(9.14948e-06 0.000535609 0.00191342)
(-9.36941e-05 5.23414e-05 0.00105133)
(2.30783e-05 -1.27601e-05 0.00148995)
(-0.000124728 6.2614e-05 0.00193188)
(6.22486e-05 0.000426354 0.00156549)
(-7.65221e-05 -3.02373e-06 0.0004989)
(-9.07909e-06 -8.4066e-05 0.00115449)
(0.000129214 0.00014136 0.0014298)
(1.43604e-05 -0.00014423 0.00170332)
(-0.000184717 -0.000390084 0.000407592)
(6.10616e-05 -0.000174394 0.000933742)
(0.000320898 -0.000132807 0.00133298)
(-0.000233076 2.19334e-05 0.00170855)
(0 0 0)
(0 0 0)
(0 0 0)
(0 0 0)
(0 0 0)
(0 0 0)
(0 0 0)
(0 0 0)
(0 0 0)
(0 0 0)
(0 0 0)
(0 0 0)
(0 0 0)
(0 0 0)
(0 0 0)
(0 0 0)
(0 0 0)
(0 0 0)
(0 0 0)
(0 0 0)
(0 0 0)
(0 0 0)
(0 0 0)
(0 0 0)
(0 0 0)
(0 0 0)
(0 0 0)
(0 0 0)
(0 0 0)
(0 0 0)
(0 0 0)
(0 0 0)
(0 0 0)
(0 0 0)
(0 0 0)
(0 0 0)
(0 0 0)
(0 0 0)
(0 0 0)
(0 0 0)
(0 0 0)
(0 0 0)
(0 0 0)
(0 0 0)
(0 0 0)
(0 0 0)
(0 0 0)
(0 0 0)
(0 0 0)
(0 0 0)
(0 0 0)
(0 0 0)
(0 0 0)
(0 0 0)
(0 0 0)
(0 0 0)
(0 0 0)
(0 0 0)
(0 0 0)
(0 0 0)
(0 0 0)
(0 0 0)
(0 0 0)
(0 0 0)
(0 0 0)
(0 0 0)
(0 0 0)
(0 0 0)
)
;
    }
    procBoundary0to2
    {
        type            processor;
        value           nonuniform List<vector> 
192
(
(-0.000519631 -0.000374959 -0.000540164)
(5.90267e-05 -0.000336847 9.14133e-05)
(2.02523e-05 5.48179e-05 -1.96642e-05)
(1.50629e-05 0.000326008 -0.00036997)
(5.021e-05 -0.000445964 0.00358064)
(0.000322633 0.000259383 0.00261219)
(0.000109358 0.000212497 0.00298372)
(-0.000770648 0.000281651 0.00311122)
(0.000422087 -0.000278053 0.00201334)
(0.000225636 -0.000513889 0.00274368)
(-0.000313841 -2.47177e-05 0.00277325)
(-8.45225e-05 0.000773757 0.00271648)
(-9.02111e-05 4.02408e-05 0.00135591)
(0.000253217 -0.000272359 0.00180603)
(-0.000206017 0.000313495 0.00197176)
(8.54041e-05 0.000687326 0.00226061)
(8.49527e-05 5.92227e-05 0.00160202)
(5.97327e-07 7.10702e-05 0.00176948)
(2.53845e-05 -6.10232e-05 0.0018495)
(-7.57594e-05 -0.000638847 0.00220198)
(-0.000103684 -0.000142531 0.00168864)
(-0.000208659 5.57756e-05 0.0018016)
(-0.000273051 -2.05935e-05 0.00192827)
(-0.000267241 9.62974e-06 0.00204741)
(-0.000342522 -7.79699e-05 0.00154532)
(-0.000352338 6.21393e-05 0.00172656)
(-0.000314536 -3.243e-05 0.00183565)
(-0.000373613 -7.09934e-05 0.0020074)
(0 0 0)
(0 0 0)
(0 0 0)
(0 0 0)
(0 0 0)
(0 0 0)
(0 0 0)
(0 0 0)
(0 0 0)
(0 0 0)
(0 0 0)
(0 0 0)
(0 0 0)
(0 0 0)
(0 0 0)
(0 0 0)
(0 0 0)
(0 0 0)
(0 0 0)
(0 0 0)
(0 0 0)
(0 0 0)
(0 0 0)
(0 0 0)
(0 0 0)
(0 0 0)
(0 0 0)
(0 0 0)
(0 0 0)
(0 0 0)
(0 0 0)
(0 0 0)
(0 0 0)
(0 0 0)
(0 0 0)
(0 0 0)
(0 0 0)
(0 0 0)
(0 0 0)
(0 0 0)
(0 0 0)
(0 0 0)
(0 0 0)
(0 0 0)
(0 0 0)
(0 0 0)
(0 0 0)
(0 0 0)
(0 0 0)
(0 0 0)
(0 0 0)
(0 0 0)
(0 0 0)
(0 0 0)
(0 0 0)
(0 0 0)
(0 0 0)
(0 0 0)
(0 0 0)
(0 0 0)
(0 0 0)
(0 0 0)
(0 0 0)
(0 0 0)
(0 0 0)
(0 0 0)
(0 0 0)
(0 0 0)
(0.000106526 0.000174271 0.000101177)
(5.89154e-05 0.00055744 0.000158306)
(-0.000740601 0.000267173 0.000243874)
(-0.000892047 0.000525776 -0.000480676)
(-0.000237191 -0.000483451 0.00155494)
(-0.000909441 -0.000146404 0.00223045)
(-0.000332718 -0.000501182 0.00230862)
(-0.000507716 -0.000157268 0.00160829)
(0.000152315 0.00200319 0.00435161)
(-0.000131863 0.000126258 0.00198767)
(9.98004e-05 -0.000460821 0.00224016)
(0.00075863 -0.000283598 0.00190532)
(0.000120433 -0.000926917 0.002544)
(0.000850011 -0.000283139 0.00204737)
(0.000943287 6.69358e-05 0.001315)
(0.000223291 -0.000219812 0.00127002)
(4.06542e-05 -0.000101351 0.00133032)
(0.000304373 -0.000393397 0.00145706)
(1.57787e-05 -0.00018145 0.00148365)
(0.000282741 -9.96478e-05 0.00152554)
(0.000296905 -0.000143424 0.000667698)
(5.09979e-05 0.00018438 0.000957624)
(-0.000135673 0.000263089 0.00156017)
(-7.11048e-05 7.76861e-05 0.00168385)
(0.000104695 0.000509919 4.12288e-05)
(-0.000227478 0.000197692 0.000815092)
(-0.000408512 0.000171726 0.00126935)
(-0.000246025 -0.000236554 0.0015633)
(0 0 0)
(0 0 0)
(0 0 0)
(0 0 0)
(0 0 0)
(0 0 0)
(0 0 0)
(0 0 0)
(0 0 0)
(0 0 0)
(0 0 0)
(0 0 0)
(0 0 0)
(0 0 0)
(0 0 0)
(0 0 0)
(0 0 0)
(0 0 0)
(0 0 0)
(0 0 0)
(0 0 0)
(0 0 0)
(0 0 0)
(0 0 0)
(0 0 0)
(0 0 0)
(0 0 0)
(0 0 0)
(0 0 0)
(0 0 0)
(0 0 0)
(0 0 0)
(0 0 0)
(0 0 0)
(0 0 0)
(0 0 0)
(0 0 0)
(0 0 0)
(0 0 0)
(0 0 0)
(0 0 0)
(0 0 0)
(0 0 0)
(0 0 0)
(0 0 0)
(0 0 0)
(0 0 0)
(0 0 0)
(0 0 0)
(0 0 0)
(0 0 0)
(0 0 0)
(0 0 0)
(0 0 0)
(0 0 0)
(0 0 0)
(0 0 0)
(0 0 0)
(0 0 0)
(0 0 0)
(0 0 0)
(0 0 0)
(0 0 0)
(0 0 0)
(0 0 0)
(0 0 0)
(0 0 0)
(0 0 0)
)
;
    }
}


// ************************************************************************* //
