/*--------------------------------*- C++ -*----------------------------------*\
| =========                 |                                                 |
| \\      /  F ield         | OpenFOAM: The Open Source CFD Toolbox           |
|  \\    /   O peration     | Version:  2506                                  |
|   \\  /    A nd           | Website:  www.openfoam.com                      |
|    \\/     M anipulation  |                                                 |
\*---------------------------------------------------------------------------*/
FoamFile
{
    version     2.0;
    format      ascii;
    arch        "LSB;label=32;scalar=64";
    class       volScalarField;
    location    "0.08";
    object      Ksl;
}
// * * * * * * * * * * * * * * * * * * * * * * * * * * * * * * * * * * * * * //

dimensions      [1 -3 -1 0 0 0 0];

internalField   nonuniform List<scalar> 
4608
(
145496
185181
200581
206903
141032
108691
187396
184050
182525
142216
142682
187452
111539
208045
143899
220147
152431
248828
220753
202696
166730
143363
247580
127910
173740
75540.3
194551
102731
138683
221205
261175
296564
132180
275979
330271
153371
229686
156511
90850
231780
183615
227046
149959
206625
120602
278574
222646
163347
135755
155107
190863
314910
128461
181308
210899
163191
223965
270911
196781
144883
254871
207477
157606
127265
236939
141596
259848
167484
432457
133220
249645
200936
181693
201591
172628
201121
242147
193798
203773
220302
210871
145118
237531
271822
218127
269594
175530
209986
162055
188812
220550
163635
249656
294296
141328
146306
233094
243819
145846
159269
168864
125151
203172
297426
228049
213479
186937
187703
231828
177306
167545
180864
283038
154112
170956
165177
246910
218834
142438
249660
175131
187351
129462
230328
152260
110782
177722
230501
199195
175914
227821
287750
210841
196489
207457
236674
264695
213034
252259
286264
211966
187309
257240
259378
284286
147890
273367
155608
298542
219637
274761
224570
195087
364318
323577
172186
203036
346591
213661
282956
556699
157621
242561
266872
295137
346651
201342
147793
215071
252205
236509
453320
182648
265609
199427
306287
233635
253865
404283
398481
277876
240537
314012
214854
233312
154442
200215
325244
217191
164823
317285
238616
135036
205132
228995
137848
290538
281085
364557
239724
247125
241071
224496
325792
263775
183666
213231
209145
165655
273173
289633
233412
263516
251566
311421
262064
240131
259977
318144
420945
207447
179951
176027
319211
167767
207977
192350
175201
221613
246894
283289
163403
163610
304824
266362
418076
201137
248355
358803
264837
300176
283579
205983
164677
371988
213141
218355
273355
180287
284193
292259
557763
141982
214496
189700
203091
232203
232661
259397
248702
244699
280037
205033
224269
225768
241886
134144
121445
408507
277920
228334
225129
261811
242491
374442
288912
160199
247632
199954
241360
230283
263544
320392
262786
348266
140538
351897
142814
309036
275645
122918
281525
157469
660548
178569
290329
295412
322946
172804
278193
181721
338851
199178
247372
143727
256007
219277
222327
255949
194343
388882
219372
256265
315952
318937
208835
257543
260430
163863
222341
207251
258521
248204
219526
206263
244308
259407
257031
142544
290095
210670
245031
189386
316468
227633
245103
174813
354406
234833
179548
277610
148530
254876
293708
405898
180859
204412
148011
323959
234139
314773
174188
176153
276809
247558
229447
229609
146767
218589
330597
193265
296581
335019
340110
197808
227320
189117
171816
138481
299624
169889
220172
255946
251922
244574
193492
208698
252945
294475
500851
126321
196925
288840
307234
46715.7
55397.6
52091.2
60167
55966.4
66069.1
96787.1
57360.3
88822.5
43857.7
121897
92561.5
146289
167737
128134
65031.7
55571.4
79253.8
90336.3
103724
109249
85549.1
178668
102644
32228.6
48443.9
68683.3
79117
239575
99236
164313
47694.1
56456.2
45065.3
62966.4
86236.5
53793.5
103180
76563.1
36192.3
90860.4
62421.8
79716.6
91680.9
84541
99156.5
53202.7
33158.2
15058
45243.7
90704.7
66643.5
56902.7
41087.8
54924.4
39694.2
53681.3
49439.5
119148
50274.8
62325.1
34800.2
29745.5
53616.3
0
0
0
0
0
0
0
0
0
0
0
0
0
0
0
0
0
0
0
0
0
0
571.185
0
0
0
0
0
0
36384.2
520.998
0
0
0
0
0
0
0
0
0
0
0
0
0
0
0
0
0
0
0
0
0
0
0
0
0
0
0
0
0
0
0
0
0
0
0
0
0
0
0
0
0
0
0
0
0
0
0
0
0
0
0
0
0
0
0
0
0
0
0
0
0
0
0
0
0
0
0
0
0
0
0
0
0
0
0
0
0
0
0
0
0
0
0
0
0
0
0
0
0
0
0
0
0
0
0
0
0
0
0
0
0
0
0
0
0
0
0
0
0
0
0
0
0
0
0
0
0
0
0
0
0
0
0
0
0
0
0
0
0
0
0
0
0
0
0
0
0
0
0
0
0
0
0
0
0
0
0
0
0
0
0
0
0
0
0
0
0
0
0
0
0
0
0
0
0
0
0
0
0
0
0
0
0
0
0
0
0
0
0
0
0
0
0
0
0
0
0
0
0
0
0
0
0
0
0
0
0
0
0
0
0
0
0
0
0
0
0
0
0
0
0
0
0
0
0
0
0
0
0
0
0
0
0
0
0
0
0
0
0
0
0
0
0
0
0
0
0
0
0
0
0
0
0
0
0
0
0
0
0
0
0
0
0
0
0
0
0
0
0
0
0
0
0
0
0
0
0
0
0
0
0
0
0
0
0
0
0
0
0
0
0
0
0
0
0
0
0
0
0
0
0
0
0
0
0
0
0
0
0
0
0
0
0
0
0
0
0
0
0
0
0
0
0
0
0
0
0
0
0
0
0
0
0
0
0
0
0
0
0
0
0
0
0
0
0
0
0
0
0
0
0
0
0
0
0
0
0
0
0
0
0
0
0
0
0
0
0
0
0
0
0
0
0
0
0
0
0
0
0
0
0
0
0
0
0
0
0
0
0
0
0
0
0
0
0
0
0
0
0
0
0
0
0
0
0
0
0
0
0
0
0
0
0
0
0
0
0
0
0
0
0
0
0
0
0
0
0
0
0
0
0
0
0
0
0
0
0
0
0
0
0
0
0
0
0
0
0
0
0
0
0
0
0
0
0
0
0
0
0
0
0
0
0
0
0
0
0
0
0
0
0
0
0
0
0
0
0
0
0
0
0
0
0
0
0
0
0
0
0
0
0
0
0
0
0
0
0
0
0
0
0
0
0
0
0
0
0
0
0
0
0
0
0
0
0
0
0
0
0
0
0
0
0
0
0
0
0
0
0
0
0
0
0
0
0
0
0
0
0
0
0
0
0
0
0
0
0
0
0
0
0
0
0
0
0
0
0
0
0
0
0
0
0
0
0
0
0
0
0
0
0
0
0
0
0
0
0
0
0
0
0
0
0
0
0
0
0
0
0
0
0
0
0
0
0
0
0
0
0
0
0
0
0
0
0
0
0
0
0
0
0
0
0
0
0
0
0
0
0
0
0
0
0
0
0
0
0
0
0
0
0
0
0
0
0
0
0
0
0
0
0
0
0
0
0
0
0
0
0
0
0
0
0
0
0
0
0
0
0
0
0
0
0
0
0
0
0
0
0
0
0
0
0
0
0
0
0
0
0
0
0
0
0
0
0
0
0
0
0
0
0
0
0
0
0
0
0
0
0
0
0
0
0
0
0
0
0
0
0
0
0
0
0
0
0
0
0
0
0
0
0
0
0
0
0
0
0
0
0
0
0
0
0
0
0
0
0
0
0
0
0
0
0
0
0
0
0
0
0
0
0
0
0
0
0
0
0
0
0
0
0
0
0
0
0
0
0
0
0
0
0
0
0
0
0
0
0
0
0
0
0
0
0
0
0
0
0
0
0
0
0
0
0
0
0
0
0
0
0
0
0
0
0
0
0
0
0
0
0
0
0
0
0
0
0
0
0
0
0
0
0
0
0
0
0
0
0
0
0
0
0
0
0
0
0
0
0
0
0
0
0
0
0
0
0
0
0
0
0
0
0
0
0
0
0
0
0
0
0
0
0
0
0
0
0
0
0
0
0
0
0
0
0
0
0
0
0
0
0
0
0
0
0
0
0
0
0
0
0
0
0
0
0
0
0
0
0
0
0
0
0
0
0
0
0
0
0
0
0
0
0
0
0
0
0
0
0
0
0
0
0
0
0
0
0
0
0
0
0
0
0
0
0
0
0
0
0
0
0
0
0
0
0
0
0
0
0
0
0
0
0
0
0
0
0
0
0
0
0
0
0
0
0
0
0
0
0
0
0
0
0
0
0
0
0
0
0
0
0
0
0
0
0
0
0
0
0
0
0
0
0
0
0
0
0
0
0
0
0
0
0
0
0
0
0
0
0
0
0
0
0
0
0
0
0
0
0
0
0
0
0
0
0
0
0
0
0
0
0
0
0
0
0
0
0
0
0
0
0
0
0
0
0
0
0
0
0
0
0
0
0
0
0
0
0
0
0
0
0
0
0
0
0
0
0
0
0
181788
207224
201555
137329
160480
152690
199617
229948
261972
147693
138494
202547
181694
246607
185796
202239
148587
155288
157556
216759
189857
227560
148328
209262
193584
166710
204937
142683
221689
198912
148764
214116
334000
130184
224890
246189
197484
190618
175898
414906
214182
222369
156283
247219
176880
133247
207646
202911
234568
172514
173054
159716
160477
197107
157112
183631
125058
237582
139356
160019
214575
211681
231176
132683
216798
271709
376556
136083
457110
275358
210929
65704.5
339974
312488
201121
176600
331903
265929
302266
336153
168259
185907
195768
322019
295281
154526
230893
365795
244934
290839
182633
279068
209435
212323
199375
177111
156522
278464
140134
229786
237812
283393
233922
333332
345175
212731
281637
226632
349376
165382
263445
283166
272858
333934
170313
110866
309797
237108
176758
250534
307224
177608
318004
160805
231816
253242
150321
153492
236263
175711
176518
403009
160689
258667
144094
336576
247022
171287
243752
331077
208149
285847
226666
254103
311396
219588
285286
246972
189838
168699
224455
178250
213577
343198
243816
153824
245843
199360
204324
121301
83895.9
330138
150050
391884
234169
225059
168426
315736
303052
284174
237354
190932
344699
270168
183598
157674
203169
223427
258556
362262
130006
275737
177125
301969
263187
198912
120966
172959
438283
234304
225132
177674
131360
45633.6
66648
94006.2
26176.8
40388.5
51106.4
108203
79845.5
69797.5
72668.3
66862.1
72209.4
46039.1
29463
35137.4
66440.7
26803.1
55787.2
66947.6
37137.5
75848.6
53547.9
56098.9
55894.4
52072.2
72961.4
123912
50952.5
51031.2
120643
49010.9
0
0
0
0
0
0
0
0
0
0
0
0
0
0
0
0
0
0
0
0
0
0
0
0
0
0
0
0
0
0
0
0
0
0
0
0
0
0
0
0
0
0
0
0
0
0
0
0
0
0
0
0
0
0
0
0
0
0
0
0
0
0
0
0
0
0
0
0
0
0
0
0
0
0
0
0
0
0
0
0
0
0
0
0
0
0
0
0
0
0
0
0
0
0
0
0
0
0
0
0
0
0
0
0
0
0
0
0
0
0
0
0
0
0
0
0
0
0
0
0
0
0
0
0
0
0
0
0
0
0
0
0
0
0
0
0
0
0
0
0
0
0
0
0
0
0
0
0
0
0
0
0
0
0
0
0
0
0
0
0
0
0
0
0
0
0
0
0
0
0
0
0
0
0
0
0
0
0
0
0
0
0
0
0
0
0
0
0
0
0
0
0
0
0
0
0
0
0
0
0
0
0
0
0
0
0
0
0
0
0
0
0
0
0
0
0
0
0
0
0
0
0
0
0
0
0
0
0
0
0
0
0
0
0
0
0
0
0
0
0
0
0
0
0
0
0
0
0
0
0
0
0
0
0
0
0
0
0
0
0
0
0
0
0
0
0
0
0
0
0
0
0
0
0
0
0
0
0
0
0
0
0
0
0
0
0
0
0
0
0
0
0
0
0
0
0
0
0
0
0
0
0
0
0
0
0
0
0
0
0
0
0
0
0
0
0
0
0
0
0
0
0
0
0
0
0
0
0
0
0
0
0
0
0
0
0
0
0
0
0
0
0
0
0
0
0
0
0
0
0
0
0
0
0
0
0
0
0
0
0
0
0
0
0
0
0
0
0
0
0
0
0
0
0
0
0
0
0
0
0
0
0
0
0
0
0
0
0
0
0
0
0
0
0
0
0
0
0
0
0
0
0
0
0
0
0
0
0
0
0
0
0
0
0
0
0
0
0
0
0
0
0
0
0
0
0
0
0
0
0
0
0
0
0
0
0
0
0
0
0
0
0
0
0
0
0
0
0
0
0
0
0
0
0
0
0
0
0
0
0
0
0
0
0
0
0
0
0
0
0
0
0
0
0
0
0
0
0
0
0
0
0
0
0
0
0
0
0
0
0
0
0
0
0
0
0
0
0
0
0
0
0
0
0
0
0
0
0
0
0
0
0
0
0
0
0
0
0
0
0
0
0
0
0
0
0
0
0
0
0
0
0
0
0
0
0
0
0
0
0
0
0
0
0
201883
127045
130518
199505
170222
224494
196788
258485
197394
199918
129516
241661
158220
189890
268238
151550
230051
133567
144880
233452
155841
183554
182726
197490
193661
117788
165832
160685
149705
217115
133521
207219
167383
232125
166704
93835.5
180259
99128
188368
244879
155303
229420
221391
257181
124290
226940
339144
162561
204006
174318
112649
281651
246105
227746
88307.9
266163
108105
168992
242939
150895
91327
214365
116804
136084
173775
304398
270215
280652
227245
244889
232420
191918
222331
186356
243195
305771
323176
184061
182775
189297
157395
253546
205969
258156
176604
157532
221689
297060
175159
174903
244092
230695
293943
227277
256925
184081
254015
200505
146842
362154
179406
177304
223691
156943
275115
179020
213724
359700
267965
438617
222454
211944
203037
119143
194146
306185
172094
306758
210376
328539
282837
206267
224120
207184
177474
205841
240619
290406
210235
190251
186021
218842
260145
144253
449540
179764
184913
284994
214500
290070
145946
223950
229304
320234
189977
186215
203984
207156
275178
225094
251631
273287
278917
228391
243345
361010
157485
446682
136275
565852
66953.6
218480
262269
160866
240885
328202
274738
314146
210469
195895
218774
251842
217180
213213
265665
194636
280575
208420
204930
234326
208674
402018
210516
288033
243032
181765
311895
262118
305315
169351
318761
358884
119377
54910.9
37357.9
31211.4
122230
75094.5
98292.8
54672.3
142498
76562.7
83619.9
74157.8
84835
102985
81029
106948
71657.2
71197.1
62434.1
105170
94348.6
59821.3
43647.3
57338.4
104883
26970.4
53040.4
91365.4
75978.2
114947
35271.8
74172.6
0
0
0
0
0
0
0
0
0
0
0
0
0
0
1760
0
0
0
0
0
0
0
0
0
0
0
0
0
0
0
0
0
0
0
0
0
0
0
0
0
0
0
0
0
0
0
0
0
0
0
0
0
0
0
0
0
0
0
0
0
0
0
0
0
0
0
0
0
0
0
0
0
0
0
0
0
0
0
0
0
0
0
0
0
0
0
0
0
0
0
0
0
0
0
0
0
0
0
0
0
0
0
0
0
0
0
0
0
0
0
0
0
0
0
0
0
0
0
0
0
0
0
0
0
0
0
0
0
0
0
0
0
0
0
0
0
0
0
0
0
0
0
0
0
0
0
0
0
0
0
0
0
0
0
0
0
0
0
0
0
0
0
0
0
0
0
0
0
0
0
0
0
0
0
0
0
0
0
0
0
0
0
0
0
0
0
0
0
0
0
0
0
0
0
0
0
0
0
0
0
0
0
0
0
0
0
0
0
0
0
0
0
0
0
0
0
0
0
0
0
0
0
0
0
0
0
0
0
0
0
0
0
0
0
0
0
0
0
0
0
0
0
0
0
0
0
0
0
0
0
0
0
0
0
0
0
0
0
0
0
0
0
0
0
0
0
0
0
0
0
0
0
0
0
0
0
0
0
0
0
0
0
0
0
0
0
0
0
0
0
0
0
0
0
0
0
0
0
0
0
0
0
0
0
0
0
0
0
0
0
0
0
0
0
0
0
0
0
0
0
0
0
0
0
0
0
0
0
0
0
0
0
0
0
0
0
0
0
0
0
0
0
0
0
0
0
0
0
0
0
0
0
0
0
0
0
0
0
0
0
0
0
0
0
0
0
0
0
0
0
0
0
0
0
0
0
0
0
0
0
0
0
0
0
0
0
0
0
0
0
0
0
0
0
0
0
0
0
0
0
0
0
0
0
0
0
0
0
0
0
0
0
0
0
0
0
0
0
0
0
0
0
0
0
0
0
0
0
0
0
0
0
0
0
0
0
0
0
0
0
0
0
0
0
0
0
0
0
0
0
0
0
0
0
0
0
0
0
0
0
0
0
0
0
0
0
0
0
0
0
0
0
0
0
0
0
0
0
0
0
0
0
0
0
0
0
0
0
0
0
0
0
0
0
0
0
0
0
0
0
0
0
0
0
0
0
0
0
0
0
0
0
0
0
0
0
0
0
0
0
0
0
0
0
0
0
0
0
0
0
0
0
0
0
0
0
0
0
0
0
0
0
0
0
175011
174519
203132
213914
169691
206983
144586
207663
171597
163327
188629
127760
297844
246321
183340
178817
152245
255312
157989
215908
157602
167213
180528
154491
195821
219230
160002
292391
125959
189299
165346
278462
137514
238926
176585
154429
158006
181603
137760
180371
183493
168140
158191
184942
209866
154794
223165
216389
163207
222069
196217
174056
171454
205129
156518
91959.6
285621
199662
131014
213220
205781
199014
251455
246824
244939
191897
221118
245913
197772
240415
204079
168093
246403
243693
190264
208133
176938
184822
317732
268927
173387
197125
309317
283320
217146
172753
174910
290785
213781
448296
233444
199011
331510
344285
210991
251288
180207
233163
214194
256602
197422
209250
216560
130703
209681
160712
274171
179124
301646
264212
228157
275036
203634
289760
307091
206534
219483
176709
297263
208004
352044
195218
185345
210751
299607
199449
228026
202583
187684
203208
219238
216439
208935
235325
159254
223402
320105
276344
149494
371732
200836
305661
168608
241408
195678
201680
242099
430080
132853
158090
191864
384688
193445
288992
295776
309961
232732
238349
368354
263388
211717
269018
253683
212008
208014
163941
260939
195316
325601
212206
203311
260100
178017
311001
237506
209674
117858
369524
278437
265403
248211
331598
283745
277678
332996
167837
147342
283826
159627
193905
200528
199434
35952.9
50099.7
58055.3
57901.1
63496.9
60250.7
49340.1
119229
90121.5
39283
32688.7
37156.8
55783
65108.2
89290.5
88392
77968.3
48447.6
53938.1
54325.1
55722.5
27743.1
39487.8
80790.7
52644.9
23907.1
36851.5
44750.8
41667.7
118289
31871.8
41300.4
0
0
0
0
0
0
0
0
0
0
0
0
0
0
0
0
0
0
0
0
0
0
0
0
0
0
0
0
0
0
0
0
0
0
0
0
0
0
0
0
0
0
0
0
0
0
0
0
0
0
0
0
0
0
0
0
0
0
0
0
0
0
0
0
0
0
0
0
0
0
0
0
0
0
0
0
0
0
0
0
0
0
0
0
0
0
0
0
0
0
0
0
0
0
0
0
0
0
0
0
0
0
0
0
0
0
0
0
0
0
0
0
0
0
0
0
0
0
0
0
0
0
0
0
0
0
0
0
0
0
0
0
0
0
0
0
0
0
0
0
0
0
0
0
0
0
0
0
0
0
0
0
0
0
0
0
0
0
0
0
0
0
0
0
0
0
0
0
0
0
0
0
0
0
0
0
0
0
0
0
0
0
0
0
0
0
0
0
0
0
0
0
0
0
0
0
0
0
0
0
0
0
0
0
0
0
0
0
0
0
0
0
0
0
0
0
0
0
0
0
0
0
0
0
0
0
0
0
0
0
0
0
0
0
0
0
0
0
0
0
0
0
0
0
0
0
0
0
0
0
0
0
0
0
0
0
0
0
0
0
0
0
0
0
0
0
0
0
0
0
0
0
0
0
0
0
0
0
0
0
0
0
0
0
0
0
0
0
0
0
0
0
0
0
0
0
0
0
0
0
0
0
0
0
0
0
0
0
0
0
0
0
0
0
0
0
0
0
0
0
0
0
0
0
0
0
0
0
0
0
0
0
0
0
0
0
0
0
0
0
0
0
0
0
0
0
0
0
0
0
0
0
0
0
0
0
0
0
0
0
0
0
0
0
0
0
0
0
0
0
0
0
0
0
0
0
0
0
0
0
0
0
0
0
0
0
0
0
0
0
0
0
0
0
0
0
0
0
0
0
0
0
0
0
0
0
0
0
0
0
0
0
0
0
0
0
0
0
0
0
0
0
0
0
0
0
0
0
0
0
0
0
0
0
0
0
0
0
0
0
0
0
0
0
0
0
0
0
0
0
0
0
0
0
0
0
0
0
0
0
0
0
0
0
0
0
0
0
0
0
0
0
0
0
0
0
0
0
0
0
0
0
0
0
0
0
0
0
0
0
0
0
0
0
0
0
0
0
0
0
0
0
0
0
0
0
0
0
0
0
0
0
0
0
0
0
0
0
0
0
0
0
0
0
0
0
0
0
0
0
0
0
0
0
0
0
0
0
0
0
0
0
0
0
175055
220553
160902
216594
167292
208380
221044
151044
234124
171320
164331
132228
141287
316451
118098
145838
242298
153240
246138
227839
154002
207884
196727
149446
148117
199000
176401
257648
266343
183568
301341
173551
133296
117770
238862
87995.2
139694
287619
249286
155349
209335
217647
263718
249914
155569
135058
221356
149169
214619
218200
105680
227929
193384
204374
146466
157204
265516
172993
131219
241241
222712
192308
172028
178298
270464
252370
344860
220785
231616
232420
189549
235422
184976
199617
220001
224722
214995
188206
211846
290204
285399
271937
367125
184815
235554
273939
240471
229225
147669
289926
111546
242585
263136
181653
331029
217993
269346
289543
306327
191011
242247
260513
183890
168560
229348
238110
242411
175177
208456
367660
158186
296494
324041
241648
221771
198393
263890
236864
192939
186489
157189
263128
235390
161565
285254
197423
210339
165368
199190
417539
218990
164756
246401
240749
190707
308527
335487
221211
204190
208395
189892
196414
192640
248952
303901
212890
269279
218564
270740
250331
283119
259021
180740
465553
148682
182400
143076
211980
448722
213388
192647
380070
228594
168362
89838.5
229119
165458
187545
205161
280090
238477
188149
319260
314216
342099
296565
134415
205351
178067
170353
200652
253646
140731
184668
139226
291779
205043
316366
314254
302150
259020
158577
77477.9
96390.2
94810.3
78740.1
47707.9
57665.6
100547
136312
28581.8
47936.5
33225.6
170781
98692
30159.1
74347
63604.2
35015
51223.3
65322.1
56381.7
28437.7
66981.2
20876
29183.4
30362.8
70351.9
34063.6
42601.6
19751.5
90713.8
64847.1
50071.8
0
0
0
0
0
0
0
0
0
0
0
17490.1
0
0
0
0
0
0
0
0
0
0
0
0
0
0
0
0
0
0
0
0
0
0
0
0
0
0
0
0
0
0
0
0
0
0
0
0
0
0
0
0
0
0
0
0
0
0
0
0
0
0
0
0
0
0
0
0
0
0
0
0
0
0
0
0
0
0
0
0
0
0
0
0
0
0
0
0
0
0
0
0
0
0
0
0
0
0
0
0
0
0
0
0
0
0
0
0
0
0
0
0
0
0
0
0
0
0
0
0
0
0
0
0
0
0
0
0
0
0
0
0
0
0
0
0
0
0
0
0
0
0
0
0
0
0
0
0
0
0
0
0
0
0
0
0
0
0
0
0
0
0
0
0
0
0
0
0
0
0
0
0
0
0
0
0
0
0
0
0
0
0
0
0
0
0
0
0
0
0
0
0
0
0
0
0
0
0
0
0
0
0
0
0
0
0
0
0
0
0
0
0
0
0
0
0
0
0
0
0
0
0
0
0
0
0
0
0
0
0
0
0
0
0
0
0
0
0
0
0
0
0
0
0
0
0
0
0
0
0
0
0
0
0
0
0
0
0
0
0
0
0
0
0
0
0
0
0
0
0
0
0
0
0
0
0
0
0
0
0
0
0
0
0
0
0
0
0
0
0
0
0
0
0
0
0
0
0
0
0
0
0
0
0
0
0
0
0
0
0
0
0
0
0
0
0
0
0
0
0
0
0
0
0
0
0
0
0
0
0
0
0
0
0
0
0
0
0
0
0
0
0
0
0
0
0
0
0
0
0
0
0
0
0
0
0
0
0
0
0
0
0
0
0
0
0
0
0
0
0
0
0
0
0
0
0
0
0
0
0
0
0
0
0
0
0
0
0
0
0
0
0
0
0
0
0
0
0
0
0
0
0
0
0
0
0
0
0
0
0
0
0
0
0
0
0
0
0
0
0
0
0
0
0
0
0
0
0
0
0
0
0
0
0
0
0
0
0
0
0
0
0
0
0
0
0
0
0
0
0
0
0
0
0
0
0
0
0
0
0
0
0
0
0
0
0
0
0
0
0
0
0
0
0
0
0
0
0
0
0
0
0
0
0
0
0
0
0
0
0
0
0
0
0
0
0
0
0
0
0
0
0
0
0
0
0
0
0
0
0
0
0
0
0
0
0
0
0
0
0
0
0
0
0
0
0
0
0
0
0
0
0
0
0
0
0
0
0
0
0
0
0
0
0
)
;

boundaryField
{
    inlet
    {
        type            zeroGradient;
    }
    outlet
    {
        type            zeroGradient;
    }
    wall
    {
        type            zeroGradient;
    }
}


// ************************************************************************* //
