/*--------------------------------*- C++ -*----------------------------------*\
| =========                 |                                                 |
| \\      /  F ield         | OpenFOAM: The Open Source CFD Toolbox           |
|  \\    /   O peration     | Version:  2506                                  |
|   \\  /    A nd           | Website:  www.openfoam.com                      |
|    \\/     M anipulation  |                                                 |
\*---------------------------------------------------------------------------*/
FoamFile
{
    version     2.0;
    format      ascii;
    arch        "LSB;label=32;scalar=64";
    class       volVectorField;
    location    "0.08";
    object      Us;
}
// * * * * * * * * * * * * * * * * * * * * * * * * * * * * * * * * * * * * * //

dimensions      [0 1 -1 0 0 0 0];

internalField   nonuniform List<vector> 
4608
(
(-0.000269465 -0.000383545 0.000259664)
(-0.000215505 -3.73083e-06 0.000363332)
(-7.58653e-05 -0.000172012 0.0005319)
(-0.000489309 -0.000174119 -6.95417e-05)
(0.000159403 0.000162116 0.000345689)
(0.000197089 0.000244031 0.000836055)
(4.34226e-05 -0.000105301 0.00059483)
(0.00122107 0.000741081 -0.000366692)
(-8.93542e-05 -0.000189441 0.000249272)
(0.000372839 -0.000652858 3.14804e-05)
(-7.80641e-05 4.59815e-05 0.000512062)
(-0.000122692 0.000102213 0.000210313)
(9.00505e-05 -0.000166481 3.56805e-06)
(-7.12917e-05 -0.000140095 -2.12252e-05)
(-0.000195616 -0.000642335 -0.00033115)
(-0.000158623 0.000230774 -0.00082571)
(-0.000299996 -0.000583076 0.000540189)
(-0.000146413 9.53498e-05 0.000365121)
(4.06746e-05 -6.0752e-05 4.07155e-05)
(-9.286e-06 4.61301e-05 0.00021518)
(-0.000111219 0.000191164 2.20262e-05)
(0.000780593 -8.67399e-05 -0.000424094)
(0.000964914 0.00101471 -0.000446981)
(-0.000218048 0.000972878 -0.000192922)
(-0.000109549 3.69333e-05 -1.81805e-05)
(-0.000238613 -0.000100373 -2.32372e-05)
(-4.93643e-05 0.000385307 0.000313276)
(-0.000255039 0.000450828 -5.31742e-05)
(-0.000289934 0.000212872 -5.90765e-05)
(0.000517197 0.000626435 -0.00079589)
(0.00116655 0.00165195 -8.79633e-05)
(0.00110803 0.00070795 0.000135973)
(-0.00019416 8.53337e-05 -0.000227709)
(0.000439839 -0.000863136 -0.000231272)
(0.00046688 0.000278399 -0.000164586)
(-0.000105664 0.000307318 -0.000262319)
(0.00042298 0.000722958 -7.32314e-07)
(0.000278245 7.56276e-06 -0.000102801)
(-0.000913562 0.00119615 0.000104749)
(-0.000507622 -5.95273e-06 -0.000180417)
(9.34686e-05 0.000397582 9.53839e-05)
(0.000987229 0.000283032 -0.00115791)
(-0.000510086 2.38152e-05 -6.46749e-05)
(-0.00028519 0.00103235 -0.000193784)
(0.000112367 0.000766766 0.000265302)
(0.000150691 8.79034e-05 0.000426566)
(-0.000184878 0.000110874 -0.000333929)
(0.000145188 0.000175124 0.00070822)
(-0.00100182 0.00120399 -0.000467727)
(-0.00073311 0.00176568 -0.00160956)
(-0.0005327 -0.000270849 0.000331798)
(-0.00075097 0.00090829 -0.00112054)
(0.000610837 0.000554469 0.000217596)
(0.00126587 0.000254614 0.000414337)
(0.000442416 -1.77396e-05 0.000219712)
(0.00024209 0.000103841 0.000723679)
(-0.00122811 -0.000255206 -0.00010115)
(-0.00102726 0.000326898 -0.000488252)
(0.000177118 0.000180369 -0.000191327)
(-6.83933e-05 8.45091e-05 -0.000469294)
(0.000780815 -0.000410433 -0.00046911)
(8.97234e-05 -0.000153171 -0.000165879)
(0.000210269 -0.000115857 2.49261e-06)
(-0.000186292 6.86748e-05 0.000588283)
(-0.000272797 -0.00156504 0.00973759)
(0.000758349 -0.00113738 0.0104325)
(-0.000198324 -0.000895489 0.010436)
(-0.00177407 -0.000555059 0.0103392)
(-0.000537207 0.000143474 0.0083537)
(0.00116746 -2.136e-05 0.0106451)
(9.69025e-05 -0.00024455 0.00930747)
(0.00059324 0.00015148 0.00726079)
(-0.000396177 -0.00165324 0.0110373)
(-0.0004241 -0.000247039 0.0105258)
(0.000797018 0.000270154 0.00895335)
(0.000767436 0.000990778 0.0105233)
(0.000758559 0.000502943 0.0102471)
(0.00123078 0.00115998 0.0110325)
(0.000594367 0.000163431 0.0104019)
(0.000738368 0.00013014 0.00968157)
(-0.000535631 -0.000709683 0.0115807)
(-0.000313601 -0.000454554 0.0106857)
(0.00050845 -0.000449136 0.00935306)
(0.000669891 -0.000137783 0.00973874)
(-0.00054719 0.000576626 0.0104355)
(0.00116362 0.000483578 0.0105782)
(0.00170906 0.000396748 0.00983574)
(0.00154557 0.000887238 0.010206)
(-0.00052267 -0.000651007 0.0103937)
(-0.000267152 -0.000538169 0.0107332)
(0.000957634 0.000510899 0.0101503)
(0.000623931 -0.000505279 0.00984105)
(0.000523864 0.000743643 0.010357)
(0.00176143 0.000407992 0.0100639)
(0.00228958 8.71311e-05 0.0111095)
(-0.000347508 0.00151896 0.0110458)
(0.000494054 0.000566192 0.00991327)
(0.00110245 0.0014999 0.00863719)
(0.000525622 -1.01197e-05 0.0102901)
(0.000298134 -0.000835835 0.0101966)
(0.00087862 0.000333108 0.010086)
(0.00119568 -0.000365215 0.0104673)
(0.0028753 -0.000596871 0.00930302)
(0.000648265 -0.000431757 0.00967603)
(-0.000241631 0.0016202 0.0101726)
(0.000513394 0.000280601 0.00926065)
(-7.35561e-05 -0.000201689 0.0111817)
(0.00102521 0.00029828 0.0106022)
(0.00113754 -0.000649718 0.0107966)
(0.00153184 -0.000716712 0.0118722)
(0.00175474 -0.000203956 0.010795)
(0.00113343 0.000241405 0.0125278)
(-6.67475e-05 0.00181589 0.0088668)
(-0.000246398 0.00138584 0.0109034)
(-9.12399e-05 0.000662562 0.0106323)
(-0.000686138 0.00060186 0.0110834)
(0.00101059 0.000229299 0.0102988)
(0.00130369 -0.000174114 0.0100394)
(0.00174645 -0.000263406 0.0117464)
(0.000550597 0.00199727 0.0107092)
(0.000150635 0.000970238 0.0100484)
(4.26458e-06 0.00135547 0.0103808)
(7.79367e-05 0.00118669 0.0103002)
(0.000692517 0.00174468 0.00859312)
(0.00170778 0.000677649 0.0115828)
(0.000936589 0.000350908 0.0102862)
(0.000418066 0.000172848 0.0105851)
(0.000943364 0.00173587 0.00957373)
(0.00075852 -0.00048575 0.0100835)
(0.000611188 -2.65832e-05 0.0107081)
(0.000589826 0.000838485 0.0105433)
(0.000993958 0.000555522 0.00998826)
(0.000326088 0.000583817 0.0100295)
(0.000691769 0.000785855 0.00989379)
(0.000495382 0.00022374 0.0108321)
(6.21564e-05 0.00136902 0.0102618)
(0.000382187 -0.000192112 0.0105519)
(-0.000312525 -0.00021929 0.0111769)
(0.000902016 0.000438982 0.0107072)
(0.000932344 0.000807241 0.0104905)
(0.000777929 0.00107332 0.0105863)
(0.000686215 0.000940372 0.0102658)
(0.000329987 0.000685873 0.010952)
(0.000575666 0.00127875 0.0111103)
(0.000936835 -0.000183361 0.0103448)
(0.000811751 0.000180743 0.0106114)
(0.000509638 -0.000200251 0.0107626)
(0.00100934 0.000201626 0.0107779)
(0.000327707 0.000921606 0.0109221)
(0.000938441 0.000851156 0.0106233)
(0.000552004 0.000574628 0.0105296)
(0.00106912 0.000799356 0.0111959)
(0.000992682 -0.000281264 0.00979609)
(0.00112089 -6.39573e-05 0.0106211)
(0.000683661 -4.30034e-05 0.0104401)
(0.000434511 0.000503772 0.0104876)
(0.000537359 0.000562751 0.0104786)
(0.000755444 -1.14628e-06 0.0104599)
(-0.00030049 0.000313347 0.0113306)
(0.000141737 0.000778687 0.0119248)
(0.00128338 -0.000240144 0.00949425)
(0.00091951 -0.000784699 0.010669)
(-0.000269128 -0.000534072 0.0113369)
(5.04637e-05 -7.99103e-05 0.0107486)
(0.00023629 0.000114549 0.0108703)
(4.47876e-05 -0.000427683 0.0113634)
(0.00128984 -0.000132955 0.0114545)
(0.000230603 4.5389e-05 0.0115973)
(0.000905394 -0.000487603 0.009428)
(0.000596965 -0.000322753 0.00978463)
(0.000811063 -0.000140739 0.010609)
(0.000986142 0.000136956 0.010336)
(0.000892254 8.67465e-05 0.0108136)
(-8.94415e-05 -7.50602e-05 0.011406)
(0.000520887 -0.000138984 0.0112524)
(0.000294059 0.000407864 0.0107843)
(0.000822416 -0.000651421 0.00957185)
(0.00067723 -0.000211337 0.010415)
(0.000777417 -0.000158301 0.0100636)
(0.000956323 -4.92131e-05 0.00996964)
(0.000545013 4.41792e-05 0.0105089)
(0.000412395 -0.000117063 0.0105442)
(0.000540271 0.000550708 0.0112115)
(0.000126095 0.000953365 0.0102568)
(0.000644906 -0.000829527 0.0101783)
(0.000609148 -0.00025236 0.0107512)
(0.000771644 2.91223e-05 0.0106036)
(0.000793123 -6.95172e-05 0.0101518)
(0.000914034 0.00017033 0.0105884)
(0.000417875 -3.17026e-05 0.0107959)
(0.000166611 0.000396046 0.0112406)
(0.000166852 0.00080658 0.0105832)
(-0.000698111 -0.000153912 0.0109021)
(0.000734829 0.000369974 0.0105284)
(0.000789179 0.000446281 0.0107721)
(0.00152216 0.000189029 0.0108717)
(0.000362092 0.000730334 0.0103562)
(0.000443199 0.00106839 0.0100211)
(0.000458957 0.000954567 0.0103176)
(-0.000342295 0.000497281 0.0099188)
(0.00102863 0.000609623 0.0103977)
(0.000686142 0.000353843 0.0106276)
(0.000596622 0.000382499 0.0104825)
(0.000830112 0.000370002 0.0104)
(0.000288233 0.000518665 0.0107139)
(0.000159019 0.000497329 0.0105855)
(0.000249196 0.00133235 0.0109636)
(0.000307458 0.000647079 0.0107021)
(0.000413264 5.97051e-05 0.011374)
(0.0010111 0.000283152 0.0103633)
(0.000741263 0.000123499 0.0103907)
(0.000718669 9.66311e-05 0.0108424)
(0.000568372 0.00044169 0.0110652)
(0.000501764 0.000299179 0.0111621)
(0.000539217 0.000723882 0.0111827)
(0.000655691 0.000774692 0.0115497)
(0.00143402 0.00024592 0.0101331)
(0.000875057 0.000157181 0.0106202)
(0.00105275 0.000171158 0.0108142)
(0.000378711 8.9544e-07 0.0112783)
(0.000374165 3.8502e-05 0.0111865)
(0.000269115 0.000429099 0.0115751)
(-1.28389e-05 0.000381581 0.0114507)
(9.17718e-05 0.00075251 0.0120917)
(0.00100825 0.000201979 0.0100734)
(0.000938315 5.5592e-05 0.0104524)
(0.000682524 -0.000361462 0.0107283)
(0.000182373 -9.16474e-05 0.0109779)
(3.5708e-05 0.000194143 0.0111468)
(8.22837e-05 0.000521953 0.0113521)
(-1.09124e-05 0.000682662 0.0115193)
(-0.000297457 0.000542209 0.0116091)
(0.000888878 -0.000441852 0.00989606)
(0.000724842 -0.00036303 0.010336)
(0.000366101 -0.000332954 0.0107366)
(0.000390136 0.00016319 0.0114432)
(-0.000149372 7.74064e-05 0.0110723)
(9.3882e-05 1.10963e-05 0.0110735)
(-8.0719e-05 0.000442113 0.0111648)
(-0.000549401 4.37503e-05 0.012415)
(0.00100092 -0.000842324 0.0101065)
(0.00047094 -0.000641068 0.0103099)
(0.000313995 -0.000611392 0.0100347)
(0.000205818 -0.000108592 0.01089)
(0.000128295 -0.000230427 0.0106782)
(6.69464e-05 -0.000192546 0.0108188)
(-0.000128199 -0.000148371 0.0112254)
(0.000130542 0.000246952 0.0110297)
(0.00026727 -4.40691e-05 0.0105682)
(0.000142536 -0.000703021 0.010481)
(0.000539811 -0.000726094 0.0101596)
(0.000374358 -0.000538586 0.0103361)
(0.000266562 -0.000313891 0.0103655)
(0.000110402 -0.000446709 0.0106806)
(7.71922e-05 -0.000505681 0.0113348)
(0.000252374 -0.000276098 0.0104589)
(0.000504111 4.94926e-05 0.0099115)
(0.000172129 -0.000113812 0.010513)
(0.000482284 -2.65809e-05 0.0109316)
(0.000422986 0.000467076 0.0106241)
(0.000320229 0.00040334 0.0107243)
(0.000191188 0.000475342 0.0106728)
(0.000259073 0.00113538 0.010614)
(-0.000229574 0.00102169 0.0102646)
(0.000680914 0.000250876 0.0101261)
(0.000414108 0.000199796 0.0105346)
(0.000371681 0.000235835 0.01086)
(0.000285077 0.000237256 0.0107458)
(0.000369491 8.28355e-05 0.0110063)
(-5.0704e-06 0.000341686 0.0110148)
(-0.00025864 0.00119133 0.0104167)
(-0.000151196 0.000521855 0.0102126)
(0.000450349 3.36459e-06 0.010233)
(0.000447882 0.0001403 0.0106038)
(0.000299647 0.000156643 0.0108183)
(0.000217275 0.000173286 0.0108969)
(0.000137533 0.000269573 0.011147)
(2.35583e-05 0.000108811 0.0113797)
(0.000202293 0.000457104 0.0112883)
(0.000355678 0.000428831 0.0116903)
(0.000703597 -0.000135291 0.0101792)
(0.000938342 0.000228685 0.0110795)
(0.000331111 6.69812e-05 0.0107954)
(4.31021e-05 8.49936e-05 0.0111327)
(-4.84897e-05 0.000199575 0.0112153)
(-0.000134018 0.000336868 0.0112856)
(-0.0002553 0.000487794 0.0114963)
(-0.000367351 0.000626465 0.0119464)
(0.000874088 7.72406e-06 0.0102862)
(0.000519877 -5.16918e-05 0.0108306)
(0.000282173 -9.13696e-06 0.0109436)
(-5.76542e-05 2.93747e-05 0.0111611)
(-0.000154522 0.000284677 0.0112814)
(-0.000169828 0.000300981 0.0114207)
(-0.000169181 0.000371352 0.0117074)
(-0.00031131 0.000400057 0.0119161)
(0.000660313 -0.000388801 0.0106647)
(0.000101514 -0.000495931 0.011756)
(4.22176e-06 -0.000251109 0.0112309)
(-0.00015207 0.00027319 0.0116016)
(-0.000124699 0.000194195 0.0113231)
(-0.000298298 0.000300154 0.0116155)
(-0.000155353 0.000152799 0.0114328)
(-0.000242396 0.000176501 0.0115413)
(0.000601949 -0.00090965 0.0103737)
(0.000370155 -0.000710671 0.0109734)
(6.56547e-05 -0.00031875 0.0110382)
(-7.03591e-05 0.0001357 0.0113094)
(-0.000213559 -0.000180727 0.0111264)
(-0.000141805 0.00014289 0.0118317)
(-0.000589354 -0.000414724 0.0115247)
(-0.000384439 0.000112337 0.011863)
(0.00074472 -0.000603353 0.0101121)
(0.000797048 -0.00111297 0.0101356)
(0.000389637 -0.000933445 0.0106146)
(0.000266549 -0.000831538 0.0109035)
(0.000110818 -0.000598468 0.0109067)
(0.000161839 -0.000761911 0.0111758)
(-0.000265082 -0.00111174 0.0113675)
(2.70433e-05 -0.000262551 0.0109278)
(0.000425552 -0.000355964 0.010089)
(0.000273082 5.92465e-05 0.0103535)
(0.000488189 0.000286176 0.0106385)
(0.000524903 7.02877e-06 0.0108914)
(0.000167507 -0.000516463 0.0105447)
(-1.72015e-05 -0.000667222 0.0105136)
(2.45532e-06 -1.47634e-05 0.0103186)
(6.04796e-05 0.000763232 0.0100132)
(0.000591892 -2.28766e-05 0.0103079)
(0.000381078 -0.000129867 0.0105957)
(0.000260928 0.000259421 0.010824)
(6.17666e-05 0.000210757 0.0109502)
(-1.32798e-05 8.62447e-05 0.0109954)
(9.20721e-05 -0.000268557 0.0109456)
(-0.00020872 0.000335395 0.0101586)
(-0.000300701 0.000652666 0.0107605)
(0.00021332 -1.59773e-05 0.0100892)
(0.00012881 5.02639e-05 0.0106528)
(0.000157897 0.000185286 0.0108916)
(2.51743e-05 0.000280723 0.0109739)
(0.000100775 0.000268254 0.0108091)
(0.00011867 0.00010342 0.0112757)
(0.000123826 0.000371702 0.0114181)
(9.89149e-05 0.000717991 0.0117187)
(0.000197364 -0.000110277 0.0101789)
(6.16238e-05 5.84197e-06 0.0106924)
(-1.182e-05 2.97235e-05 0.0108594)
(2.85984e-05 0.000194429 0.0110063)
(-0.000102632 0.00011946 0.0110921)
(-7.76383e-05 6.30079e-06 0.011383)
(-0.000143751 0.00035638 0.0114598)
(-0.000195435 0.000458393 0.0117782)
(0.00036978 -0.00027484 0.010469)
(0.000302286 -0.000181294 0.0110105)
(-5.85544e-05 2.72379e-05 0.0108973)
(-7.87031e-05 6.88359e-05 0.0111337)
(-9.85024e-05 0.000184585 0.0113024)
(-0.000182766 -0.000101975 0.0114108)
(-0.000342193 0.000240644 0.0116922)
(-0.000250257 0.000326996 0.0117471)
(0.0001525 -0.00043092 0.0105157)
(-0.000158502 -0.000173951 0.0113745)
(-1.35187e-05 -8.57961e-06 0.0112992)
(-4.30502e-05 -9.34567e-05 0.0114942)
(-0.000278607 4.5184e-05 0.0114317)
(-0.000189426 -4.12778e-05 0.0116011)
(-0.000370509 0.000214007 0.0115983)
(-0.000346882 0.000175451 0.0117625)
(-0.000112963 -0.000672314 0.0106423)
(-9.90917e-05 -0.000388655 0.0111926)
(6.53439e-05 -0.000316605 0.0114856)
(5.13609e-06 -0.000286499 0.0115143)
(-8.44894e-05 -0.000492664 0.0115565)
(-0.000313318 7.16688e-05 0.0115206)
(-7.32189e-05 0.000150115 0.0116097)
(-1.0649e-05 7.83505e-06 0.0112825)
(0.000295572 -0.00101101 0.00978309)
(0.000411304 -0.00142812 0.00989327)
(0.000331235 -0.000502614 0.010566)
(4.91479e-05 -0.000475672 0.0112912)
(-0.000412612 -0.00100834 0.0116007)
(2.2806e-05 -0.000549697 0.0116733)
(-0.000543122 -0.00089692 0.0119004)
(-0.000125268 -3.56324e-05 0.0110637)
(0.000299408 -0.000496217 0.00983933)
(0.00033924 -0.000881349 0.00999986)
(0.000604946 -6.69454e-05 0.0104645)
(0.000794419 -0.000253292 0.0104262)
(0.000483698 -2.42032e-05 0.0105633)
(0.000859544 -8.16494e-05 0.0105717)
(-0.000660802 -0.000589406 0.010317)
(-0.00199762 0.000633145 0.00881147)
(-0.000156839 1.36008e-06 0.0101503)
(-5.29324e-05 -0.000189158 0.0106819)
(-0.000124305 -9.97726e-05 0.010718)
(0.000326673 0.00013634 0.0106633)
(3.93363e-05 0.000507889 0.0110754)
(0.000107259 0.000222369 0.0107009)
(1.93236e-05 5.14077e-05 0.0107143)
(-0.000335121 -4.70153e-05 0.0108466)
(-0.000135653 -0.000173125 0.0101189)
(-0.000162186 -0.000177748 0.0106224)
(-0.00021542 -9.40046e-05 0.0109458)
(3.23702e-05 6.37741e-05 0.0109439)
(-6.56596e-05 0.00035217 0.0107517)
(-2.69751e-05 2.99358e-06 0.0112519)
(5.01158e-05 0.000294076 0.01131)
(-0.000454043 0.000705529 0.0115035)
(-5.30912e-05 -0.000153225 0.0102825)
(-0.000153912 -1.65713e-05 0.0106883)
(3.54993e-05 -7.0658e-07 0.0112731)
(-0.000100731 -4.01107e-05 0.0110775)
(-0.000224332 -6.66831e-05 0.0111054)
(-0.000275404 -0.000154404 0.0114803)
(-0.000416884 0.000282426 0.0115826)
(-0.00076309 0.000711167 0.0120793)
(-0.000316635 0.000132334 0.0102874)
(2.14161e-06 0.000290528 0.0106523)
(-0.000227746 -6.69451e-05 0.0108129)
(-0.000288522 4.88913e-06 0.0113405)
(-0.0001126 -8.69025e-05 0.0112844)
(-0.000264303 -0.000203713 0.0112781)
(-0.000538233 0.000146148 0.0116276)
(-0.000410179 0.000755735 0.0112198)
(-0.000732049 -0.000221339 0.0101916)
(-0.000103173 -0.000104894 0.0110385)
(-6.82817e-05 4.63818e-05 0.0112548)
(-0.000661452 -0.000184904 0.0114467)
(-0.000406661 0.000302789 0.0114978)
(-3.54072e-05 0.000109152 0.0113482)
(-0.000222306 0.000188348 0.0113919)
(-0.00024082 0.00023485 0.0114272)
(-0.00110962 -0.000618807 0.0103868)
(-0.000259518 -0.000242624 0.011312)
(-9.36773e-05 0.000287638 0.0115647)
(-4.12128e-05 1.72219e-05 0.0116037)
(-0.000204946 -0.000463366 0.0119364)
(6.04718e-05 -0.000185429 0.0119064)
(8.668e-05 0.00092806 0.0120738)
(0.000253409 0.000232816 0.011515)
(-0.000718409 -0.000839637 0.00996496)
(0.000783599 -0.000184943 0.0102224)
(-0.000469214 0.000248415 0.010473)
(2.50997e-05 0.000223606 0.0107912)
(-0.000404755 -0.000508279 0.0120652)
(-0.000166409 8.41242e-05 0.0118689)
(0.000393404 -0.000305631 0.0123924)
(0.000205882 -1.24672e-06 0.0108575)
(0 0 0)
(0 0 0)
(0 0 0)
(0 0 0)
(0 0 0)
(0 0 0)
(0 0 0)
(0 0 0)
(0 0 0)
(0 0 0)
(0 0 0)
(0 0 0)
(0 0 0)
(0 0 0)
(0 0 0)
(0 0 0)
(0 0 0)
(0 0 0)
(0 0 0)
(0 0 0)
(0 0 0)
(0 0 0)
(-0.000107807 -0.000165101 0.0116204)
(0 0 0)
(0 0 0)
(0 0 0)
(0 0 0)
(0 0 0)
(0 0 0)
(-0.000396901 -8.55682e-05 0.0115007)
(-0.00119924 -0.000257627 0.0116175)
(0 0 0)
(0 0 0)
(0 0 0)
(0 0 0)
(0 0 0)
(0 0 0)
(0 0 0)
(0 0 0)
(0 0 0)
(0 0 0)
(0 0 0)
(0 0 0)
(0 0 0)
(0 0 0)
(0 0 0)
(0 0 0)
(0 0 0)
(0 0 0)
(0 0 0)
(0 0 0)
(0 0 0)
(0 0 0)
(0 0 0)
(0 0 0)
(0 0 0)
(0 0 0)
(0 0 0)
(0 0 0)
(0 0 0)
(0 0 0)
(0 0 0)
(0 0 0)
(0 0 0)
(0 0 0)
(0 0 0)
(0 0 0)
(0 0 0)
(0 0 0)
(0 0 0)
(0 0 0)
(0 0 0)
(0 0 0)
(0 0 0)
(0 0 0)
(0 0 0)
(0 0 0)
(0 0 0)
(0 0 0)
(0 0 0)
(0 0 0)
(0 0 0)
(0 0 0)
(0 0 0)
(0 0 0)
(0 0 0)
(0 0 0)
(0 0 0)
(0 0 0)
(0 0 0)
(0 0 0)
(0 0 0)
(0 0 0)
(0 0 0)
(0 0 0)
(0 0 0)
(0 0 0)
(0 0 0)
(0 0 0)
(0 0 0)
(0 0 0)
(0 0 0)
(0 0 0)
(0 0 0)
(0 0 0)
(0 0 0)
(0 0 0)
(0 0 0)
(0 0 0)
(0 0 0)
(0 0 0)
(0 0 0)
(0 0 0)
(0 0 0)
(0 0 0)
(0 0 0)
(0 0 0)
(0 0 0)
(0 0 0)
(0 0 0)
(0 0 0)
(0 0 0)
(0 0 0)
(0 0 0)
(0 0 0)
(0 0 0)
(0 0 0)
(0 0 0)
(0 0 0)
(0 0 0)
(0 0 0)
(0 0 0)
(0 0 0)
(0 0 0)
(0 0 0)
(0 0 0)
(0 0 0)
(0 0 0)
(0 0 0)
(0 0 0)
(0 0 0)
(0 0 0)
(0 0 0)
(0 0 0)
(0 0 0)
(0 0 0)
(0 0 0)
(0 0 0)
(0 0 0)
(0 0 0)
(0 0 0)
(0 0 0)
(0 0 0)
(0 0 0)
(0 0 0)
(0 0 0)
(0 0 0)
(0 0 0)
(0 0 0)
(0 0 0)
(0 0 0)
(0 0 0)
(0 0 0)
(0 0 0)
(0 0 0)
(0 0 0)
(0 0 0)
(0 0 0)
(0 0 0)
(0 0 0)
(0 0 0)
(0 0 0)
(0 0 0)
(0 0 0)
(0 0 0)
(0 0 0)
(0 0 0)
(0 0 0)
(0 0 0)
(0 0 0)
(0 0 0)
(0 0 0)
(0 0 0)
(0 0 0)
(0 0 0)
(0 0 0)
(0 0 0)
(0 0 0)
(0 0 0)
(0 0 0)
(0 0 0)
(0 0 0)
(0 0 0)
(0 0 0)
(0 0 0)
(0 0 0)
(0 0 0)
(0 0 0)
(0 0 0)
(0 0 0)
(0 0 0)
(0 0 0)
(0 0 0)
(0 0 0)
(0 0 0)
(0 0 0)
(0 0 0)
(0 0 0)
(0 0 0)
(0 0 0)
(0 0 0)
(0 0 0)
(0 0 0)
(0 0 0)
(0 0 0)
(0 0 0)
(0 0 0)
(0 0 0)
(0 0 0)
(0 0 0)
(0 0 0)
(0 0 0)
(0 0 0)
(0 0 0)
(0 0 0)
(0 0 0)
(0 0 0)
(0 0 0)
(0 0 0)
(0 0 0)
(0 0 0)
(0 0 0)
(0 0 0)
(0 0 0)
(0 0 0)
(0 0 0)
(0 0 0)
(0 0 0)
(0 0 0)
(0 0 0)
(0 0 0)
(0 0 0)
(0 0 0)
(0 0 0)
(0 0 0)
(0 0 0)
(0 0 0)
(0 0 0)
(0 0 0)
(0 0 0)
(0 0 0)
(0 0 0)
(0 0 0)
(0 0 0)
(0 0 0)
(0 0 0)
(0 0 0)
(0 0 0)
(0 0 0)
(0 0 0)
(0 0 0)
(0 0 0)
(0 0 0)
(0 0 0)
(0 0 0)
(0 0 0)
(0 0 0)
(0 0 0)
(0 0 0)
(0 0 0)
(0 0 0)
(0 0 0)
(0 0 0)
(0 0 0)
(0 0 0)
(0 0 0)
(0 0 0)
(0 0 0)
(0 0 0)
(0 0 0)
(0 0 0)
(0 0 0)
(0 0 0)
(0 0 0)
(0 0 0)
(0 0 0)
(0 0 0)
(0 0 0)
(0 0 0)
(0 0 0)
(0 0 0)
(0 0 0)
(0 0 0)
(0 0 0)
(0 0 0)
(0 0 0)
(0 0 0)
(0 0 0)
(0 0 0)
(0 0 0)
(0 0 0)
(0 0 0)
(0 0 0)
(0 0 0)
(0 0 0)
(0 0 0)
(0 0 0)
(0 0 0)
(0 0 0)
(0 0 0)
(0 0 0)
(0 0 0)
(0 0 0)
(0 0 0)
(0 0 0)
(0 0 0)
(0 0 0)
(0 0 0)
(0 0 0)
(0 0 0)
(0 0 0)
(0 0 0)
(0 0 0)
(0 0 0)
(0 0 0)
(0 0 0)
(0 0 0)
(0 0 0)
(0 0 0)
(0 0 0)
(0 0 0)
(0 0 0)
(0 0 0)
(0 0 0)
(0 0 0)
(0 0 0)
(0 0 0)
(0 0 0)
(0 0 0)
(0 0 0)
(0 0 0)
(0 0 0)
(0 0 0)
(0 0 0)
(0 0 0)
(0 0 0)
(0 0 0)
(0 0 0)
(0 0 0)
(0 0 0)
(0 0 0)
(0 0 0)
(0 0 0)
(0 0 0)
(0 0 0)
(0 0 0)
(0 0 0)
(0 0 0)
(0 0 0)
(0 0 0)
(0 0 0)
(0 0 0)
(0 0 0)
(0 0 0)
(0 0 0)
(0 0 0)
(0 0 0)
(0 0 0)
(0 0 0)
(0 0 0)
(0 0 0)
(0 0 0)
(0 0 0)
(0 0 0)
(0 0 0)
(0 0 0)
(0 0 0)
(0 0 0)
(0 0 0)
(0 0 0)
(0 0 0)
(0 0 0)
(0 0 0)
(0 0 0)
(0 0 0)
(0 0 0)
(0 0 0)
(0 0 0)
(0 0 0)
(0 0 0)
(0 0 0)
(0 0 0)
(0 0 0)
(0 0 0)
(0 0 0)
(0 0 0)
(0 0 0)
(0 0 0)
(0 0 0)
(0 0 0)
(0 0 0)
(0 0 0)
(0 0 0)
(0 0 0)
(0 0 0)
(0 0 0)
(0 0 0)
(0 0 0)
(0 0 0)
(0 0 0)
(0 0 0)
(0 0 0)
(0 0 0)
(0 0 0)
(0 0 0)
(0 0 0)
(0 0 0)
(0 0 0)
(0 0 0)
(0 0 0)
(0 0 0)
(0 0 0)
(0 0 0)
(0 0 0)
(0 0 0)
(0 0 0)
(0 0 0)
(0 0 0)
(0 0 0)
(0 0 0)
(0 0 0)
(0 0 0)
(0 0 0)
(0 0 0)
(0 0 0)
(0 0 0)
(0 0 0)
(0 0 0)
(0 0 0)
(0 0 0)
(0 0 0)
(0 0 0)
(0 0 0)
(0 0 0)
(0 0 0)
(0 0 0)
(0 0 0)
(0 0 0)
(0 0 0)
(0 0 0)
(0 0 0)
(0 0 0)
(0 0 0)
(0 0 0)
(0 0 0)
(0 0 0)
(0 0 0)
(0 0 0)
(0 0 0)
(0 0 0)
(0 0 0)
(0 0 0)
(0 0 0)
(0 0 0)
(0 0 0)
(0 0 0)
(0 0 0)
(0 0 0)
(0 0 0)
(0 0 0)
(0 0 0)
(0 0 0)
(0 0 0)
(0 0 0)
(0 0 0)
(0 0 0)
(0 0 0)
(0 0 0)
(0 0 0)
(0 0 0)
(0 0 0)
(0 0 0)
(0 0 0)
(0 0 0)
(0 0 0)
(0 0 0)
(0 0 0)
(0 0 0)
(0 0 0)
(0 0 0)
(0 0 0)
(0 0 0)
(0 0 0)
(0 0 0)
(0 0 0)
(0 0 0)
(0 0 0)
(0 0 0)
(0 0 0)
(0 0 0)
(0 0 0)
(0 0 0)
(0 0 0)
(0 0 0)
(0 0 0)
(0 0 0)
(0 0 0)
(0 0 0)
(0 0 0)
(0 0 0)
(0 0 0)
(0 0 0)
(0 0 0)
(0 0 0)
(0 0 0)
(0 0 0)
(0 0 0)
(0 0 0)
(0 0 0)
(0 0 0)
(0 0 0)
(0 0 0)
(0 0 0)
(0 0 0)
(0 0 0)
(0 0 0)
(0 0 0)
(0 0 0)
(0 0 0)
(0 0 0)
(0 0 0)
(0 0 0)
(0 0 0)
(0 0 0)
(0 0 0)
(0 0 0)
(0 0 0)
(0 0 0)
(0 0 0)
(0 0 0)
(0 0 0)
(0 0 0)
(0 0 0)
(0 0 0)
(0 0 0)
(0 0 0)
(0 0 0)
(0 0 0)
(0 0 0)
(0 0 0)
(0 0 0)
(0 0 0)
(0 0 0)
(0 0 0)
(0 0 0)
(0 0 0)
(0 0 0)
(0 0 0)
(0 0 0)
(0 0 0)
(0 0 0)
(0 0 0)
(0 0 0)
(0 0 0)
(0 0 0)
(0 0 0)
(0 0 0)
(0 0 0)
(0 0 0)
(0 0 0)
(0 0 0)
(0 0 0)
(0 0 0)
(0 0 0)
(0 0 0)
(0 0 0)
(0 0 0)
(0 0 0)
(0 0 0)
(0 0 0)
(0 0 0)
(0 0 0)
(0 0 0)
(0 0 0)
(0 0 0)
(0 0 0)
(0 0 0)
(0 0 0)
(0 0 0)
(0 0 0)
(0 0 0)
(0 0 0)
(0 0 0)
(0 0 0)
(0 0 0)
(0 0 0)
(0 0 0)
(0 0 0)
(0 0 0)
(0 0 0)
(0 0 0)
(0 0 0)
(0 0 0)
(0 0 0)
(0 0 0)
(0 0 0)
(0 0 0)
(0 0 0)
(0 0 0)
(0 0 0)
(0 0 0)
(0 0 0)
(0 0 0)
(0 0 0)
(0 0 0)
(0 0 0)
(0 0 0)
(0 0 0)
(0 0 0)
(0 0 0)
(0 0 0)
(0 0 0)
(0 0 0)
(0 0 0)
(0 0 0)
(0 0 0)
(0 0 0)
(0 0 0)
(0 0 0)
(0 0 0)
(0 0 0)
(0 0 0)
(0 0 0)
(0 0 0)
(0 0 0)
(0 0 0)
(0 0 0)
(0 0 0)
(0 0 0)
(0 0 0)
(0 0 0)
(0 0 0)
(0 0 0)
(0 0 0)
(0 0 0)
(0 0 0)
(0 0 0)
(0 0 0)
(0 0 0)
(0 0 0)
(0 0 0)
(0 0 0)
(0 0 0)
(0 0 0)
(0 0 0)
(0 0 0)
(0 0 0)
(0 0 0)
(0 0 0)
(0 0 0)
(0 0 0)
(0 0 0)
(0 0 0)
(0 0 0)
(0 0 0)
(0 0 0)
(0 0 0)
(0 0 0)
(0 0 0)
(0 0 0)
(0 0 0)
(0 0 0)
(0 0 0)
(0 0 0)
(0 0 0)
(0 0 0)
(0 0 0)
(0 0 0)
(0 0 0)
(0 0 0)
(0 0 0)
(0 0 0)
(0 0 0)
(0 0 0)
(0 0 0)
(0 0 0)
(0 0 0)
(0 0 0)
(0 0 0)
(0 0 0)
(0 0 0)
(0 0 0)
(0 0 0)
(0 0 0)
(0 0 0)
(0 0 0)
(0 0 0)
(0 0 0)
(0 0 0)
(0 0 0)
(0 0 0)
(0 0 0)
(0 0 0)
(0 0 0)
(0 0 0)
(0 0 0)
(0 0 0)
(0 0 0)
(0 0 0)
(0 0 0)
(0 0 0)
(0 0 0)
(0 0 0)
(0 0 0)
(0 0 0)
(0 0 0)
(0 0 0)
(0 0 0)
(0 0 0)
(0 0 0)
(0 0 0)
(0 0 0)
(0 0 0)
(0 0 0)
(0 0 0)
(0 0 0)
(0 0 0)
(0 0 0)
(0 0 0)
(0 0 0)
(0 0 0)
(0 0 0)
(0 0 0)
(0 0 0)
(0 0 0)
(0 0 0)
(0 0 0)
(0 0 0)
(0 0 0)
(0 0 0)
(0 0 0)
(0 0 0)
(0 0 0)
(0 0 0)
(0 0 0)
(0 0 0)
(0 0 0)
(0 0 0)
(0 0 0)
(0 0 0)
(0 0 0)
(0 0 0)
(0 0 0)
(0 0 0)
(0 0 0)
(0 0 0)
(0 0 0)
(0 0 0)
(0 0 0)
(0 0 0)
(0 0 0)
(0 0 0)
(0 0 0)
(0 0 0)
(0 0 0)
(0 0 0)
(0 0 0)
(0 0 0)
(0 0 0)
(0 0 0)
(0 0 0)
(0 0 0)
(0 0 0)
(0 0 0)
(0 0 0)
(0 0 0)
(0 0 0)
(0 0 0)
(0 0 0)
(0 0 0)
(0 0 0)
(0 0 0)
(0 0 0)
(0 0 0)
(0 0 0)
(0 0 0)
(0 0 0)
(0 0 0)
(0 0 0)
(0 0 0)
(0 0 0)
(0 0 0)
(0 0 0)
(0 0 0)
(0 0 0)
(0 0 0)
(0 0 0)
(0 0 0)
(0 0 0)
(0 0 0)
(0 0 0)
(0 0 0)
(0 0 0)
(0 0 0)
(0 0 0)
(0 0 0)
(0 0 0)
(0 0 0)
(0 0 0)
(0 0 0)
(0 0 0)
(0 0 0)
(0 0 0)
(0 0 0)
(0 0 0)
(0 0 0)
(0 0 0)
(0 0 0)
(0 0 0)
(0 0 0)
(0 0 0)
(0 0 0)
(0 0 0)
(0 0 0)
(0 0 0)
(0 0 0)
(0 0 0)
(0 0 0)
(0 0 0)
(0 0 0)
(0 0 0)
(0 0 0)
(0 0 0)
(0 0 0)
(0 0 0)
(0 0 0)
(0 0 0)
(0 0 0)
(0 0 0)
(0 0 0)
(0 0 0)
(0 0 0)
(0 0 0)
(0 0 0)
(0 0 0)
(0 0 0)
(0 0 0)
(0 0 0)
(0 0 0)
(0 0 0)
(0 0 0)
(0 0 0)
(0 0 0)
(0 0 0)
(0 0 0)
(0 0 0)
(0 0 0)
(0 0 0)
(0 0 0)
(0 0 0)
(0 0 0)
(0 0 0)
(0 0 0)
(0 0 0)
(0 0 0)
(0 0 0)
(0 0 0)
(0 0 0)
(0 0 0)
(0 0 0)
(0 0 0)
(0 0 0)
(0 0 0)
(0 0 0)
(0 0 0)
(0 0 0)
(0 0 0)
(0 0 0)
(0 0 0)
(0 0 0)
(0 0 0)
(0 0 0)
(0 0 0)
(0 0 0)
(0 0 0)
(0 0 0)
(0 0 0)
(0 0 0)
(0 0 0)
(0 0 0)
(0 0 0)
(0 0 0)
(0 0 0)
(0 0 0)
(0 0 0)
(0 0 0)
(0 0 0)
(0 0 0)
(0 0 0)
(0 0 0)
(0 0 0)
(0 0 0)
(0 0 0)
(0 0 0)
(0 0 0)
(0 0 0)
(0 0 0)
(0 0 0)
(0 0 0)
(0 0 0)
(0 0 0)
(0 0 0)
(0 0 0)
(0 0 0)
(0 0 0)
(0 0 0)
(0 0 0)
(0 0 0)
(0 0 0)
(0 0 0)
(0 0 0)
(0 0 0)
(0 0 0)
(0 0 0)
(0 0 0)
(0 0 0)
(0 0 0)
(0 0 0)
(0 0 0)
(0 0 0)
(0 0 0)
(0 0 0)
(0 0 0)
(0 0 0)
(0 0 0)
(0 0 0)
(0 0 0)
(0 0 0)
(0 0 0)
(0 0 0)
(0 0 0)
(0 0 0)
(0 0 0)
(0 0 0)
(0 0 0)
(0 0 0)
(0 0 0)
(0 0 0)
(0 0 0)
(0 0 0)
(0 0 0)
(0 0 0)
(0 0 0)
(0 0 0)
(0 0 0)
(0 0 0)
(0 0 0)
(0 0 0)
(0 0 0)
(0 0 0)
(0 0 0)
(0 0 0)
(0 0 0)
(0 0 0)
(0 0 0)
(0 0 0)
(0 0 0)
(0 0 0)
(0 0 0)
(0 0 0)
(0 0 0)
(0 0 0)
(0 0 0)
(0 0 0)
(0 0 0)
(0 0 0)
(0 0 0)
(0 0 0)
(0 0 0)
(0 0 0)
(0 0 0)
(0 0 0)
(0 0 0)
(0 0 0)
(0 0 0)
(0 0 0)
(0 0 0)
(0 0 0)
(0 0 0)
(0 0 0)
(0 0 0)
(0 0 0)
(0 0 0)
(0 0 0)
(0 0 0)
(0 0 0)
(0 0 0)
(0 0 0)
(0 0 0)
(0 0 0)
(0 0 0)
(0 0 0)
(0 0 0)
(0 0 0)
(0 0 0)
(0 0 0)
(0 0 0)
(0 0 0)
(0 0 0)
(0 0 0)
(0 0 0)
(0 0 0)
(0 0 0)
(0 0 0)
(0 0 0)
(0 0 0)
(0 0 0)
(0 0 0)
(0 0 0)
(0 0 0)
(0 0 0)
(0 0 0)
(0 0 0)
(0 0 0)
(0 0 0)
(0 0 0)
(0 0 0)
(0 0 0)
(0 0 0)
(0 0 0)
(0 0 0)
(0 0 0)
(0 0 0)
(0 0 0)
(0 0 0)
(0 0 0)
(0 0 0)
(0 0 0)
(0 0 0)
(0 0 0)
(0 0 0)
(0 0 0)
(0 0 0)
(0 0 0)
(0 0 0)
(0 0 0)
(0 0 0)
(0 0 0)
(0 0 0)
(0 0 0)
(0 0 0)
(0 0 0)
(0 0 0)
(0 0 0)
(0 0 0)
(0 0 0)
(0 0 0)
(0 0 0)
(0 0 0)
(0 0 0)
(0 0 0)
(0 0 0)
(0 0 0)
(0 0 0)
(0 0 0)
(0 0 0)
(0 0 0)
(0 0 0)
(0 0 0)
(0 0 0)
(0 0 0)
(0 0 0)
(0 0 0)
(0 0 0)
(0 0 0)
(0 0 0)
(0 0 0)
(0 0 0)
(0 0 0)
(0 0 0)
(0 0 0)
(0 0 0)
(0 0 0)
(0 0 0)
(0 0 0)
(0 0 0)
(0 0 0)
(0 0 0)
(-0.000800574 -0.000459479 0.000462195)
(-0.000943705 0.000500593 -0.000698576)
(-0.000335707 -4.05222e-05 7.35459e-06)
(0.000208685 0.000114389 0.000124506)
(-3.0236e-05 -4.73654e-05 3.46887e-05)
(-1.23203e-05 -2.57112e-05 -0.000134275)
(0.000621202 -0.000102247 0.000291719)
(0.00160785 1.98179e-05 -0.000248784)
(-0.000731985 -4.87127e-05 7.10509e-05)
(-0.000170283 -0.000127537 -9.48288e-05)
(6.61727e-05 -9.8663e-05 0.000126021)
(-0.00042906 0.000163179 -4.77178e-05)
(0.000774812 -0.000515606 -0.000561537)
(0.00021037 -0.000283291 -0.000306755)
(0.000549261 -0.000318511 -0.00054229)
(0.000389882 0.000159896 -0.000198109)
(-0.000305273 0.000120954 0.000141797)
(-0.000283562 -4.98857e-05 -0.000203774)
(0.000438613 7.13533e-05 -0.000245456)
(-0.000271739 -0.000322321 0.000565956)
(-0.000377621 -0.00044701 0.00035515)
(8.43121e-05 -0.000141235 4.29194e-05)
(0.000195085 0.000422856 -0.000320021)
(0.00013803 0.000355254 -0.000129952)
(-0.000103237 -4.62505e-05 0.000220989)
(-0.000172455 -6.55506e-05 -3.58283e-05)
(0.000589121 -4.97569e-05 -0.000586449)
(0.000408739 0.0001934 -1.36816e-05)
(8.49931e-05 -0.00047006 0.000449639)
(0.000228171 -0.000277855 0.000254808)
(0.000352307 0.00039618 -0.00108491)
(0.000371163 -0.000231253 0.000542907)
(0.000459426 -0.000146096 0.00962304)
(0.000680953 0.00106555 0.0100381)
(0.000422118 0.000171703 0.00922393)
(0.000106126 0.00185883 0.0101265)
(-0.000164578 -0.000395944 0.0107347)
(0.00122396 0.00120257 0.00956692)
(0.00139123 0.000576674 0.00899669)
(0.000721118 0.000858001 0.00768736)
(-0.000498152 -8.48034e-05 0.0082646)
(0.00127033 0.000250552 0.00787216)
(0.00132487 -0.00021592 0.00921371)
(0.000279783 1.52467e-05 0.0100575)
(0.000788469 -0.000721154 0.00903684)
(0.000175628 0.000301198 0.00799605)
(0.000299931 -0.000163077 0.00775391)
(0.000610331 -0.000383601 0.00838183)
(0.000205243 -8.89307e-05 0.00754334)
(0.000970049 -0.000159844 0.00809759)
(0.000724835 -0.000363381 0.00892893)
(-0.000312778 -0.000266927 0.0107811)
(0.00108134 -0.00030052 0.00986158)
(-0.000569533 -0.000852867 0.00838375)
(8.21465e-05 -0.00126759 0.00707616)
(-6.45843e-05 -0.000890858 0.00755821)
(-0.000155283 -0.000426178 0.00836078)
(0.00254675 0.00043241 0.00840646)
(0.00152994 8.48111e-05 0.00861026)
(-3.46152e-05 -0.000394512 0.00940797)
(0.00139196 -0.000125159 0.00868404)
(0.00109567 -0.000726407 0.00823423)
(0.00105321 -0.000617532 0.00824898)
(-0.000217978 -0.000112395 0.00817526)
(0.00160698 -0.00137226 0.00913778)
(0.00106124 -0.000896626 0.0100083)
(0.000732986 -0.00035646 0.0100662)
(0.000765875 -0.000718578 0.0113328)
(0.000290524 -0.000495864 0.0106809)
(0.000479045 -0.000649326 0.00999563)
(-0.000150335 0.000328841 0.0101007)
(-2.62007e-05 0.00141838 0.00947865)
(0.00188979 -0.000885799 0.00811214)
(0.00114301 -0.000940114 0.00847284)
(0.000982613 -0.000266343 0.0102168)
(0.000825189 -0.000623508 0.0111635)
(-0.000130197 -0.00148021 0.00997653)
(0.00079953 -0.000733114 0.00963391)
(-6.7468e-05 0.000282612 0.00968775)
(0.000302631 0.000977882 0.00923371)
(0.00114599 0.000235218 0.00931399)
(-0.000197059 -0.000414492 0.00838902)
(0.000193106 -0.000989185 0.00881907)
(0.000494675 -0.000723339 0.00967211)
(0.000739587 0.000203433 0.0105228)
(0.000667869 -0.000817557 0.00859986)
(4.49302e-05 -0.000212841 0.00842122)
(-0.00046061 0.000608138 0.00829458)
(0.00148082 5.85324e-05 0.00858762)
(0.000925906 0.00024473 0.00784964)
(0.000913068 -0.000232731 0.0134177)
(0.00150017 -0.000197526 0.0102875)
(0.000805801 5.371e-05 0.010289)
(0.000496994 -0.000675108 0.00811345)
(0.000654513 -0.0006148 0.00725136)
(-0.000564618 0.000353031 0.00741266)
(0.000992966 0.00106995 0.00988527)
(0.00161686 -0.00024971 0.0098537)
(0.000723385 -0.00083988 0.0102417)
(0.000724611 -0.000897188 0.0104307)
(0.000811933 -0.000183813 0.0111565)
(0.000423652 -0.00136555 0.0105661)