/*--------------------------------*- C++ -*----------------------------------*\
| =========                 |                                                 |
| \\      /  F ield         | OpenFOAM: The Open Source CFD Toolbox           |
|  \\    /   O peration     | Version:  2506                                  |
|   \\  /    A nd           | Website:  www.openfoam.com                      |
|    \\/     M anipulation  |                                                 |
\*---------------------------------------------------------------------------*/
FoamFile
{
    version     2.0;
    format      ascii;
    arch        "LSB;label=32;scalar=64";
    class       volScalarField;
    location    "0.005";
    object      p;
}
// * * * * * * * * * * * * * * * * * * * * * * * * * * * * * * * * * * * * * //

dimensions      [0 2 -2 0 0 0 0];

internalField   nonuniform List<scalar> 
512
(
5.4298
5.52837
5.26299
7.00094
8.98082
8.63028
7.53686
4.75538
1.80152
-0.431839
-0.611467
-0.00531656
0.118318
0.301565
1.07536
2.09762
2.48816
2.82149
3.6216
5.37351
5.31725
3.06038
1.15588
2.06959
3.51537
3.93608
4.46859
5.84291
5.28448
3.3646
3.47794
4.53813
4.78615
5.78307
6.48655
8.19825
10.7258
9.95976
6.52496
2.9698
1.60144
0.367079
-0.499704
0.473719
1.07273
0.560919
0.648708
2.16404
2.8574
2.84676
3.90833
4.76802
3.73222
2.1834
1.4878
2.87869
3.80088
3.37929
4.37603
5.63623
4.96259
3.23907
3.40893
4.3717
4.45226
6.47505
7.84386
8.33254
9.55605
9.63206
7.3189
3.29946
0.990675
0.169461
0.260153
0.941046
0.794364
0.523067
1.05686
1.88457
2.01679
2.20357
2.71556
4.00981
3.91648
2.88417
1.70066
3.13285
4.99031
4.90105
4.36384
4.27154
3.86094
3.104
3.92652
4.19255
5.21957
6.8083
7.05418
7.55872
8.43931
8.64188
6.79515
3.51888
1.79668
0.653319
-1.02252
-0.368029
1.13926
2.05112
2.12315
0.989145
0.33484
2.44881
3.53192
3.49343
3.72525
2.8487
2.04524
3.99111
5.97677
5.14415
4.13015
4.67706
4.73935
4.25886
3.38416
3.2197
5.00163
6.19847
6.7421
7.79223
8.59667
7.76074
5.81482
4.89602
2.97451
0.65818
-1.53244
-1.29544
1.10519
3.0569
2.55937
1.18424
1.41627
2.56941
3.06353
2.55366
2.14865
2.69638
3.27296
3.96471
4.80786
4.36799
4.11183
4.21935
4.34877
4.7784
4.26134
3.98249
5.06818
6.61786
7.64189
7.80492
8.09815
7.262
5.4974
4.81227
2.85378
0.795337
-0.665904
-0.848559
0.641043
2.01711
1.91102
1.47009
1.90305
2.28681
2.55989
2.64912
2.75132
2.95015
3.78169
3.60418
3.13253
3.36154
4.45657
5.18781
5.22223
4.56863
4.03429
3.93744
5.59501
7.06035
8.07387
7.82206
6.29527
5.76628
5.52723
4.19228
2.48538
1.16711
-0.042648
-0.319654
1.82898
2.78777
2.40966
1.02493
0.209848
0.71896
1.95627
3.22194
4.28143
3.34932
2.81478
3.2032
2.95082
3.11048
4.77554
5.33442
5.5289
4.87024
3.84665
4.21986
5.98198
8.40841
8.95501
7.12818
5.6655
5.01421
4.04011
2.9314
2.1722
1.66762
0.613319
0.203126
2.47768
4.50275
3.53852
1.40491
-0.383832
-0.345497
1.81473
3.12287
2.57134
2.70218
3.16671
3.41972
3.12855
3.84073
5.86026
5.57704
4.65891
3.77551
4.15919
4.83905
3.57782
6.02207
7.93155
8.62243
8.11255
6.914
5.09794
4.34917
2.56121
-0.0129817
-0.76777
0.510954
1.71443
0.991311
0.621275
1.71018
3.84834
3.82811
2.87146
2.38891
3.13328
3.22058
2.44018
2.79565
3.90245
4.76067
5.99556
5.99105
4.70352
4.04485
3.71562
2.70658
4.71441
6.17388
7.30012
7.97845
8.2834
8.71372
6.71372
3.89962
1.30148
-0.41706
-0.838592
0.269873
1.84998
1.89209
1.0288
1.44699
3.29099
3.65443
2.97147
2.42193
3.38165
3.61151
3.22654
3.53272
3.99742
3.97358
4.52689
5.13927
4.95146
4.05823
3.26805
3.98603
5.85613
7.19649
7.02537
8.12864
9.24786
8.71976
6.00422
3.33762
0.812535
0.304637
0.28794
0.154857
1.11614
1.51555
0.762389
1.03666
2.06244
2.8144
2.99884
3.27789
3.67704
3.28001
2.92231
4.368
6.57621
6.54016
4.23654
2.87065
4.02627
4.39254
3.4087
3.2278
5.92592
5.82794
6.58873
7.66241
9.705
8.24086
4.19354
2.90948
2.24898
1.09618
0.285023
-0.0907181
0.494822
1.63636
1.83844
1.00841
1.04555
2.02011
3.07442
3.11486
2.94423
2.73686
3.73568
5.70531
6.32405
4.92863
3.83573
3.82169
4.00046
3.72561
3.84211
5.15968
5.84745
7.27147
7.80033
7.92819
7.65524
7.58146
6.05258
3.70195
2.34085
0.651517
-0.591656
0.294182
1.92678
2.2616
1.81996
2.10831
2.15231
1.6656
1.723
2.38864
2.81665
3.10543
3.54714
4.11118
3.9244
3.98557
4.22512
4.53561
4.73164
3.93611
3.54797
4.41627
5.71664
6.55351
8.02406
9.71483
10.0529
7.38867
4.14815
1.25639
1.22499
1.03044
0.24345
-0.715385
-0.0573983
2.19135
2.79591
2.37239
1.90593
2.67427
2.34074
1.93934
2.55698
3.37309
3.04723
2.4418
3.04653
4.0801
5.09982
5.65429
4.99726
3.77598
3.8283
4.74389
5.79149
8.08799
8.5559
8.73109
8.72937
7.24596
4.50129
1.98862
1.11207
0.245221
-0.183604
0.129693
1.35605
2.03829
2.45476
2.07296
2.02094
1.24114
1.34693
2.55207
2.95504
2.92494
3.11013
3.37796
3.40058
3.01255
3.61705
5.86915
6.34869
4.9809
3.0077
3.01535
5.39668
8.28998
9.46604
9.08015
7.51775
5.27028
4.12739
2.81658
1.35414
0.556609
0.480614
0.927452
1.90784
2.2868
3.15421
3.03478
1.20236
0.312686
0.583773
2.37065
3.00224
2.28904
2.40895
3.88632
4.06652
3.01637
3.07552
4.61949
6.40916
5.96027
4.18343
3.54656
)
;

boundaryField
{
    wall
    {
        type            zeroGradient;
    }
    outlet
    {
        type            cyclic;
    }
    inlet
    {
        type            cyclic;
    }
    procBoundary3to2
    {
        type            processor;
        value           nonuniform List<scalar> 
256
(
6.7512
5.28037
3.98687
5.39647
8.47697
10.3718
9.24995
4.83744
1.5878
0.186562
-0.137284
0.0152687
0.284821
1.03499
1.42511
1.84108
1.9314
2.2171
3.66257
5.47142
5.30201
3.10727
1.22991
1.78336
3.38005
3.39737
3.95548
5.86572
5.14529
3.44785
4.2419
6.08181
4.51421
4.75709
5.44758
7.37741
10.9984
11.1026
7.69514
4.01999
1.66973
0.399168
0.216384
0.392277
0.331533
0.585484
1.48492
2.34735
1.84061
2.03222
4.27546
5.28069
3.80364
2.15748
1.04457
1.99907
3.83086
4.42854
4.44557
5.16074
4.59997
4.09225
4.74081
5.36028
3.5814
5.24565
7.21996
8.32389
9.45715
10.4817
9.55812
4.59401
1.26855
0.752159
0.866284
0.084721
-0.564686
-0.238253
1.3537
1.57965
1.12666
2.35562
4.34128
5.42543
4.38811
2.66566
1.03591
2.12572
3.74222
4.14369
4.7082
5.41442
4.26282
3.91921
4.59052
4.53838
6.26351
7.12503
6.68285
6.35384
7.14119
9.00233
9.64073
6.37014
2.24851
0.0659217
-1.95966
-1.47719
-0.655968
0.829799
1.91152
1.68397
1.51927
2.65407
3.5042
4.18627
4.21239
2.79111
1.88408
3.3739
4.77099
4.72347
5.00575
4.64122
4.35701
3.70635
3.63523
4.18775
4.80733
6.1856
6.69504
7.1483
7.63065
7.6802
6.71271
5.23086
3.59546
0.77364
-1.4185
-2.29504
-0.91763
1.80445
3.44638
1.9612
1.2352
2.03991
2.94415
3.3902
3.283
2.60565
3.1046
4.23346
4.58293
4.09034
4.48029
4.5407
4.32726
4.73492
4.6637
4.02773
3.57377
5.59188
7.95733
8.97168
7.33334
5.80662
4.98019
4.80696
4.7014
1.7755
-0.861657
-1.81003
0.138909
1.94219
1.82932
1.42441
1.82955
2.29048
2.22914
2.39426
2.65865
2.85559
3.8561
3.73458
3.22202
3.81316
4.42348
4.72623
5.98091
6.58268
5.09801
3.65977
4.83714
7.2547
8.94677
8.86973
6.30367
4.61954
4.60847
4.39552
3.83136
1.9198
-0.554455
-1.64524
0.729812
2.65921
2.83277
1.30336
0.910421
2.23186
2.72669
2.74369
2.41756
2.61133
2.82617
2.93592
2.52867
3.46376
4.79872
5.20463
5.69707
5.86477
4.83745
4.14
5.17038
7.80073
9.58198
9.30502
6.49324
4.34867
3.89613
3.57759
1.96094
0.808717
-0.582145
-0.67619
1.82947
4.18052
3.79015
1.55137
0.624834
2.02392
2.86298
1.97472
1.43626
2.44422
3.20373
3.00931
3.74651
4.42573
4.9899
5.30006
5.14501
5.24067
4.83978
4.76675
)
;
    }
}


// ************************************************************************* //
