/*--------------------------------*- C++ -*----------------------------------*\
| =========                 |                                                 |
| \\      /  F ield         | OpenFOAM: The Open Source CFD Toolbox           |
|  \\    /   O peration     | Version:  2506                                  |
|   \\  /    A nd           | Website:  www.openfoam.com                      |
|    \\/     M anipulation  |                                                 |
\*---------------------------------------------------------------------------*/
FoamFile
{
    version     2.0;
    format      ascii;
    arch        "LSB;label=32;scalar=64";
    class       volVectorField;
    location    "0.005";
    object      U_0;
}
// * * * * * * * * * * * * * * * * * * * * * * * * * * * * * * * * * * * * * //

dimensions      [0 1 -1 0 0 0 0];

internalField   nonuniform List<vector> 
512
(
(9.93915 -0.0360138 0.00937217)
(10.1051 0.0562962 0.211999)
(10.1903 0.0428762 0.177674)
(10.2249 0.100817 -0.0500935)
(9.60939 0.0324285 -0.334472)
(9.59258 -0.114099 -0.242041)
(9.53001 -0.245202 -0.126801)
(9.32081 0.0360232 0.0610172)
(9.63686 0.124198 0.0130783)
(9.83099 0.084131 -0.15731)
(9.75623 0.116582 0.0130198)
(9.85752 0.0732639 0.114204)
(9.94888 -0.0135556 0.0161475)
(9.96369 0.00962406 -0.0266487)
(9.89639 0.0299942 0.0196336)
(9.82074 -0.00295665 0.180012)
(9.88795 -0.0202284 0.136129)
(9.98961 0.0399199 -0.104721)
(9.92405 0.0100427 -0.136064)
(9.67298 -0.0603082 -0.0941993)
(9.55754 -0.0804227 0.073776)
(9.86274 -0.0148232 0.0814163)
(10.0639 0.0654009 0.0345586)
(9.9772 0.0496098 0.122473)
(10.0485 0.00227344 0.196754)
(10.0514 -4.18242e-05 0.138816)
(9.88945 -0.00310975 -0.00308326)
(9.59199 -0.0557838 -0.0749716)
(9.79684 -0.0314662 0.0151385)
(10.1309 0.0143227 -0.0318807)
(10.0787 -0.0461512 -0.21463)
(10.0653 -0.0658119 -0.124556)
(10.1587 0.0822544 0.136031)
(10.2169 0.121628 0.0629286)
(10.2512 -0.00454006 -0.0120109)
(10.1602 -0.0347311 -0.234414)
(9.59859 0.0759976 -0.22714)
(9.35112 -0.103898 -0.085327)
(9.64654 -0.152906 -0.0781175)
(9.75142 -0.0925231 -0.0744035)
(9.77949 0.0404576 -0.0394342)
(9.9108 0.108868 -0.0191414)
(9.93806 0.112901 -0.00369629)
(9.84612 0.0773021 0.12241)
(9.9279 0.0294727 0.117671)
(10.0114 -0.0279911 -0.0241616)
(9.96361 -0.0870005 -0.0526761)
(9.83677 -0.0889468 0.124288)
(9.94979 -0.0584327 0.12699)
(10.0724 -0.121739 -0.0990521)
(9.97316 -0.121745 -0.192522)
(9.63574 -0.0735834 0.0146091)
(9.80424 0.0253192 0.13233)
(10.0222 0.067763 0.202723)
(10.0963 0.0956012 0.0357628)
(10.007 0.174735 0.00747171)
(10.0949 0.120343 0.0454267)
(10.1169 -0.00622638 -0.00416382)
(9.90301 -0.0776662 -0.0853576)
(9.74152 -0.0420977 0.101059)
(9.92368 -0.00900521 0.0985363)
(10.1206 0.0405245 -0.119964)
(10.1211 -0.0135555 -0.0980584)
(10.254 -0.0423612 0.0402606)
(10.2893 0.0857224 0.0242395)
(10.236 0.0350935 -0.0422763)
(10.0686 -0.126968 0.0144518)
(10.0897 -0.176587 -0.0268878)
(9.78444 -0.111754 -0.169169)
(9.52091 0.063909 -0.287206)
(9.44873 0.0223173 -0.134344)
(9.6596 -0.0194536 -0.0293196)
(9.87043 -0.00307234 -0.169813)
(9.95992 -0.0372356 -0.0754927)
(9.95708 -0.038293 0.0682492)
(9.733 0.0205645 0.147616)
(9.90995 0.111086 0.112705)
(10.0202 0.0902036 0.0209833)
(9.91095 -0.121113 -0.0117446)
(9.8482 -0.20707 0.0985032)
(9.96203 -0.0503652 -0.00164406)
(10.006 -0.0781614 -0.0932927)
(9.98217 -0.0908638 -0.0518595)
(9.82306 -0.0202893 0.0256815)
(9.82161 0.10834 0.106755)
(10.036 0.126124 0.19517)
(10.1719 0.141694 0.177344)
(10.1153 0.15688 0.220074)
(9.86847 0.111866 0.149969)
(9.87042 0.0100546 -0.127286)
(9.87317 -0.0473341 -0.267065)
(9.88985 0.0163614 0.0397118)
(9.99759 0.0292399 0.122902)
(10.1052 -0.0527552 -0.0649814)
(10.0622 -0.0344609 -0.0975879)
(10.1466 0.0491587 0.0305935)
(10.0961 -0.0816731 -0.108924)
(10.0689 -0.125336 -0.0037803)
(10.1395 -0.079092 0.135869)
(10.0751 -0.111586 0.125318)
(9.77563 -0.16456 -0.122576)
(9.61508 -0.126302 -0.392963)
(9.54871 0.121394 -0.205052)
(9.73619 0.184945 0.0247111)
(9.69143 0.00513499 0.0709775)
(9.91503 -0.152693 0.204352)
(10.0726 -0.082177 0.176796)
(10.016 0.0913688 0.0583433)
(9.84494 0.151005 0.0617246)
(9.77622 0.109025 -0.0226516)
(9.8534 -0.0328658 -0.0489391)
(9.9944 -0.0345233 -0.0354647)
(10.0879 0.0466973 -0.0919263)
(9.97993 0.0534442 -0.073846)
(9.94298 -0.106034 -0.0104412)
(9.90019 -0.183288 -0.0172749)
(9.8493 -0.0197239 0.0514226)
(10.1177 0.143326 0.134707)
(10.1781 0.0713572 0.112386)
(10.0887 -0.0165193 0.109922)
(9.82823 0.00825843 -0.0265697)
(9.95351 -0.010338 -0.150711)
(9.98842 -0.0538529 -0.155526)
(9.76453 0.0104327 0.0467521)
(9.87987 0.172087 0.0683244)
(10.0899 0.160045 0.0938306)
(10.1844 -0.0314754 0.0351975)
(10.2088 -0.0642992 -0.0452367)
(10.0652 -0.00439802 0.0299787)
(10.2065 0.0161083 0.0593575)
(10.1767 0.0146773 0.0498103)
(10.042 -0.0556123 0.0661967)
(9.72057 -0.195647 -0.0531615)
(9.69099 -0.116286 -0.119749)
(9.68199 0.0822903 -0.134758)
(9.56565 0.159305 -0.182311)
(9.69613 0.0259315 0.0129193)
(9.85531 -0.0341696 0.191343)
(10.0658 -0.00867093 0.201305)
(10.1405 0.0332027 0.124692)
(9.89005 -0.00452199 -0.0179149)
(9.72874 -0.0699613 -0.12569)
(9.82191 0.0117288 -0.0449147)
(10.0277 0.0770532 0.0643919)
(10.0413 0.015766 0.0101947)
(9.85328 -0.0508257 -0.0476409)
(9.8484 -0.0376662 -0.0382735)
(9.98762 -0.0342514 -0.00924725)
(9.9655 0.0452451 0.0362366)
(10.0769 0.104493 -0.00276771)
(10.1294 -0.0551723 -0.0503957)
(10.001 -0.26706 -0.0362369)
(9.87477 -0.149776 0.0268986)
(9.98618 -0.0120167 -0.043242)
(9.98182 -0.0206842 -0.0256425)
(9.99132 0.0557575 0.063215)
(10.0606 0.0886294 0.0258381)
(9.85603 0.160805 -0.0682505)
(10.0012 0.0895229 -0.0120341)
(10.124 0.0241933 -0.00320306)
(10.1405 0.102192 -0.0123471)
(10.1284 0.0913962 -0.0156048)
(10.0947 -0.0348389 0.134468)
(9.92821 -0.214814 0.200143)
(9.76189 -0.123221 -0.0246831)
(9.71381 -0.0223879 -0.270265)
(9.8474 -0.0738453 -0.175692)
(9.66205 0.02011 -0.267548)
(9.73046 0.165334 -0.0753721)
(9.7432 0.219186 0.196369)
(9.96369 0.073155 0.0944155)
(10.0473 0.116479 -0.0367861)
(9.89602 0.0100976 -0.0408501)
(9.77734 -0.180916 0.0925425)
(9.848 -0.141205 0.0689197)
(9.97232 -0.0824917 -0.0241197)
(9.97676 -0.0578582 0.0767715)
(9.87192 -0.0348896 0.163555)
(9.9284 0.127129 -0.000930743)
(9.98729 0.245667 -0.0751638)
(10.005 0.0424082 -0.0201449)
(10.0934 -0.120618 -0.0559268)
(9.88573 -0.146814 -0.0922707)
(9.94855 -0.229876 -0.00092857)
(10.2143 -0.175802 0.0405074)
(10.0423 0.07446 0.0699878)
(9.84892 0.144315 0.0722409)
(9.85639 0.146649 -0.157725)
(10.0007 -0.00843801 -0.186604)
(10.0224 -0.0675199 -0.0712786)
(10.0972 0.0707052 0.142593)
(10.1098 0.0832111 0.151496)
(10.1125 0.145797 0.0389522)
(10.1013 0.0863933 -0.0522572)
(9.93908 -0.0795327 -0.00664578)
(9.86386 -0.213065 0.194833)
(9.92544 -0.164727 0.140705)
(9.92504 -0.153588 -0.0449814)
(9.63691 -0.0984801 -0.252699)
(9.75036 -0.0399173 -0.326658)
(9.84143 0.154038 -0.12045)
(9.76903 0.274709 0.112654)
(10.0115 0.130009 0.188547)
(10.1549 0.133671 0.0780712)
(9.73389 0.205833 -0.0921405)
(9.65576 0.0733503 -0.0429457)
(9.66361 -0.128499 0.0713464)
(9.87475 -0.278718 0.0612637)
(10.0778 -0.19444 -0.0532738)
(10.1035 0.0601806 -0.0428411)
(10.003 0.0763671 0.0579813)
(9.94616 -0.0362597 0.0548719)
(9.76913 -0.0616313 0.00343579)
(9.88937 -0.0700908 0.0144742)
(9.94222 -0.143296 0.0283259)
(10.077 -0.046603 0.0844883)
(10.1861 0.117806 0.010835)
(10.1576 0.133006 -0.0366179)
(10.0007 0.0640006 0.0713974)
(10.01 0.0458039 0.124826)
(9.75613 -0.0221148 -0.152167)
(9.91189 0.00433733 -0.162392)
(10.1616 0.0618702 -0.0851502)
(10.0963 0.0711491 0.0423444)
(10.0886 0.124143 -0.012166)
(9.87077 0.0996959 -0.0836498)
(9.66868 -0.0630882 0.0229786)
(9.7582 -0.0812645 0.0495691)
(9.85951 -0.128135 0.00694029)
(9.80456 -0.105643 -0.0233321)
(9.79288 -0.0108443 -0.0421645)
(9.81507 0.0266032 -0.0478442)
(9.72881 0.0980179 0.0298072)
(9.7431 0.117924 0.0555097)
(9.98203 0.0663766 0.144137)
(10.0639 0.0665926 0.104258)
(9.69821 0.0583098 -0.0859467)
(9.45837 0.152541 -5.32206e-05)
(9.49199 0.0640183 0.0968096)
(9.79427 -0.116932 0.00633023)
(10.0861 -0.122806 -0.123873)
(10.0352 -0.0391979 -0.0795984)
(9.814 0.0202204 0.111858)
(9.75082 -0.157924 0.0666392)
(9.89405 -0.121057 -0.0628049)
(9.91995 0.0829904 -0.115587)
(9.92025 0.0489597 0.0719803)
(10.0325 -0.00810797 0.123561)
(10.0946 0.0358401 -0.0448377)
(10.0631 0.0500365 -0.123911)
(9.81702 0.0726764 -0.00157554)
(9.72061 -0.0670283 0.0308748)
(9.90077 -0.0985132 -0.0115408)
(10.0456 0.0215602 -0.0934414)
(10.0129 0.0395835 -0.0916074)
(10.061 0.0620135 0.0225991)
(10.0904 0.00690457 0.0577941)
(9.89252 -0.0251038 0.103261)
(9.7891 -0.0885257 0.0811522)
(9.57649 0.0116094 -0.144485)
(9.52272 0.129691 -0.162597)
(9.49886 0.0818127 -0.156614)
(9.36713 -0.108335 -0.0868649)
(9.30126 -0.133165 0.114879)
(9.41807 0.0159117 0.116399)
(9.76799 0.104137 0.0162034)
(9.76353 0.0364984 0.0992696)
(9.6302 0.00161269 0.190617)
(9.57907 0.0719139 0.0273335)
(9.64074 0.0889972 -0.0923489)
(9.78554 -0.0482889 -0.0255015)
(9.74742 -0.0720928 0.0588104)
(9.44236 -0.0394349 0.10208)
(9.42882 0.00663474 -0.133149)
(9.68746 0.0275941 -0.256191)
(9.69797 0.0349659 -0.120287)
(9.63128 0.0572841 0.0973107)
(9.70576 0.0679684 0.0979903)
(9.7217 0.0403985 0.0444316)
(9.85831 -0.00321203 0.0974908)
(9.80563 -0.121693 0.18059)
(9.72316 -0.202382 0.186576)
(9.34189 -0.115695 0.0270133)
(9.53329 0.0281332 -0.0551885)
(9.56935 0.105672 -0.00489036)
(9.63947 0.0373651 -0.0878628)
(9.95946 0.0222066 -0.119451)
(9.9977 -0.0192234 -0.0471144)
(9.88134 0.0372799 0.0624821)
(9.97847 -0.0415171 0.0196393)
(9.96032 -0.0425707 -0.0787897)
(9.81414 0.0886388 -0.169421)
(9.51779 0.073925 -0.0806731)
(9.24528 -0.0180241 0.114294)
(9.19736 -0.134617 -0.00286961)
(9.438 -0.110727 -0.0627528)
(9.49881 -0.0570911 -0.0419284)
(9.70728 0.0361829 0.0233945)
(9.81966 -0.0140818 0.0479977)
(9.79465 -0.0426347 0.0892555)
(9.58512 0.0253572 0.181945)
(9.61407 0.0479758 -0.00869865)
(9.7845 -0.074667 -0.129921)
(9.77726 -0.140388 -0.0213388)
(9.59927 -0.0962277 0.0845292)
(9.60632 0.0621457 -0.176964)
(9.71323 0.0891362 -0.19519)
(9.69142 0.0498896 -0.0125819)
(9.56832 -0.00747806 0.21794)
(9.65525 0.0437185 0.155579)
(9.75999 0.193248 0.0184212)
(9.71961 0.209909 0.0308992)
(9.70576 0.0968883 0.0625187)
(9.72873 -0.234985 -0.0299941)
(9.72482 -0.177134 -0.0491573)
(9.55148 0.0468477 0.0517079)
(9.57249 0.0770209 0.0604696)
(9.91795 0.0685929 -0.0529891)
(9.987 0.00341779 -0.0748647)
(9.8685 0.0222994 0.0342735)
(9.92065 -0.0398351 0.0494222)
(9.68255 -0.05324 -0.0613844)
(9.78687 -0.0315769 -0.00571725)
(9.72788 0.0350753 -0.0263466)
(9.54933 0.0291492 -0.118153)
(9.16301 -0.182523 -0.148027)
(9.26841 -0.0749428 -0.0411759)
(9.45711 0.0927655 0.0461094)
(9.68032 0.0888495 -0.0112265)
(9.58436 0.00963844 -0.0783563)
(9.68771 -0.0854082 -0.00769824)
(9.69654 -0.0829557 0.0465485)
(9.6768 0.0277321 0.0463324)
(9.67828 0.0264663 -0.0211403)
(9.69901 -0.00730884 -0.0281831)
(9.68161 -0.142762 0.0226477)
(9.71817 -0.120614 0.0311807)
(9.69991 0.00114022 0.0100365)
(9.79698 0.021379 -0.0325926)
(9.8225 -0.0281899 -0.0138049)
(9.80415 -0.0260425 0.0552828)
(9.84876 0.105851 0.121795)
(9.96969 0.159077 0.0844884)
(9.94404 0.111345 0.0555283)
(9.58724 0.0959412 0.17817)
(9.37823 -0.0827994 -0.0127375)
(9.64507 -0.103151 -0.0744201)
(9.76534 -0.0592086 -0.00309565)
(9.51378 -0.00903965 0.125489)
(9.75277 0.0872955 -0.0164018)
(9.97638 0.184622 -0.132715)
(10.1014 0.0840367 -0.0197309)
(9.85364 -0.0487449 -0.044082)
(10.0559 -0.00492604 -0.0396019)
(10.0125 -0.0519919 0.0230796)
(9.95197 -0.122345 0.0736261)
(9.33369 -0.112735 0.0265554)
(9.24429 0.0465332 -0.17102)
(9.49113 0.0496992 -0.0957183)
(9.49388 -0.0381756 0.0512781)
(9.52252 0.063696 0.0377771)
(9.57497 0.0294224 0.0704563)
(9.7043 0.0604728 0.0122988)
(9.70016 0.112937 -0.032043)
(9.712 0.0908479 0.0140889)
(9.59328 0.0293514 -0.00927027)
(9.57607 0.0336328 0.035042)
(9.61938 0.0255025 0.0289517)
(9.74018 -0.0560219 -0.113543)
(9.69666 -0.113077 -0.11558)
(9.70686 -0.0924604 -0.0483379)
(9.6613 -0.0662351 -0.0164806)
(9.76423 0.00510948 0.0350566)
(9.81736 0.0273999 0.130242)
(9.8465 -0.0113001 0.10609)
(9.64259 -0.219179 -0.0194581)
(9.55819 -0.19432 5.18363e-05)
(9.60507 0.0194532 -0.0971395)
(9.74037 0.145753 -0.12805)
(9.71644 0.0975678 -0.0240669)
(9.74781 0.0693448 0.0993626)
(9.79631 0.0567497 0.140764)
(9.82186 0.0834187 0.143803)
(9.76484 -0.0354264 0.0413027)
(9.96609 -0.0211105 0.0608972)
(9.86754 0.140406 0.067239)
(9.7329 0.124531 0.0135785)
(9.70093 -0.103653 -0.0277509)
(9.49658 -0.221622 -0.022241)
(9.37402 -0.0567442 0.0311171)
(9.337 -0.0360485 -0.115591)
(9.46991 -0.0617425 -0.0877061)
(9.49443 0.0671276 0.0539959)
(9.66637 0.0632592 0.10406)
(9.68492 0.0464199 0.0858545)
(9.55894 -0.00696977 0.0917423)
(9.49454 -0.0332056 -0.0588376)
(9.59412 0.0229058 -0.0648329)
(9.62366 0.0352374 0.0151337)
(9.56107 0.0280993 0.0802821)
(9.62001 0.129122 -0.0631428)
(9.67026 0.09508 -0.0984422)
(9.74559 -0.071315 -0.00432742)
(9.67765 -0.0571085 0.0296943)
(9.72227 -0.0204651 0.0180798)
(9.75742 -0.0810839 0.0111177)
(9.69033 -0.209523 -0.0499345)
(9.68412 -0.14784 -0.0647522)
(9.68751 0.0187518 -0.0270785)
(9.69136 0.221886 0.0248912)
(9.64038 0.128957 0.0649212)
(9.61564 0.0322694 0.102157)
(9.66493 -0.00579658 -0.0420915)
(9.71577 0.00763169 -0.0991288)
(9.91964 -0.0201539 -0.00805051)
(9.8843 -0.0506371 0.0207568)
(9.90211 0.13794 -0.0290749)
(10.0056 0.0592606 0.0726546)
(9.86055 -0.0413694 0.137632)
(9.43895 -0.00328188 0.157939)
(9.25796 -0.0252629 -0.0923874)
(9.41601 -0.131621 -0.136412)
(9.49558 -0.084939 -0.205094)
(9.64819 -0.0305327 -0.198029)
(9.63372 0.0432076 0.0778145)
(9.53674 0.0705394 0.196649)
(9.61652 0.0520939 0.0469234)
(9.77533 0.00278648 -0.0688027)
(9.76687 -0.0180963 -0.0232356)
(9.53673 -0.0326781 0.122113)
(9.58498 -0.0526559 0.0416219)
(9.58277 -0.0558849 -0.00453468)
(9.68403 -0.0340004 0.0583323)
(9.57407 0.0571755 0.0274964)
(9.66396 0.157424 -0.0733584)
(9.71196 0.0891679 -0.0857506)
(9.74607 -0.0280826 0.0303453)
(9.78943 -0.096408 -0.0658038)
(9.88886 -0.12951 -0.0734992)
(9.99099 -0.150783 0.0211754)
(9.89867 -0.0624851 0.137159)
(9.89904 0.00358612 0.119553)
(9.70138 0.151615 -0.0293236)
(9.64913 0.0959855 -0.00285283)
(9.75467 -0.0298689 -0.0226631)
(9.94878 -0.0491783 -0.0164788)
(9.89363 -0.0108673 0.0389084)
(9.77953 0.10188 -0.00922624)
(9.87593 0.209522 0.107384)
(9.76327 0.0767546 0.0277898)
(9.78188 -0.233985 0.030853)
(9.61844 -0.263435 0.139322)
(9.37976 -0.0586251 0.11027)
(9.2672 0.0166456 -0.0724348)
(9.4435 0.0505615 -0.150697)
(9.66109 0.101302 -0.218872)
(9.71466 0.00350947 -0.0550316)
(9.66392 0.0070975 0.0895753)
(9.66779 0.136034 0.141893)
(9.61619 0.197263 -0.06216)
(9.62244 0.0492441 -0.085805)
(9.59161 0.00842503 0.0653432)
(9.56917 -0.0530984 0.112975)
(9.55319 -0.180877 0.0989874)
(9.67966 -0.203588 0.0186909)
(9.71072 -0.0758491 -0.061174)
(9.7494 0.12679 -0.0326272)
(9.62703 0.0423899 -0.0747742)
(9.71198 -0.099737 -0.0688602)
(9.76736 -0.100882 0.0350662)
(9.73498 0.0107731 0.0408044)
(9.68799 0.0565683 0.0601256)
(9.8049 -0.0712745 -0.00988689)
(9.80714 -0.148703 -0.034545)
(9.83814 -0.0613439 0.0596818)
(9.45137 0.0668546 0.0455741)
(9.61302 0.133138 -0.0776074)
(9.805 0.0794738 -0.146449)
(9.99206 -0.031684 -0.0312341)
(10.0529 0.0228641 0.0604067)
(9.95231 0.0196184 0.00814678)
(9.83468 0.0631076 0.0415898)
(9.51077 0.0675489 0.121193)
(9.42697 -0.155771 0.0499099)
(9.53887 -0.167205 0.0025918)
(9.62056 -0.0641585 -0.0354068)
(9.51105 0.085587 -0.0785327)
(9.61724 0.100276 -0.0553685)
(9.7074 0.0722689 -0.0261291)
(9.68122 0.0301428 0.00315765)
(9.69045 0.0483923 0.067069)
(9.66171 0.0633805 -0.0180655)
(9.50508 0.0619976 -0.0903978)
(9.62131 0.108278 0.0231325)
(9.39423 0.0763633 0.138781)
(9.49449 -0.0843219 0.109588)
(9.66407 -0.206692 0.0333802)
(9.78065 -0.054595 -0.0722387)
(9.77417 -0.0198898 -0.0536604)
(9.6236 -0.00658442 0.0741483)
(9.66398 -0.0534015 -0.022523)
(9.78953 -0.0532362 -0.0709186)
(9.77987 0.0279851 0.0189049)
(9.57795 0.0634234 0.130455)
(9.63768 0.0149196 -0.0321264)
(9.79361 -0.0875288 -0.191207)
(9.81338 -0.110922 -0.110888)
(9.68835 -0.0419171 0.0488812)
(9.48073 0.16078 0.167406)
(9.62049 0.160971 0.0603469)
(9.80987 -0.0129562 -0.132222)
(9.90963 -0.0241762 -0.0273581)
)
;

boundaryField
{
    wall
    {
        type            fixedValue;
        value           uniform (0 0 0);
    }
    outlet
    {
        type            cyclic;
    }
    inlet
    {
        type            cyclic;
    }
    procBoundary3to2
    {
        type            processor;
        value           nonuniform List<vector> 
256
(
(8.60734 -0.10791 -0.0854091)
(8.91533 0.0548647 0.0293209)
(9.34538 0.128737 0.102038)
(9.24802 0.113486 0.0479666)
(8.46583 0.0382762 -0.280073)
(7.9709 -0.0854576 -0.26193)
(7.72043 -0.116021 0.0349489)
(8.42493 0.00410997 -0.0512139)
(8.65547 0.0220968 -0.19419)
(8.75577 0.0135031 -0.109492)
(8.71106 0.0291886 -0.013032)
(8.76982 0.00343787 -0.0849314)
(8.91917 -0.0160493 -0.115095)
(8.55591 0.0522443 -0.000517893)
(8.72431 0.0332645 0.130864)
(8.96699 -0.0340238 0.109782)
(8.88335 -0.0111102 0.0285366)
(8.95191 0.0769365 0.0453193)
(8.8192 0.0437592 0.137227)
(8.35728 -0.0630711 0.199072)
(8.56863 -0.0643246 0.0207587)
(8.76617 -0.00178967 -0.14334)
(9.01655 0.0611553 -0.194041)
(9.14495 0.0681223 -0.0927092)
(9.00836 0.0408292 -0.0221955)
(8.98817 -0.0201982 0.0143163)
(8.86732 -0.04173 0.0683145)
(8.40612 -0.12725 0.144468)
(8.73312 -0.0214268 0.17005)
(8.80545 0.131692 0.198858)
(9.13568 -0.0265244 0.159854)
(8.90729 -0.183274 -0.0156917)
(8.77002 0.0834303 -0.0117959)
(9.20341 0.243037 0.0871286)
(9.46266 0.0975546 0.121255)
(9.35352 -0.0094797 0.0747982)
(8.58945 0.000101414 -0.170289)
(7.86301 -0.0387458 -0.32282)
(8.1338 -0.0952815 -0.181513)
(8.67404 -0.0410739 -0.0189328)
(8.74397 0.0380754 -0.0385948)
(8.82144 -0.0280889 -0.0170786)
(8.85233 -0.0462354 0.0597667)
(8.88175 -0.0470992 -0.00901874)
(9.13615 -0.128296 -0.0958019)
(9.11506 -0.0191735 -0.0538919)
(8.73413 0.0435396 0.10756)
(8.70251 -0.0677606 0.165132)
(9.1479 0.0272193 0.0249895)
(9.27727 0.0721936 0.0389257)
(8.86997 0.0470183 0.151668)
(8.67024 -0.0423649 0.0433408)
(8.73031 -0.0516466 -0.0353074)
(8.55785 -0.00342568 -0.0722918)
(9.11828 0.0363031 -0.0939347)
(9.19846 0.103072 -0.0836199)
(9.0374 0.134595 -0.0747232)
(8.99145 0.0423928 -0.0341612)
(8.80543 -0.0469909 0.0296165)
(8.73125 -0.0359746 0.0853795)
(8.97037 0.0376829 0.0848162)
(9.0917 0.0994622 0.0334872)
(9.13636 -0.10347 0.125154)
(9.04894 -0.18806 0.0547748)
(9.35628 0.202237 -0.0104051)
(9.09684 0.133209 0.102851)
(8.72189 -0.185238 0.144256)
(9.09783 -0.263609 0.0219672)
(8.82221 -0.152139 -0.137545)
(8.11135 0.0645139 -0.271057)
(7.80722 0.0805703 -0.122771)
(8.59155 -0.0180496 -0.122185)
(8.92374 0.00348336 -0.149233)
(8.51614 -0.154677 -0.0287375)
(8.78134 -0.220416 0.0688587)
(9.02966 -0.0550036 0.0436435)
(8.91605 0.0231167 0.00847664)
(8.93343 0.0305892 0.0140326)
(9.00798 0.016214 0.0339897)
(8.8363 0.0344175 -0.0484994)
(9.0207 0.0397004 -0.0824368)
(9.09493 -0.0761151 -0.0803567)
(8.53776 -0.137518 0.0351459)
(8.64697 0.0138993 0.11989)
(8.80091 0.0605349 0.076568)
(8.5919 0.144525 0.0144994)
(9.05449 0.100748 0.0630206)
(9.23079 0.0721407 0.107731)
(9.13081 0.0758705 0.03285)
(8.92006 0.0659038 -0.143014)
(8.47973 -0.0180772 -0.174786)
(8.7298 -0.00327631 0.0180435)
(8.93294 0.025634 0.0270672)
(8.64097 -0.064882 0.0703467)
(8.95871 -0.0395137 0.244514)
(9.32524 0.146412 0.0418341)
(9.09846 0.0329828 -0.0953447)
(8.8978 -0.0895413 0.0163639)
(9.16033 -0.124516 0.125249)
(9.33961 -0.189816 0.0719113)
(8.87765 -0.259667 -0.0842948)
(8.42244 -0.159632 -0.154238)
(7.87205 -0.0577046 -0.163329)
(7.98628 0.150909 -0.115998)
(8.5769 0.0353664 0.0474)
(8.8019 -0.148335 0.0890009)
(8.62809 -0.137747 0.0638522)
(8.57904 0.0690606 0.0637406)
(8.92323 0.230464 0.107661)
(9.00704 0.172415 0.0798454)
(8.80916 0.0426061 -0.0328055)
(8.80293 -0.0065634 -0.066795)
(8.91702 -0.0215285 0.0209985)
(9.10918 -0.122012 0.0591191)
(8.90157 -0.110797 0.0479397)
(8.54114 -0.0988735 0.105195)
(8.49455 0.0626384 0.00209108)
(9.03827 0.218982 -0.0765892)
(9.1272 0.168034 0.0242829)
(8.93339 0.0377313 0.158938)
(8.93103 -0.0121211 0.0281418)
(8.93615 -0.0254852 -0.158696)
(8.96866 -0.0718161 -0.119798)
(8.78681 0.0269421 0.0351431)
(8.67837 0.17599 0.0456499)
(8.76612 0.0616763 -0.0317316)
(9.20025 -0.00686349 -0.0267106)
(9.403 0.023502 -0.0463374)
(9.02447 -0.133178 -0.0445233)
(9.05306 0.174287 -0.0527361)
(9.05849 0.148057 0.0607242)
(8.8953 -0.140413 0.21521)
(8.63491 -0.253475 0.00705635)
(8.7257 -0.293098 -0.088117)
(8.58788 -0.0662357 -0.0830653)
(8.22186 0.140104 -0.0628362)
(8.47099 0.174616 -0.0540861)
(8.72401 0.129824 0.021026)
(8.50365 0.0814215 0.182659)
(9.01612 0.0669969 0.156146)
(9.03374 0.0548149 0.0540305)
(8.38328 -0.0559225 0.00786269)
(8.63396 -0.0679605 -0.106579)
(8.7961 -0.0119924 -0.031246)
(8.9184 -0.0349875 0.119587)
(8.91232 -0.0608097 0.00372776)
(8.51102 -0.0820671 -0.0843949)
(8.4627 -0.0468912 -0.0144007)
(8.47937 0.0713338 -0.0334889)
(9.05191 0.100183 -0.0556511)
(9.06304 0.0123912 -0.0555432)
(8.85122 -0.180062 0.0710415)
(8.92517 -0.0565815 0.0286402)
(9.02506 0.000735457 -0.0883727)
(9.09004 -0.0818825 -0.0841591)
(8.91299 0.184716 -0.0656463)
(9.03309 0.301926 0.0928153)
(9.02964 0.158669 0.0972333)
(9.02157 -0.0467274 -0.094288)
(9.18392 -0.197681 -0.0788029)
(9.43886 0.112873 -0.110344)
(9.16717 0.154662 -0.138202)
(8.49636 0.124964 -0.0373554)
(8.63783 -0.219376 0.105137)
(8.98503 -0.216179 0.121493)
(8.98897 -0.149183 0.116697)
(8.62587 -0.0541673 -0.00672339)
(8.35083 0.0182638 -0.0418505)
(8.01057 0.140613 -0.0462294)
(8.57395 0.167233 0.00383809)
(8.96051 0.104568 0.0867074)
(9.11356 0.188047 0.101083)
(8.88265 0.102065 0.00969577)
(8.72555 -0.155946 0.0253676)
(8.88671 -0.108154 0.0199614)
(8.88959 -0.0273888 -0.00177337)
(8.96734 -0.00197244 0.0694609)
(8.85022 0.0561892 0.0273484)
(8.49457 0.0731714 0.0249335)
(8.73157 0.0233153 0.036096)
(8.78265 -0.0913419 0.0373015)
(9.05178 -0.0790864 0.047449)
(9.1017 -0.166422 -0.00617353)
(8.94525 -0.224844 -0.0820146)
(9.10352 -0.111601 -0.156221)
(9.17479 -0.0677927 0.0221282)
(9.11761 0.00519196 0.129269)
(9.06131 0.115322 0.0465438)
(8.81409 0.14506 -0.159469)
(8.61897 -0.00735216 -0.12384)
(8.82808 0.023969 -0.00775648)
(9.19886 0.0412933 -0.00982243)
(9.43085 0.171624 -0.134867)
(9.04397 0.105051 -0.172513)
(8.31708 -0.0335879 -0.0843203)
(8.27389 -0.108551 0.0105599)
(8.88048 -0.128812 0.145979)
(9.11153 -0.131911 0.177205)
(8.75527 -0.136538 -0.0640495)
(8.74286 -0.163302 -0.106161)
(8.62069 -0.102436 -0.00697154)
(8.53363 0.108668 0.0593283)
(8.8848 0.136413 0.121706)
(9.1974 0.194238 0.173297)
(8.88453 0.190189 0.138586)
(8.12658 0.0542049 -0.114892)
(8.07273 -0.0346871 -0.208133)
(8.3935 -0.127309 -0.118652)
(8.74723 -0.0947105 -0.17236)
(8.86963 0.07149 -0.0488424)
(8.78632 0.0667207 0.0910606)
(8.96078 -0.0874738 0.171703)
(9.15391 -0.0318906 0.140998)
(8.92721 -0.0606322 0.0903484)
(8.84596 -0.181397 -0.00481209)
(9.11573 -0.0231077 -0.0189057)
(8.9574 -0.0272598 0.0365998)
(8.97402 -0.0441394 0.207048)
(9.0283 0.00189784 0.124269)
(8.87414 -0.0113819 0.0215143)
(8.55586 -0.107531 -0.195742)
(8.72646 0.13232 -0.170609)
(8.82042 0.204519 -0.0474877)
(9.16989 0.160031 -0.0229002)
(9.38206 0.074635 -0.0704734)
(8.96439 0.0762542 -0.167161)
(8.12857 0.012173 -0.178063)
(8.54812 0.044483 -0.128599)
(8.66152 -0.0162902 -0.05194)
(8.74467 -0.133429 0.00569643)
(8.7792 -0.12182 -0.0490089)
(8.74655 -0.130552 0.00275541)
(8.5914 -0.0673165 0.128417)
(8.63645 0.0670695 0.191675)
(8.86608 0.10417 0.193175)
(9.04413 0.0798286 0.205186)
(8.76611 0.0355462 0.111595)
(8.35129 0.101473 -0.0108319)
(8.55988 0.0495817 -0.0692525)
(8.68828 -0.0577659 -0.19682)
(8.96042 -0.0710238 -0.328672)
(8.8048 -0.00635861 -0.108077)
(8.66228 -0.0457903 0.174728)
(8.94985 -0.0870256 0.10845)
(9.10042 0.0363118 0.0649008)
(9.03841 0.0506968 0.0986194)
(8.84446 -0.00709004 0.0931664)
(8.88092 0.025224 -0.0443877)
(8.88262 0.0378687 0.0527718)
(8.88081 0.00841501 0.289243)
(8.96603 -0.010183 0.140143)
(8.592 -0.0493706 -0.0845664)
(8.7849 -0.0493108 -0.212592)
(8.89975 0.0443179 -0.129426)
(8.6679 0.0730183 -0.0637861)
(9.08917 0.0445226 -0.0479801)
)
;
    }
}


// ************************************************************************* //
