/*--------------------------------*- C++ -*----------------------------------*\
| =========                 |                                                 |
| \\      /  F ield         | OpenFOAM: The Open Source CFD Toolbox           |
|  \\    /   O peration     | Version:  2506                                  |
|   \\  /    A nd           | Website:  www.openfoam.com                      |
|    \\/     M anipulation  |                                                 |
\*---------------------------------------------------------------------------*/
FoamFile
{
    version     2.0;
    format      ascii;
    arch        "LSB;label=32;scalar=64";
    class       volVectorField;
    location    "0.005";
    object      Us;
}
// * * * * * * * * * * * * * * * * * * * * * * * * * * * * * * * * * * * * * //

dimensions      [0 1 -1 0 0 0 0];

internalField   nonuniform List<vector> 
512
(
(0 0 0)
(0 0 0)
(0.102312 -7.57409e-06 -0.0776496)
(0 0 0)
(0 0 0)
(0 0 0)
(0 0 0)
(0 0 0)
(0 0 0)
(0 0 0)
(0 0 0)
(0 0 0)
(0 0 0)
(0 0 0)
(0 0 0)
(0 0 0)
(0 0 0)
(0 0 0)
(0 0 0)
(0 0 0)
(0 0 0)
(0 0 0)
(0 0 0)
(0 0 0)
(0 0 0)
(0 0 0)
(0 0 0)
(0 0 0)
(0 0 0)
(0 0 0)
(0 0 0)
(0 0 0)
(0 0 0)
(0 0 0)
(0 0 0)
(0 0 0)
(0 0 0)
(0 0 0)
(0 0 0)
(0 0 0)
(0 0 0)
(0 0 0)
(0 0 0)
(0 0 0)
(0 0 0)
(0.2056 0.000545247 -0.131176)
(0 0 0)
(0 0 0)
(0 0 0)
(0 0 0)
(0 0 0)
(0 0 0)
(0 0 0)
(0 0 0)
(0 0 0)
(0 0 0)
(0 0 0)
(0 0 0)
(0 0 0)
(0 0 0)
(0 0 0)
(0 0 0)
(0 0 0)
(0 0 0)
(0 0 0)
(0 0 0)
(0.21466 -0.00110935 -0.120495)
(0 0 0)
(0 0 0)
(0.203839 -0.00115117 -0.189456)
(0 0 0)
(0 0 0)
(0 0 0)
(0 0 0)
(0 0 0)
(0 0 0)
(0 0 0)
(0 0 0)
(0 0 0)
(0 0 0)
(0 0 0)
(0.207777 -0.00059743 -0.119267)
(0 0 0)
(0 0 0)
(0 0 0)
(0 0 0)
(0 0 0)
(0 0 0)
(0 0 0)
(0 0 0)
(0 0 0)
(0 0 0)
(0 0 0)
(0 0 0)
(0 0 0)
(0 0 0)
(0 0 0)
(0 0 0)
(0 0 0)
(0 0 0)
(0 0 0)
(0 0 0)
(0 0 0)
(0 0 0)
(0 0 0)
(0.204961 0.000218195 -0.181983)
(0 0 0)
(0 0 0)
(0 0 0)
(0 0 0)
(0 0 0)
(0 0 0)
(0 0 0)
(0 0 0)
(0 0 0)
(0 0 0)
(0 0 0)
(0 0 0)
(0 0 0)
(0 0 0)
(0 0 0)
(0.208484 0.000112829 -0.182173)
(0 0 0)
(0 0 0)
(0 0 0)
(0.211669 0.00132602 -0.0714031)
(0 0 0)
(0 0 0)
(0 0 0)
(0 0 0)
(0 0 0)
(0 0 0)
(0.206735 -0.00221773 -0.139727)
(0 0 0)
(0 0 0)
(0 0 0)
(0 0 0)
(0 0 0)
(0 0 0)
(0 0 0)
(0 0 0)
(0 0 0)
(0 0 0)
(0 0 0)
(0 0 0)
(0.205321 3.6428e-05 -0.0381853)
(0.209231 -7.73785e-05 -0.0680946)
(0 0 0)
(0 0 0)
(0 0 0)
(0.210824 -0.00176947 -0.165807)
(0 0 0)
(0 0 0)
(0 0 0)
(0 0 0)
(0 0 0)
(0 0 0)
(0 0 0)
(0 0 0)
(0 0 0)
(0 0 0)
(0 0 0)
(0.213332 -0.000583601 -0.0481847)
(0 0 0)
(0 0 0)
(0 0 0)
(0.20558 -0.00130013 -0.153379)
(0 0 0)
(0.205816 0.0015032 -0.203993)
(0 0 0)
(0 0 0)
(0 0 0)
(0 0 0)
(0 0 0)
(0 0 0)
(0 0 0)
(0 0 0)
(0 0 0)
(0 0 0)
(0 0 0)
(0 0 0)
(0 0 0)
(0 0 0)
(0 0 0)
(0.212987 -0.000968583 -0.119725)
(0 0 0)
(0 0 0)
(0 0 0)
(0 0 0)
(0 0 0)
(0 0 0)
(0 0 0)
(0 0 0)
(0 0 0)
(0 0 0)
(0 0 0)
(0 0 0)
(0 0 0)
(0 0 0)
(0 0 0)
(0 0 0)
(0 0 0)
(0 0 0)
(0 0 0)
(0 0 0)
(0 0 0)
(0.201555 -0.00085652 -0.0896422)
(0 0 0)
(0 0 0)
(0 0 0)
(0 0 0)
(0 0 0)
(0 0 0)
(0 0 0)
(0 0 0)
(0 0 0)
(0 0 0)
(0 0 0)
(0 0 0)
(0 0 0)
(0 0 0)
(0 0 0)
(0 0 0)
(0 0 0)
(0 0 0)
(0 0 0)
(0 0 0)
(0.196755 -0.00169534 -0.196413)
(0 0 0)
(0 0 0)
(0 0 0)
(0 0 0)
(0 0 0)
(0 0 0)
(0 0 0)
(0 0 0)
(0 0 0)
(0 0 0)
(0 0 0)
(0 0 0)
(0 0 0)
(0 0 0)
(0 0 0)
(0 0 0)
(0 0 0)
(0 0 0)
(0 0 0)
(0 0 0)
(0 0 0)
(0 0 0)
(0 0 0)
(0 0 0)
(0.102257 0.000280517 -0.126513)
(0 0 0)
(0 0 0)
(0 0 0)
(0.0174254 -2.71222e-05 0.171876)
(0.0759117 -0.000179446 0.0756686)
(0.0890351 -0.0017814 0.0697529)
(0.181758 -0.0043682 0.179475)
(0.0257678 2.34818e-05 -0.00767353)
(0.112636 -0.000174874 0.103805)
(-0.0298408 0.00427688 0.0634228)
(0.0594918 -0.0263636 0.0231284)
(0.125944 -0.00181111 0.0724579)
(0.0561245 0.000307153 0.142749)
(0.102 5.22827e-05 0.149579)
(0.0991284 0.000105874 0.0644916)
(0.0319049 0.000176097 0.0389592)
(0.0904544 0.000142776 0.0868285)
(0.107507 -0.000416396 -0.0169698)
(0.0812378 -0.000308523 0.0674517)
(0.0482915 0.000546962 -0.0195125)
(0.118843 8.33766e-05 0.15811)
(0.032658 7.18332e-05 0.116679)
(0.0655322 5.26676e-05 0.0077081)
(0.122386 0.000270477 -0.0191659)
(0.0936533 0.000511235 0.114935)
(0.0724554 0.000475257 -0.0264575)
(0.00425714 4.49531e-05 4.00506e-07)
(0.0500564 -0.000272634 0.0845259)
(0.0997435 -0.000729006 0.00191494)
(0.106949 -0.044564 0.0681195)
(0.0501363 0.000446277 0.246612)
(0.107852 0.000396315 0.102381)
(0.104886 5.4156e-07 0.0669601)
(0.0124083 8.31624e-05 0.0432689)
(0.0542268 0.0011276 0.134353)
(0.0639831 -0.0345212 -0.0329265)
(0.146672 -0.00405882 0.0943967)
(0.0664442 -0.000195072 0.0394114)
(0.134259 4.39735e-05 0.114316)
(0.0733095 -6.86654e-06 0.0714641)
(0.159929 -0.000658647 0.0963032)
(0.167058 -0.00141858 0.0737655)
(0.070058 -0.00217931 -0.031682)
(0.064571 -0.00955 0.147178)
(0.053095 0.000210562 0.0239592)
(0.00731913 -7.7359e-05 -0.0167426)
(0.137714 -5.17813e-05 0.127744)
(0.124764 0.000442378 0.000261659)
(0.0894599 0.000329582 0.119362)
(0.100547 -0.000466288 0.110036)
(0.0656706 -0.000566007 0.0325599)
(0.0966992 -0.00173078 -0.00856623)
(0.082644 -0.0253733 0.0491219)
(0.130012 -0.00469669 0.0659755)
(0.150751 -0.0780242 0.062196)
(0.0746581 0.000185986 0.00444999)
(0.156694 0.00095199 0.141467)
(0.108459 0.0013097 0.056406)
(0.210114 0.00147909 0.060775)
(0.148178 -9.34856e-05 -0.0266247)
(0.0795888 -0.0053059 -0.0223145)
(-0.00649313 0.0168117 -0.0104304)
(0.140578 0.000951262 0.14395)
(0.139226 0.000699203 0.104419)
(0.109265 -4.22014e-05 0.20788)
(0.0895008 0.000123357 0.00548342)
(0.13764 0.000327596 0.0586202)
(0.145062 -0.000421199 0.22248)
(0.153131 -0.000625293 0.0815117)
(0.209431 -0.000722983 0.051337)
(0.0814071 -0.0197769 -0.0194219)
(0.207454 -0.000746894 -0.133654)
(0.192942 -0.00128724 -0.0264441)
(0.0985075 -0.000510788 0.0709412)
(0.0413456 0.04103 0.0121208)
(0.0548534 0.000183085 0.172988)
(0.175692 -6.89127e-05 0.107226)
(0.0690047 0.0337674 -0.0117262)
(0.0616297 0.000207048 -0.0250831)
(0.141202 0.000556607 0.076991)
(0.229075 -0.017776 0.00111106)
(0.140178 -0.000474886 -0.00228383)
(0.102834 0.00515609 0.0334515)
(0.206559 -0.000687611 -0.114289)
(0.0752679 0.0518058 0.035506)
(0.0599228 -7.70918e-06 0.11606)
(0.0407746 -3.76193e-05 -0.00718557)
(0.158793 0.000691635 0.0804727)
(0.227216 -0.135216 -0.0018438)
(0.105123 0.00104044 0.133526)
(0.19909 0.00106896 0.107546)
(0.0668248 -0.00906066 0.107055)
(0.162577 -0.000605384 0.0332518)
(0.140549 -0.000422674 0.0811887)
(0.17208 0.000567687 0.113869)
(0.336388 0.0497473 0.00249938)
(0.00744306 0.000181964 0.0749721)
(0.175629 0.000919107 0.054533)
(0.214335 0.000677994 -0.0684876)
(0.102444 0.390239 0.156875)
(0.215455 -0.000625479 -0.123943)
(0.0811809 -0.000367959 0.0399246)
(0.111926 -0.000599252 -0.0422121)
(0.0893702 0.000540947 0.0155484)
(0.130003 -0.000561718 0.102744)
(0.15061 -0.000314064 0.133438)
(0.107044 -1.96095e-05 0.0442872)
(0.0692499 0.00026248 0.0749337)
(0.188518 0.000190762 0.00137021)
(0.00701825 9.65265e-05 0.022721)
(0.15521 -0.00343169 0.00285541)
(0.0614586 0.000253449 -0.0350108)
(0.0350549 1.49238e-05 0.315303)
(0.0937118 3.82291e-05 0.0642781)
(0.072033 0.0207592 0.0539641)
(0.0367473 -0.123548 -0.00947621)
(0.190407 -0.000626748 -0.0206729)
(0.0942897 -0.000429451 0.039579)
(0.123812 0.0082225 0.0315395)
(0.0773225 0.000411663 0.0195044)
(0.191747 0.000852364 0.119629)
(0.0804545 -0.00020757 0.105425)
(0.0398943 -0.000306141 0.318575)
(0.0693078 -0.0391792 0.168583)
(0.099412 0.00366995 -0.0167304)
(0.0419859 0.00293461 0.0985125)
(0.114451 -0.0160361 0.0630823)
(0.0938006 0.000592914 0.0781069)
(0.110632 0.000881026 0.0177496)
(0.175438 0.000719636 0.125948)
(0.211329 -0.00065659 0.204965)
(0.0657189 0.000197097 0.0873941)
(0.0858233 0.000272012 0.0196013)
(0.0998819 0.000315119 0.0949744)
(0.101804 -0.000959348 0.0471374)
(0.114242 -0.00119669 0.0135895)
(0.121786 -0.000854632 0.0886132)
(0.127185 -0.000435936 0.0915127)
(0.173488 -0.000155192 0.00550955)
(0.0967273 0.000324085 0.027647)
(0.174718 0.00082201 0.0363514)
(0.127988 0.0232168 0.0358766)
(0.0262987 -0.00632778 0.0968622)
(0.0754538 -2.24208e-05 0.170578)
(0.202643 -0.0001505 -0.0912487)
(0.0871895 -0.0107513 0.0462422)
(0.113757 8.32078e-05 0.150831)
(0.0552455 0.000261469 0.0190737)
(0.0985369 7.95931e-05 0.0387576)
(0.208658 -0.000307869 0.0150972)
(0.109127 0.000140774 0.0782411)
(0.079908 -0.0454215 0.0407601)
(0.106828 -0.0275322 0.0329977)
(0.210717 -0.00123277 -0.102804)
(0.0999361 0.0105172 0.00320866)
(0.1022 -8.35832e-05 0.112655)
(0.0630798 0.0129634 0.0433413)
(0.129404 0.00747482 0.0624981)
(0.0964264 0.000598967 -0.0167884)
(0.0457824 -6.13479e-05 0.143447)
(0.161735 0.000246712 0.143189)
(0.0729952 3.51364e-05 0.326662)
(0.154603 -8.78964e-06 0.0290555)
(0.146975 0.000813088 0.0338051)
(-0.0130963 -0.0490058 -0.0137895)
(0.158703 -0.0021274 0.00893941)
(0.0634629 -0.000245208 0.123136)
(0.205098 -0.0014295 -0.0303786)
(0.116782 -0.00092305 0.0277298)
(0.134321 -0.00069798 0.164732)
(0.0839101 -0.026021 0.119946)
(0.0652726 0.000441358 0.0327709)
(0.203809 0.00186269 -0.00271832)
(0.0387021 0.00056958 -0.0235756)
(0.0106933 0.000100397 0.181488)
(0.129648 0.000245827 0.0638165)
(0.154647 -0.000327951 -0.0281315)
(0.161343 -0.000705415 0.0968189)
(0.157301 -0.00104141 -0.0244638)
(0.195801 0.0759732 0.0290391)
(-0.0104333 -0.00810775 0.0340957)
(0.142398 0.0012073 -0.079888)
(0.103911 0.000363052 0.13879)
(-0.00833921 0.0550086 0.175502)
(0 0 0)
(0.0688376 -0.00084812 0.117169)
(0.183118 -0.00144605 0.141059)
(0.164507 -0.000876541 0.0608946)
(0.0762482 -0.0541523 0.162965)
(0 0 0)
(0.103873 0.00032298 0.131594)
(0.129433 -0.0177092 0.0630155)
(0.0182253 -0.0277588 0.0229767)
(0.195204 0.000542219 0.130697)
(0.170431 0.00137995 -0.0350012)
(0.072873 0.000477152 0.0562755)
(0.210756 0.000201422 -0.0951395)
(0.105325 -0.00577125 0.115193)
(0.150904 0.0188224 0.00747225)
(0.107506 -0.000856061 0.00597606)
(0.0764826 -0.000274165 -0.00692444)
(0.128645 -6.45978e-05 0.222169)
(0.0821946 0.000313431 0.051814)
(0.104338 0.000556495 0.220014)
(0.143445 0.00085513 0.0146845)
(0.140563 0.00156424 -0.01863)
(0.0365443 -0.0394274 0.0578409)
(0.0591804 0.000439634 0.0654025)
(0.135061 0.000246922 -0.0469184)
(0.0923416 -0.000694913 0.0491354)
(0.149288 -0.0020355 0.0296406)
(0.154704 -0.00166504 -0.0247776)
(0.130767 0.000213151 0.090583)
(0.0517058 0.000770788 0.0406482)
(0.133081 0.000517676 0.175137)
(0.0121424 -0.000335401 -0.0131681)
(0.11271 -0.00075392 -0.00701608)
(0.168884 -0.000526438 -0.0184378)
(0.119339 -0.000238183 0.0976141)
(0.0394144 -0.0151745 0.107357)
(0.158686 -0.0128826 0.0743072)
(0.155878 0.0111002 0.263124)
(0.0463165 0.000156795 0.149356)
(0 0 0)
(0.0797603 -0.000634722 0.0599914)
(0.0436727 2.61503e-05 0.0610344)
(0.0174496 -0.150563 0.0320016)
(0.0226512 -0.146623 -6.41443e-08)
(0.0189043 -0.00347229 0.16306)
(0.0359817 0.0334269 0.0578392)
(0.111954 -0.00114887 0.127118)
(0.0725884 -0.000505178 -0.00975659)
(0.0663792 -0.00016611 0.0548444)
(0.194315 -4.17841e-05 -0.0319312)
(0.00990227 -0.00880792 9.26549e-05)
(0.0713436 -0.0155746 0.0268269)
(0.192817 0.0397965 0.0423707)
(0.00452383 0.000132205 -0.0292181)
(0.078882 0.000646598 0.110995)
(0.0941862 0.000651156 0.00244082)
(0.13906 0.0514446 0.0900887)
(0.117243 -0.000281291 -0.0369417)
(0.0884885 -0.00114896 0.0697602)
(0.064906 -0.000539471 0.208533)
(0.0345867 8.24249e-06 0.0988492)
(0.0189981 1.77349e-05 0.355706)
(0.122909 0.0667409 -0.0647226)
(0.0784186 -0.000252419 0.00915923)
(0.0563833 0.0657969 0.0246264)
(0.0710309 0.000107971 0.0435206)
(0.0728795 0.00741513 -0.0416654)
(0.121095 -0.000298047 0.23836)
(0.0729206 -0.0121965 0.0233872)
(0.0164386 0.00193869 0.0112049)
(0.100678 -0.000395947 0.00842291)
(0.123616 0.00113063 0.238089)
(0.069561 0.000227154 -0.043941)
(0.152724 0.0493187 0.0181259)
(0.0149771 -0.00741746 -0.052601)
)
;

boundaryField
{
    wall
    {
        type            zeroGradient;
    }
    outlet
    {
        type            cyclic;
    }
    inlet
    {
        type            cyclic;
    }
    procBoundary3to2
    {
        type            processor;
        value           uniform (0 0 0);
    }
}


// ************************************************************************* //
