FoamFile
{version 2.0; format ascii;class Cloud<passiveParticle>; location 0;object  positions;}
2497
(
( -0.0023517 0.000119565 0.00186139 ) 0 
( -0.012348 0.000647949 0.00320543 ) 0 
( -0.0123502 0.000399731 0.00223702 ) 0 
( -0.00875254 0.000190178 0.00562487 ) 0 
( -0.00849037 8.79328e-05 0.00371311 ) 0 
( -0.00220865 0.000641405 0.00761713 ) 0 
( -0.00319365 0.000165456 0.00132542 ) 0 
( -0.0119622 0.000115523 0.00136107 ) 0 
( -0.00428123 0.000128302 0.00600548 ) 0 
( -0.000294214 9.72222e-05 0.00286883 ) 0 
( -0.0110736 9.19902e-05 0.00644304 ) 0 
( -0.013344 0.000416535 0.00213297 ) 0 
( -0.0058703 0.000177596 0.00338933 ) 0 
( -0.00375275 0.000122 0.000498126 ) 0 
( -0.00832112 0.000278124 0.00272332 ) 0 
( -0.00524852 0.000406961 0.00810886 ) 0 
( -0.009388 2.30448e-05 0.0129789 ) 0 
( -0.00485848 1.06425e-05 0.0128793 ) 0 
( -0.0110868 0.00151971 0.0141657 ) 0 
( -0.0112536 0.00327046 0.0149764 ) 0 
( -0.007755 0.000633148 0.0142164 ) 0 
( -0.0066845 0.000214614 0.0145021 ) 0 
( -0.000892976 0.000118038 0.0106592 ) 0 
( -0.0069106 4.2583e-05 0.0130912 ) 0 
( -0.0127338 0.000250166 0.0120522 ) 0 
( -0.0108608 0.000565818 0.0139692 ) 0 
( -0.00826941 0.000493456 0.012893 ) 0 
( -0.00593853 0.000271958 0.0131337 ) 0 
( -0.00234297 6.95663e-05 0.0115583 ) 0 
( -0.00283576 6.36569e-06 0.0089933 ) 0 
( -0.00911508 0.000992078 0.00162295 ) 0 
( -0.00114008 0.00974779 0.00123891 ) 0 
( -0.00616919 0.00410576 0.00402242 ) 0 
( -0.00541037 0.00376414 0.00698153 ) 0 
( -0.00202297 0.00569251 0.00324632 ) 0 
( -0.000618173 0.0116305 0.0075026 ) 0 
( -0.00112682 0.0120331 0.00154732 ) 0 
( -0.0125092 0.00187939 0.00144123 ) 0 
( -0.006507 0.00614775 0.00475743 ) 0 
( -0.00263961 0.0109412 0.00732809 ) 0 
( -0.012056 0.00260117 0.000499436 ) 0 
( -0.00344652 0.00876471 0.00453839 ) 0 
( -0.00998829 0.0026202 0.000499465 ) 0 
( -0.00983308 0.00765082 0.000498886 ) 0 
( -0.0105127 0.00658095 0.00290762 ) 0 
( -0.00728077 0.00430583 0.002113 ) 0 
( -0.00428366 0.00553687 0.00335773 ) 0 
( -0.00328503 0.00544158 0.00324978 ) 0 
( -0.0108909 0.00563233 0.00118935 ) 0 
( -0.0121026 0.000964846 0.0059107 ) 0 
( -0.00756237 0.00631471 0.00621498 ) 0 
( -0.00257089 0.00165618 0.00546327 ) 0 
( -0.00390792 0.00886109 0.00541963 ) 0 
( -0.00525402 0.00439382 0.00488244 ) 0 
( -0.00548681 0.00603001 0.00217828 ) 0 
( -0.00672566 0.00932724 0.000499106 ) 0 
( -0.000372443 0.00523606 0.00437203 ) 0 
( -0.0110966 0.00311427 0.000499794 ) 0 
( -0.00108335 0.0105188 0.00322702 ) 0 
( -0.00859282 0.00921837 0.00577075 ) 0 
( -0.000685798 0.00733233 0.00538221 ) 0 
( -0.00634917 0.000460373 0.0020375 ) 0 
( -0.00533129 0.00934357 0.00200554 ) 0 
( -0.0123118 0.0051629 0.00475237 ) 0 
( -0.00166701 0.00499013 0.00124031 ) 0 
( -0.000910763 0.00356296 0.00336605 ) 0 
( -0.0126536 0.00425642 0.000499502 ) 0 
( -0.000865167 0.00780533 0.00380814 ) 0 
( -0.00693158 0.00974306 0.00238251 ) 0 
( -0.00550754 0.00223033 0.00734973 ) 0 
( -0.00335812 0.00945027 0.00601162 ) 0 
( -0.00172195 0.00779401 0.0066632 ) 0 
( -0.01045 0.0031971 0.00228287 ) 0 
( -0.00364827 0.00615844 0.00499288 ) 0 
( -0.00112842 0.00437205 0.00671669 ) 0 
( -0.00134248 0.00946095 0.00330965 ) 0 
( -0.0110809 0.00466243 0.0034216 ) 0 
( -0.00314549 0.00872934 0.000499408 ) 0 
( -0.000569223 0.0126849 0.00387946 ) 0 
( -0.0106288 0.00159881 0.00135381 ) 0 
( -0.0084412 0.00375297 0.00380376 ) 0 
( -0.00896639 0.00802984 0.00566382 ) 0 
( -0.00504828 0.00307653 0.000947901 ) 0 
( -0.00201892 0.00442098 0.00049844 ) 0 
( -0.00164848 0.0104493 0.00404753 ) 0 
( -0.00297019 0.00234434 0.00485832 ) 0 
( -0.00945624 0.00033326 0.00427093 ) 0 
( -0.00376405 0.0103525 0.00586833 ) 0 
( -0.0032356 0.0120406 0.00683977 ) 0 
( -0.00698308 0.00325172 0.00499347 ) 0 
( -0.00800226 0.00457765 0.003452 ) 0 
( -0.00324258 0.00553992 0.00567024 ) 0 
( -0.0100406 0.00724078 0.00138531 ) 0 
( -0.00164797 0.00132036 0.00294435 ) 0 
( -0.00574048 0.00712332 0.00337122 ) 0 
( -0.0010485 0.00802326 0.0021715 ) 0 
( -0.00580458 0.00138674 0.0068831 ) 0 
( -0.00262095 0.00110609 0.00683512 ) 0 
( -0.000625249 0.00501598 0.00332465 ) 0 
( -0.00385671 0.00978748 0.00504976 ) 0 
( -0.00724555 0.0100251 0.00136598 ) 0 
( -0.00430799 0.0106978 0.00216272 ) 0 
( -0.00533443 0.00835811 0.00496262 ) 0 
( -0.00596452 0.0104372 0.00641318 ) 0 
( -0.0119523 0.00483727 0.00387856 ) 0 
( -0.00498425 0.00285974 0.00192081 ) 0 
( -0.00185501 0.0108075 0.00637114 ) 0 
( -0.00215084 0.00446483 0.00455595 ) 0 
( -0.0055699 0.000593944 0.00141665 ) 0 
( -0.00221027 0.000788226 0.00580352 ) 0 
( -0.00967198 0.00397099 0.00499453 ) 0 
( -0.0104257 0.00309356 0.00128871 ) 0 
( -0.00147042 0.00675832 0.00684492 ) 0 
( -0.0026738 0.00565347 0.00248825 ) 0 
( -0.00797596 0.000521888 0.00715796 ) 0 
( -0.0121265 0.00245543 0.00322392 ) 0 
( -0.00287391 0.0112499 0.00414232 ) 0 
( -0.000594142 0.0105172 0.00655038 ) 0 
( -0.00271618 0.00283149 0.0024337 ) 0 
( -0.00194733 0.00979515 0.00190312 ) 0 
( -0.00441313 0.00579708 0.00671131 ) 0 
( -0.00597401 0.0052936 0.00144324 ) 0 
( -0.00688914 0.00288925 0.00374757 ) 0 
( -0.00681506 0.00128976 0.0072487 ) 0 
( -0.0044919 0.00350824 0.00249925 ) 0 
( -0.0109131 0.00413932 0.00639268 ) 0 
( -0.00890876 0.00586583 0.00393047 ) 0 
( -0.0041331 0.00236922 0.00283511 ) 0 
( -0.00301099 0.00259104 0.00587937 ) 0 
( -0.000126544 0.00308515 0.00196441 ) 0 
( -0.00326617 0.0090007 0.00269486 ) 0 
( -0.00667876 0.0115593 0.00534026 ) 0 
( -0.00238597 0.00716011 0.00464122 ) 0 
( -0.00775094 0.00259539 0.00333497 ) 0 
( -0.0033793 0.00324012 0.00468555 ) 0 
( -0.011447 0.000796042 0.00517539 ) 0 
( -0.00991803 0.00742039 0.0023599 ) 0 
( -0.0111955 0.0043056 0.00434759 ) 0 
( -0.000987422 0.0034191 0.00773802 ) 0 
( -0.00770472 0.00663034 0.00715259 ) 0 
( -0.00167846 0.000812547 0.000499326 ) 0 
( -0.0130415 0.00286032 0.00593443 ) 0 
( -0.00384013 0.00652569 0.00708423 ) 0 
( -0.000956178 0.0016481 0.00460977 ) 0 
( -7.05485e-05 0.00954735 0.00445575 ) 0 
( -0.00242296 0.00896084 0.00406042 ) 0 
( -0.00014696 0.0038932 0.00255285 ) 0 
( -0.0120203 0.00580852 0.00545858 ) 0 
( -0.00792025 0.00753637 0.0067894 ) 0 
( -0.00476484 0.00409089 0.00767207 ) 0 
( -0.0121656 0.00290407 0.00144556 ) 0 
( -0.00447829 0.00349625 0.00596609 ) 0 
( -0.0038137 0.00513788 0.00716436 ) 0 
( -0.0100353 0.00201512 0.00361193 ) 0 
( -0.0106374 0.00532911 0.00568893 ) 0 
( -0.00951234 0.000686034 0.00520442 ) 0 
( -0.00610007 0.00143398 0.00131248 ) 0 
( -0.00330033 0.000789893 0.00365389 ) 0 
( -0.00764966 0.000212161 0.00808078 ) 0 
( -0.0113132 0.00708799 0.00463707 ) 0 
( -0.00338216 0.0108176 0.0033986 ) 0 
( -0.00454726 0.000519649 0.00481495 ) 0 
( -0.00509281 0.00262455 0.00309635 ) 0 
( -0.00881957 0.00626322 0.00301348 ) 0 
( -0.00445145 0.00788962 0.00693483 ) 0 
( -0.00582672 0.000669132 0.00596821 ) 0 
( -0.00554924 0.00795026 0.00207509 ) 0 
( -0.00306783 0.00693724 0.00533837 ) 0 
( -0.00283267 0.0076192 0.00603062 ) 0 
( -0.00125881 0.000379279 0.00745475 ) 0 
( -0.0128012 0.000720582 0.00134343 ) 0 
( -0.00971688 0.00629879 0.00345221 ) 0 
( -0.0119097 0.00108187 0.00160913 ) 0 
( -0.00282775 0.0108093 0.000499806 ) 0 
( -0.00439388 0.00835508 0.00462383 ) 0 
( -0.00831005 0.00451204 0.0025041 ) 0 
( -0.00171253 0.00294114 0.00347447 ) 0 
( -0.00343771 0.0129014 0.00191151 ) 0 
( -0.00368827 0.00841983 0.00730075 ) 0 
( -0.00335477 0.00953334 0.00126647 ) 0 
( -0.00512403 0.0114081 0.0012704 ) 0 
( -0.0113536 0.00126466 0.000499665 ) 0 
( -0.00325609 0.00203181 0.00215031 ) 0 
( -0.00534632 0.0102817 0.00564371 ) 0 
( -0.00230885 0.0064901 0.00128071 ) 0 
( -0.00305782 0.00027703 0.00566169 ) 0 
( -0.00965909 0.00819166 0.00293955 ) 0 
( -0.0130515 0.00275452 0.00692801 ) 0 
( -0.00520464 0.00696823 0.002486 ) 0 
( -0.00792695 0.00544741 0.00131197 ) 0 
( -0.0065515 0.0078038 0.00593177 ) 0 
( -0.00459025 0.00767815 0.00214277 ) 0 
( -0.00596272 0.0119449 0.00318896 ) 0 
( -0.00307215 0.011552 0.00507335 ) 0 
( -0.00874147 0.00866481 0.00134698 ) 0 
( -0.0104536 0.000787588 0.00484628 ) 0 
( -0.00318687 0.00579534 0.00674831 ) 0 
( -0.00293435 0.00940652 0.00510734 ) 0 
( -0.0108955 0.00114109 0.00346756 ) 0 
( -0.00368609 0.00580044 0.00089504 ) 0 
( -0.00966764 0.00566485 0.000526696 ) 0 
( -0.00218043 0.0122824 0.00250259 ) 0 
( -0.00495864 0.0100675 0.00258362 ) 0 
( -0.00691955 0.00509614 0.00505871 ) 0 
( -0.00602764 0.000904382 0.00772893 ) 0 
( -0.00702669 0.00699155 0.00442997 ) 0 
( -0.00555793 0.00163066 0.000498221 ) 0 
( -0.00382565 0.0107471 0.000499765 ) 0 
( -0.00331257 0.00117501 0.00496676 ) 0 
( -0.00189435 0.00821438 0.00365743 ) 0 
( -7.74151e-05 0.0057501 0.00287013 ) 0 
( -0.0115461 0.00195762 0.00120117 ) 0 
( -0.00486021 0.00164189 0.00546325 ) 0 
( -0.00440628 0.00348425 0.00696243 ) 0 
( -0.00249083 0.0042922 0.00547974 ) 0 
( -0.00977809 0.00248233 0.00445567 ) 0 
( -0.00968828 0.00376664 0.00131146 ) 0 
( -0.00153024 0.0106419 0.00157383 ) 0 
( -0.0013919 0.00902554 0.006158 ) 0 
( -0.00229892 0.0107128 0.00475883 ) 0 
( -0.00213152 0.00467079 0.00650486 ) 0 
( -0.00383407 0.00417235 0.00203814 ) 0 
( -0.00409514 0.00100653 0.005565 ) 0 
( -0.000334185 0.0067996 0.00331587 ) 0 
( -0.00746954 0.00457199 0.00116789 ) 0 
( -0.00780697 0.0108294 0.0020842 ) 0 
( -0.00846528 0.0024993 0.00681452 ) 0 
( -0.0071835 0.00208622 0.00631435 ) 0 
( -0.00623953 0.00221029 0.00415049 ) 0 
( -0.00427849 0.00861968 0.00202575 ) 0 
( -0.00813468 0.00364018 0.00204838 ) 0 
( -0.0109065 0.00770104 0.0061911 ) 0 
( -0.0091441 0.0013361 0.000499898 ) 0 
( -0.00562419 0.00376337 0.000498955 ) 0 
( -0.00773084 0.0059896 0.000497824 ) 0 
( -0.00403285 0.0123219 0.00135727 ) 0 
( -0.00307702 0.00469094 0.00618344 ) 0 
( -0.00502771 0.000184342 0.00049979 ) 0 
( -0.0120772 0.0023011 0.00223786 ) 0 
( -0.00488399 0.0111824 0.00393151 ) 0 
( -0.00328203 0.000400798 0.00708753 ) 0 
( -0.0112536 0.00195617 0.0071759 ) 0 
( -0.00204916 0.00388565 0.00783892 ) 0 
( -0.00429161 0.00339011 0.00347127 ) 0 
( -0.00270792 0.0114334 0.00271769 ) 0 
( -0.00138922 0.0132782 0.00182456 ) 0 
( -0.0121467 0.00402534 0.00179811 ) 0 
( -4.93322e-06 0.00298788 0.000502175 ) 0 
( -0.00859592 0.00494506 0.00416788 ) 0 
( -0.000877726 0.00832997 0.00665981 ) 0 
( -0.00293215 0.00679248 0.00676234 ) 0 
( -0.00680972 0.0090251 0.00306731 ) 0 
( -0.00596505 0.00770291 0.00118794 ) 0 
( -3.10061e-05 0.0105231 0.00570656 ) 0 
( -0.00972182 0.00845441 0.00134277 ) 0 
( -0.0097866 0.00161092 0.00494436 ) 0 
( -0.0114858 0.00463241 0.00135928 ) 0 
( -0.00228928 0.00196638 0.00721995 ) 0 
( -4.99539e-06 0.00820483 0.00413356 ) 0 
( -0.00169207 0.0064207 0.000498276 ) 0 
( -0.00753545 0.00697181 0.000499778 ) 0 
( -0.00309388 0.00958333 0.00703141 ) 0 
( -0.0021018 0.0122482 0.00148902 ) 0 
( -0.00204392 0.0131929 0.00469504 ) 0 
( -0.00562108 0.0121094 0.00539018 ) 0 
( -0.00735824 0.00498211 0.0041674 ) 0 
( -0.002802 0.00738541 0.00131965 ) 0 
( -0.00430165 0.00586308 0.00568816 ) 0 
( -0.0123476 0.00226772 0.00417968 ) 0 
( -0.00440077 0.00301418 0.00442029 ) 0 
( -0.00106497 0.00426973 0.00267657 ) 0 
( -0.00399287 0.00976351 0.00199985 ) 0 
( -0.00623372 0.00157245 0.00845581 ) 0 
( -0.00371121 0.0128251 0.00571717 ) 0 
( -0.00669372 0.00807388 0.00335205 ) 0 
( -0.00133995 0.00279015 0.00132106 ) 0 
( -0.0044514 0.00381348 0.00501842 ) 0 
( -0.00892834 0.00353309 0.00550311 ) 0 
( -0.00480543 0.0054857 0.00761829 ) 0 
( -0.000153228 0.0120118 0.00129456 ) 0 
( -0.0017181 0.00301678 0.00828787 ) 0 
( -0.00371177 0.0029328 0.00212477 ) 0 
( -0.000174722 0.00718577 0.000498797 ) 0 
( -0.000112294 0.00996136 0.00221928 ) 0 
( -0.00852495 0.00606568 0.00638489 ) 0 
( -0.00127899 0.0092944 0.00520195 ) 0 
( -0.0058638 0.00251788 0.00508206 ) 0 
( -0.00218389 0.00343797 0.00589798 ) 0 
( -0.0101923 0.0074329 0.00332101 ) 0 
( -0.00011182 0.0108542 0.00282633 ) 0 
( -0.00101754 0.00846608 0.00307328 ) 0 
( -0.00509186 0.00506657 0.00185219 ) 0 
( -0.00168574 0.00528198 0.00421695 ) 0 
( -0.00540407 0.0103157 0.00399184 ) 0 
( -0.00141011 0.00593509 0.00492155 ) 0 
( -0.0037089 0.00394831 0.00641627 ) 0 
( -0.0098485 0.00901352 0.0071458 ) 0 
( -0.00137129 0.00753636 0.00298876 ) 0 
( -0.0061204 0.0110784 0.00050026 ) 0 
( -0.00251295 0.00443907 0.00136589 ) 0 
( -0.00711452 0.00611096 0.00396502 ) 0 
( -0.0119585 0.00357183 0.000718038 ) 0 
( -0.0116738 0.00158678 0.00302812 ) 0 
( -0.00634792 0.0102389 0.0043264 ) 0 
( -0.00924302 0.000306136 0.00233724 ) 0 
( -0.00448276 0.00217392 0.00788144 ) 0 
( -0.00278307 0.0130546 0.00398523 ) 0 
( -0.00978214 0.00786594 0.00462833 ) 0 
( -0.000330061 0.00774813 0.00296537 ) 0 
( -0.0073373 0.000123146 0.00170914 ) 0 
( -0.00991582 0.00340095 0.00395135 ) 0 
( -9.5194e-05 0.00046347 0.00193517 ) 0 
( -0.00552077 0.00933089 0.0053915 ) 0 
( -0.00676615 0.00505049 0.00325268 ) 0 
( -0.0036069 0.00451416 0.00107759 ) 0 
( -0.0113124 0.0018396 0.0061855 ) 0 
( -0.00462489 0.00198797 0.000499655 ) 0 
( -0.000116289 0.000544901 0.000499518 ) 0 
( -0.00385137 0.00162543 0.00733352 ) 0 
( -0.000644001 0.00593656 0.00371238 ) 0 
( -0.00719769 0.00771017 0.00510423 ) 0 
( -0.0039061 0.00237302 0.00131701 ) 0 
( -0.00685578 0.00892841 0.00668306 ) 0 
( -0.00709361 0.00822786 0.0042552 ) 0 
( -0.00836895 0.00271071 0.00143348 ) 0 
( -0.00398382 0.00285464 0.00538118 ) 0 
( -0.000720566 0.0102021 0.00505852 ) 0 
( -0.00159295 0.0114012 0.00302547 ) 0 
( -0.0133132 0.00100743 0.0058013 ) 0 
( -0.00840539 0.00278954 0.00406441 ) 0 
( -0.00921577 0.0096448 0.00508212 ) 0 
( -0.000279311 0.007305 0.00446956 ) 0 
( -0.00987346 0.00698869 0.00415785 ) 0 
( -0.00927661 0.00779256 0.00377068 ) 0 
( -0.0118352 0.00617795 0.0014763 ) 0 
( -0.00292062 0.00978232 0.00213208 ) 0 
( -0.0108656 0.00775644 0.000499803 ) 0 
( -0.00337434 0.00638355 0.00280877 ) 0 
( -3.9859e-05 0.00126772 0.00118612 ) 0 
( -0.00471278 0.00452293 0.0057127 ) 0 
( -0.000643245 0.00166 0.00701264 ) 0 
( -0.0116297 0.00487505 0.0059711 ) 0 
( -0.000565697 0.00506168 0.0023282 ) 0 
( -0.004057 0.0111342 0.0064168 ) 0 
( -0.00893278 0.00685658 0.00380975 ) 0 
( -0.0127053 0.00365619 0.00543195 ) 0 
( -0.0125229 0.004629 0.00557075 ) 0 
( -0.0110456 0.00212099 0.00359631 ) 0 
( -0.00739113 0.00171713 0.00385791 ) 0 
( -0.000702722 0.00973433 0.0059409 ) 0 
( -0.00286194 0.0130407 0.000499242 ) 0 
( -0.00673952 0.00603923 0.00706883 ) 0 
( -0.0082013 0.000620382 0.00178563 ) 0 
( -0.0128331 0.00367923 0.00647214 ) 0 
( -0.00805396 0.00764619 0.00228011 ) 0 
( -0.00930073 0.004175 0.00408991 ) 0 
( -0.00179137 0.0114817 0.0020495 ) 0 
( -0.010009 0.00883538 0.00470996 ) 0 
( -0.00322956 0.00118262 0.00604667 ) 0 
( -0.0123342 0.00201539 0.00612227 ) 0 
( -0.0114189 0.000284606 0.00327071 ) 0 
( -0.000936622 0.0074487 0.0010888 ) 0 
( -0.00690933 0.0103903 0.00609034 ) 0 
( -0.00328962 0.00772122 0.000499792 ) 0 
( -0.0108671 0.00598613 0.00640545 ) 0 
( -0.00674723 0.00440454 0.000498067 ) 0 
( -0.00149506 0.00193015 0.00381664 ) 0 
( -0.00838427 0.00848463 0.00641604 ) 0 
( -0.0100469 0.00370262 0.00588073 ) 0 
( -0.00595134 0.00687694 0.00718095 ) 0 
( -0.0118056 0.00171718 0.00532535 ) 0 
( -0.00130704 0.00657267 0.00331861 ) 0 
( -0.0012881 0.00181825 0.00555903 ) 0 
( -0.00210468 0.00235957 0.00179918 ) 0 
( -0.000470121 0.00968678 0.00049921 ) 0 
( -0.00488558 0.000935373 0.00617247 ) 0 
( -0.00114819 0.0068541 0.00426834 ) 0 
( -0.000850809 0.0068663 0.00246286 ) 0 
( -0.00148251 0.0123958 0.00444151 ) 0 
( -0.00499127 0.0113498 0.00669644 ) 0 
( -0.000790432 0.00128418 0.000499798 ) 0 
( -0.010894 0.00363467 0.00367056 ) 0 
( -0.00194033 0.011647 0.00722483 ) 0 
( -0.00317525 0.00369652 0.00145624 ) 0 
( -0.00122669 0.00978163 0.00679046 ) 0 
( -0.00949289 0.0043115 0.000497968 ) 0 
( -0.0101674 0.00705491 0.00511069 ) 0 
( -0.000582062 0.00431962 0.0075855 ) 0 
( -0.0119183 0.00327239 0.00241474 ) 0 
( -0.00872984 0.00600866 0.000499384 ) 0 
( -0.00873236 0.00116849 0.00252891 ) 0 
( -0.00165981 0.0115017 0.00401805 ) 0 
( -0.00648532 0.0070058 0.00526992 ) 0 
( -0.0110263 0.000658566 0.00141222 ) 0 
( -0.0108619 0.00213523 0.000497922 ) 0 
( -0.00265408 0.0053289 0.0074539 ) 0 
( -0.00411125 0.0113278 0.00141363 ) 0 
( -0.00940537 0.00628304 0.00469074 ) 0 
( -0.00192411 0.00624601 0.00410391 ) 0 
( -0.00485805 0.00773972 0.00603415 ) 0 
( -0.00417642 0.0028813 0.00049963 ) 0 
( -0.00954893 0.00669204 0.000499789 ) 0 
( -0.00542846 0.00221974 0.0012948 ) 0 
( -0.00629575 0.00533798 0.000498822 ) 0 
( -0.00266114 0.00529628 0.0047709 ) 0 
( -0.006325 0.00411407 0.00724315 ) 0 
( -0.00237543 0.0062266 0.0049973 ) 0 
( -0.010633 0.00175895 0.00443332 ) 0 
( -0.0018258 0.00416404 0.00203683 ) 0 
( -0.00349549 0.00666781 0.0013579 ) 0 
( -0.00702022 0.00293315 0.00274369 ) 0 
( -0.00380984 0.00416362 0.00738659 ) 0 
( -0.00810221 0.0106085 0.00491826 ) 0 
( -0.000660781 0.0111593 0.00141827 ) 0 
( -0.00751306 0.00812494 0.000498018 ) 0 
( -0.00315729 0.00225286 0.00311938 ) 0 
( -0.000394726 0.00570905 0.00628007 ) 0 
( -0.00104875 0.00353773 0.00199664 ) 0 
( -0.00355979 0.0104952 0.00144483 ) 0 
( -0.00428358 0.00677899 0.00449437 ) 0 
( -0.00561731 0.00460706 0.00774736 ) 0 
( -0.0108491 0.0053962 0.00278488 ) 0 
( -0.0124944 0.00470571 0.00656651 ) 0 
( -0.0112737 0.00166174 0.00211494 ) 0 
( -0.0106121 0.00264893 0.00519495 ) 0 
( -0.00468923 0.0044085 0.0067058 ) 0 
( -0.00461265 0.00864075 0.00362222 ) 0 
( -0.0010608 0.0121401 0.0025388 ) 0 
( -0.0130973 0.00259323 0.00181573 ) 0 
( -0.00918822 0.00184029 0.00311236 ) 0 
( -0.00450479 0.00220899 0.0037887 ) 0 
( -0.00459572 0.00935163 0.00131684 ) 0 
( -0.00997029 0.00213788 0.00688901 ) 0 
( -0.00744534 0.00579535 0.00773204 ) 0 
( -0.000340524 0.0124784 0.00705402 ) 0 
( -0.00146513 0.00199631 0.00778612 ) 0 
( -0.00760063 0.00373471 0.00288841 ) 0 
( -0.00228113 0.00176906 0.000498213 ) 0 
( -0.00800296 0.00486283 0.00499026 ) 0 
( -0.00318531 0.00275162 0.000499335 ) 0 
( -0.00860037 0.00175812 0.00123658 ) 0 
( -0.0106801 0.00167908 0.00542837 ) 0 
( -0.00562943 0.0010747 0.00302006 ) 0 
( -0.00829446 0.00402981 0.00609383 ) 0 
( -0.0074395 0.00893617 0.00107841 ) 0 
( -0.00271777 0.00382657 0.0023356 ) 0 
( -0.00220226 0.00271174 0.000821182 ) 0 
( -0.00491786 0.00745462 0.00486816 ) 0 
( -0.00927921 0.00660189 0.00147901 ) 0 
( -0.00668228 0.00144176 0.000498489 ) 0 
( -0.00159369 0.0103436 0.00552415 ) 0 
( -0.00972677 0.00495327 0.00122644 ) 0 
( -0.00749851 0.000417753 0.00327365 ) 0 
( -0.0128867 0.00348645 0.00758904 ) 0 
( -0.000377127 0.00298382 0.00612183 ) 0 
( -0.00555096 0.00440765 0.00125863 ) 0 
( -0.00642932 0.00359204 0.00320536 ) 0 
( -0.00361827 0.00728555 0.00227856 ) 0 
( -0.000914253 0.00445199 0.00161781 ) 0 
( -0.010438 0.00285313 0.0032451 ) 0 
( -0.00573036 0.00776065 0.00652319 ) 0 
( -0.00234537 0.00275491 0.006609 ) 0 
( -0.0113796 0.000679631 0.00235394 ) 0 
( -0.00927697 0.00552426 0.00558388 ) 0 
( -0.00683469 0.0114682 0.00745053 ) 0 
( -0.00402602 0.00863579 0.0063858 ) 0 
( -0.000285987 0.00259473 0.00703844 ) 0 
( -0.000750287 0.00636223 0.00561267 ) 0 
( -0.00044082 0.00366847 0.00121559 ) 0 
( -0.00511996 0.00678373 0.00579815 ) 0 
( -0.000302729 0.00639486 0.00700051 ) 0 
( -0.00464386 0.00694711 0.00666209 ) 0 
( -0.00590471 0.00870997 0.00148907 ) 0 
( -0.00620853 0.00990386 0.00313635 ) 0 
( -0.000553751 0.00873016 0.00478184 ) 0 
( -0.00959929 0.00178989 0.0012663 ) 0 
( -0.000554145 0.00601554 0.00203362 ) 0 
( -0.0012701 0.0090869 0.000499784 ) 0 
( -8.33598e-05 0.00199149 0.000499063 ) 0 
( -0.00109926 0.0026498 0.00244917 ) 0 
( -0.00537944 0.00469129 0.00384003 ) 0 
( -0.000917416 0.0110393 0.00576251 ) 0 
( -0.002423 0.00297054 0.00758142 ) 0 
( -0.00702341 0.0113542 0.00442517 ) 0 
( -0.00586683 0.0015391 0.00528948 ) 0 
( -0.000330077 0.0111158 0.00495941 ) 0 
( -0.00681598 0.0114802 0.00144244 ) 0 
( -0.000655191 0.0123211 0.00611958 ) 0 
( -0.00878148 0.00127703 0.00555811 ) 0 
( -0.0103015 0.00849072 0.0036971 ) 0 
( -0.00435266 0.00658286 0.00283995 ) 0 
( -0.00860229 0.00568241 0.00486325 ) 0 
( -0.0123946 0.000376959 0.000498777 ) 0 
( -0.00698693 0.00418757 0.00464451 ) 0 
( -0.00882806 0.00503242 0.000690509 ) 0 
( -0.00589548 0.00899083 0.00695134 ) 0 
( -0.00422918 0.00103318 0.000499365 ) 0 
( -0.00932319 0.00829067 0.00669823 ) 0 
( -0.000683468 0.0106996 0.00412382 ) 0 
( -0.000274055 0.00291821 0.00294457 ) 0 
( -0.00455262 0.00381816 0.000498497 ) 0 
( -0.00594699 0.0111543 0.00384666 ) 0 
( -0.0079423 0.0101036 0.0032873 ) 0 
( -0.00745008 0.00263819 0.00710604 ) 0 
( -0.00994692 0.00889767 0.00220999 ) 0 
( -4.72663e-05 0.00357307 0.00803889 ) 0 
( -0.00117861 0.00170355 0.00213896 ) 0 
( -0.00479268 0.0124606 0.000499983 ) 0 
( -0.0100737 0.0061067 0.00541259 ) 0 
( -0.00774686 0.0108449 0.00108836 ) 0 
( -0.00771546 0.00167734 0.00705466 ) 0 
( -0.00317265 0.00465481 0.00797873 ) 0 
( -0.00208577 0.00372869 0.00685204 ) 0 
( -0.01257 0.00261734 0.00508839 ) 0 
( -0.00983267 0.0057909 0.00175952 ) 0 
( -0.00222057 0.00721261 0.00732438 ) 0 
( -0.00712345 0.00435958 0.00669421 ) 0 
( -0.00694373 0.000465161 0.00495549 ) 0 
( -0.00197008 0.0100941 0.00285661 ) 0 
( -0.00835853 0.00187521 0.00366543 ) 0 
( -0.00433099 0.00930387 0.00431533 ) 0 
( -0.00322686 0.0121818 0.0042014 ) 0 
( -0.00842741 0.00460365 0.0015001 ) 0 
( -0.0096151 0.00159193 0.00224522 ) 0 
( -0.00719297 0.000951468 0.00225011 ) 0 
( -0.00465126 0.012141 0.00563258 ) 0 
( -0.0114512 0.00686473 0.000498688 ) 0 
( -0.00685382 0.00698513 0.00676842 ) 0 
( -0.000196102 0.00787065 0.00608916 ) 0 
( -0.00183269 0.000956079 0.00203215 ) 0 
( -0.0101375 0.00144629 0.00049825 ) 0 
( -0.0079935 0.00946017 0.00172373 ) 0 
( -0.00817536 0.00311359 0.00498109 ) 0 
( -0.0082208 0.00708734 0.00309055 ) 0 
( -0.00904132 0.00867584 0.00490397 ) 0 
( -0.00424608 0.0126571 0.00258752 ) 0 
( -0.00862136 0.000562612 0.00086963 ) 0 
( -0.00712175 0.00293082 0.000499676 ) 0 
( -0.00568372 0.00755504 0.00550276 ) 0 
( -0.00739629 0.00727199 0.00598079 ) 0 
( -0.00402465 0.0118356 0.00491566 ) 0 
( -0.00532882 0.00508456 0.000499846 ) 0 
( -0.0054887 0.00519415 0.00694943 ) 0 
( -0.00426265 0.00924175 0.00280789 ) 0 
( -0.00952755 0.00295805 0.00726313 ) 0 
( -0.000388353 0.00716915 0.00788165 ) 0 
( -0.000870389 0.0043206 0.000499793 ) 0 
( -0.000945187 0.000974527 0.00148986 ) 0 
( -0.00945475 0.00511203 0.00468016 ) 0 
( -0.00166061 0.00604914 0.00588218 ) 0 
( -0.00696404 0.00533398 0.00156879 ) 0 
( -0.00909805 0.00753424 0.00116662 ) 0 
( -7.95877e-06 0.00689065 0.00602501 ) 0 
( -0.00767608 0.00919415 0.00617731 ) 0 
( -0.00576691 0.00493269 0.00554941 ) 0 
( -0.00804535 0.000959871 0.00390934 ) 0 
( -0.00292787 0.0130175 0.00512729 ) 0 
( -0.000560503 0.00255379 0.00475506 ) 0 
( -0.00460381 0.00577296 0.000499167 ) 0 
( -0.0100315 0.000804132 0.00127438 ) 0 
( -0.00363391 0.00185849 0.00049985 ) 0 
( -0.00591248 0.00128194 0.00432436 ) 0 
( -0.00632966 0.000528599 0.00682016 ) 0 
( -0.000365906 0.00146845 0.00540092 ) 0 
( -0.00490649 0.00130369 0.00118247 ) 0 
( -0.00820589 0.00927109 0.00702088 ) 0 
( -0.00862872 0.00348442 0.00686048 ) 0 
( -0.00830866 0.00547424 0.00223415 ) 0 
( -0.0116733 0.00147965 0.00403662 ) 0 
( -0.00664263 0.0049568 0.00602987 ) 0 
( -0.00867896 0.00647564 0.00730825 ) 0 
( -0.00538049 0.0122184 0.00242518 ) 0 
( -0.00459981 0.00193825 0.00189112 ) 0 
( -0.00495354 0.00980178 0.000499073 ) 0 
( -0.01077 0.00437241 0.00543204 ) 0 
( -0.00152074 0.00273674 0.00443433 ) 0 
( -0.00311304 0.000993388 0.00188011 ) 0 
( -0.00729341 0.00625382 0.00135516 ) 0 
( -0.00681435 0.00890081 0.00185758 ) 0 
( -0.00892545 0.00992883 0.00333606 ) 0 
( -0.0096348 0.00113895 0.00714681 ) 0 
( -0.0124445 0.00133212 0.00465541 ) 0 
( -0.00437027 0.00480096 0.000499748 ) 0 
( -0.0063742 2.58741e-05 0.0042391 ) 0 
( -0.00500934 0.011521 0.00486239 ) 0 
( -0.00389214 0.00394685 0.00419871 ) 0 
( -0.00761146 0.00575038 0.00475273 ) 0 
( -0.0111992 0.000973494 0.0073487 ) 0 
( -0.000768537 0.00344217 0.00434936 ) 0 
( -0.00124231 0.0057857 0.00686311 ) 0 
( -0.0124297 0.00138119 0.00240815 ) 0 
( -0.0091384 0.00324072 0.00457067 ) 0 
( -0.00526522 0.00199815 0.00630478 ) 0 
( -0.00597936 0.0109341 0.00147949 ) 0 
( -0.00861833 0.00210475 0.00476053 ) 0 
( -0.0106288 0.000576348 0.000499384 ) 0 
( -0.00479646 0.0111091 0.00574653 ) 0 
( -0.00733176 0.00836427 0.0025261 ) 0 
( -0.0102722 0.00436582 0.00395069 ) 0 
( -0.00334511 0.0105744 0.00470791 ) 0 
( -0.00244647 0.00253637 0.00401974 ) 0 
( -0.00808669 0.00132041 0.000498934 ) 0 
( -0.00289739 0.00742843 0.00365567 ) 0 
( -0.00287186 0.0107097 0.00557754 ) 0 
( -0.00110393 0.0023496 0.00638568 ) 0 
( -0.00670318 0.00688739 0.00349054 ) 0 
( -0.0105611 0.00816883 0.00251199 ) 0 
( -0.00795192 0.00155962 0.00202097 ) 0 
( -0.00973941 0.0035816 0.00287861 ) 0 
( -0.00618819 0.00338935 0.00625742 ) 0 
( -0.0133093 0.000911562 0.00381164 ) 0 
( -0.00192531 0.00722131 0.00375783 ) 0 
( -0.00340042 0.0105147 0.00684208 ) 0 
( -0.00467004 0.000727348 0.00212469 ) 0 
( -0.0073887 0.00657796 0.00526418 ) 0 
( -0.00923777 0.00167221 0.00410643 ) 0 
( -0.0133451 0.000192231 0.00311175 ) 0 
( -0.00359198 0.000226816 0.00481891 ) 0 
( -0.00249955 0.0049601 0.00373402 ) 0 
( -0.00652649 0.00444106 0.00147057 ) 0 
( -0.00639877 0.00932378 0.00392815 ) 0 
( -2.29133e-05 0.0010561 0.00295164 ) 0 
( -0.0123317 0.00511443 0.000899234 ) 0 
( -0.00135813 0.00855672 0.00138475 ) 0 
( -0.001588 0.00126136 0.00711947 ) 0 
( -0.0098192 0.00554998 0.00279839 ) 0 
( -0.00263422 0.000209138 0.000499028 ) 0 
( -0.00223721 0.00488336 0.00824581 ) 0 
( -0.0128606 0.0035824 0.00120811 ) 0 
( -0.0104806 0.000244132 0.0036137 ) 0 
( -0.00742996 0.00249188 0.00448863 ) 0 
( -0.0129175 0.0033707 0.00412287 ) 0 
( -0.00777883 0.0108501 0.00400431 ) 0 
( -0.00238497 0.000884843 0.00120247 ) 0 
( -0.000483276 0.00620387 0.0046623 ) 0 
( -0.0064211 0.00495756 0.00231884 ) 0 
( -0.00277178 0.00560594 0.00132258 ) 0 
( -0.00163824 0.00379846 0.0040094 ) 0 
( -0.00818279 0.00178147 0.00617875 ) 0 
( -0.00853506 0.00698841 0.000519114 ) 0 
( -0.00294246 0.00174716 0.0012458 ) 0 
( -0.00404054 0.00119883 0.00428237 ) 0 
( -0.00605245 0.00871479 0.00247793 ) 0 
( -0.00250305 0.000607724 0.00482539 ) 0 
( -0.00195573 0.00225822 0.00278236 ) 0 
( -0.00141641 0.00809782 0.000499221 ) 0 
( -0.00312902 0.00433582 0.00471231 ) 0 
( -0.000476508 0.00520724 0.00714001 ) 0 
( -0.00501865 0.0123721 0.0015076 ) 0 
( -0.00385887 0.00820825 0.00283454 ) 0 
( -0.00495926 0.00154176 0.00447364 ) 0 
( -0.00763319 0.000468698 0.000765018 ) 0 
( -0.00697017 0.0103925 0.00356016 ) 0 
( -0.00318548 0.00492284 0.00192286 ) 0 
( -0.0114158 0.00513462 0.000499164 ) 0 
( -0.000425228 0.0133442 0.00211159 ) 0 
( -0.000667592 0.0128735 0.00126453 ) 0 
( -0.0104138 0.00680137 0.00604598 ) 0 
( -0.00276694 0.00470836 0.00280442 ) 0 
( -0.00563187 0.00684865 0.00158658 ) 0 
( -0.0116547 0.00460918 0.00256446 ) 0 
( -0.00942506 0.00277198 0.00131292 ) 0 
( -0.00616088 0.0066911 0.00257503 ) 0 
( -0.00395554 0.00975576 0.000499725 ) 0 
( -0.00356128 0.00369014 0.000499777 ) 0 
( -0.0104987 0.00506036 0.0019096 ) 0 
( -0.00737669 0.00912432 0.00388612 ) 0 
( -0.0102475 0.00855916 0.000499054 ) 0 
( -0.0043584 0.0067505 0.00185456 ) 0 
( -0.0028676 0.00430777 0.00708302 ) 0 
( -0.00760606 0.00472707 0.0058997 ) 0 
( -0.00528307 0.00794037 0.000498977 ) 0 
( -0.000165476 0.0109535 0.000498399 ) 0 
( -0.00387701 0.0117763 0.0033526 ) 0 
( -0.0126197 0.00435699 0.00262396 ) 0 
( -0.00297422 0.00778652 0.00700562 ) 0 
( -0.00193191 0.00779351 0.00176316 ) 0 
( -0.0063162 0.00954757 0.00611472 ) 0 
( -0.00492429 0.00530515 0.00512737 ) 0 
( -0.00338053 0.00251509 0.00746474 ) 0 
( -0.00709135 0.0113123 0.00049767 ) 0 
( -0.00114891 0.00287753 0.00549557 ) 0 
( -0.00210367 0.0123896 0.000499411 ) 0 
( -0.0127574 0.000237881 0.00611046 ) 0 
( -0.00570985 0.0034759 0.00158142 ) 0 
( -0.00477768 0.00105079 0.00358737 ) 0 
( -0.00257825 0.00651661 0.00339828 ) 0 
( -0.00685949 0.0103408 0.00049936 ) 0 
( -0.0101862 0.00232334 0.00187747 ) 0 
( -0.00604662 0.00688416 0.00616026 ) 0 
( -0.0054758 0.000252764 0.00247382 ) 0 
( -0.0122783 0.00524202 0.00302195 ) 0 
( -0.00681601 0.00231944 0.00531114 ) 0 
( -0.00107875 0.000105093 0.00635053 ) 0 
( -0.00764981 0.00351068 0.00666199 ) 0 
( -0.00385579 0.00637972 0.00368422 ) 0 
( -0.00473955 0.0103838 0.00643247 ) 0 
( -0.000217801 0.00749237 0.0020054 ) 0 
( -0.00824453 0.00862497 0.00221253 ) 0 
( -0.0060794 0.00837028 0.00408283 ) 0 
( -0.00291832 0.00661904 0.000499359 ) 0 
( -0.00681954 0.0106695 0.00202562 ) 0 
( -0.00794912 0.00394825 0.00751157 ) 0 
( -0.00138984 0.00222199 0.000499724 ) 0 
( -0.00306618 0.00512336 0.000498941 ) 0 
( -0.00687212 0.00396533 0.00581086 ) 0 
( -0.00888567 0.00509535 0.00639742 ) 0 
( -0.00518524 0.00504578 0.00284742 ) 0 
( -0.00379627 0.00024227 0.0021185 ) 0 
( -0.00207807 0.0122997 0.00647373 ) 0 
( -0.0022218 0.00335249 0.0016092 ) 0 
( -0.00429956 0.00776671 0.000498244 ) 0 
( -0.00662686 0.0115898 0.00633726 ) 0 
( -0.00711776 0.00415888 0.00365459 ) 0 
( -0.0092896 0.00572354 0.00706507 ) 0 
( -0.00479065 0.00593769 0.00146672 ) 0 
( -0.00195164 0.00642883 0.00256834 ) 0 
( -0.00374777 0.00433769 0.00549708 ) 0 
( -0.000975665 0.00322519 0.000498461 ) 0 
( -0.00500605 0.00987963 0.00725392 ) 0 
( -0.0041032 0.000588922 0.00301151 ) 0 
( -0.00613483 0.00241376 0.00603879 ) 0 
( -0.00456559 0.00966509 0.00574417 ) 0 
( -0.00533048 0.00048049 0.00419557 ) 0 
( -0.00254973 0.00834503 0.00120375 ) 0 
( -0.00594204 0.000532147 0.00498486 ) 0 
( -0.00381686 0.0127945 0.00472369 ) 0 
( -0.000759829 0.00197231 0.00123494 ) 0 
( -0.0106857 0.00282101 0.00421219 ) 0 
( -0.00305137 0.00834742 0.00538179 ) 0 
( -0.0015818 0.000119269 0.00251799 ) 0 
( -0.00393227 0.00520136 0.0050302 ) 0 
( -0.00371519 0.000856469 0.0084144 ) 0 
( -0.0130668 0.00211389 0.00269163 ) 0 