/*--------------------------------*- C++ -*----------------------------------*\
| =========                 |                                                 |
| \\      /  F ield         | OpenFOAM: The Open Source CFD Toolbox           |
|  \\    /   O peration     | Version:  2506                                  |
|   \\  /    A nd           | Website:  www.openfoam.com                      |
|    \\/     M anipulation  |                                                 |
\*---------------------------------------------------------------------------*/
FoamFile
{
    version     2.0;
    format      ascii;
    arch        "LSB;label=32;scalar=64";
    class       volScalarField;
    location    "0.04";
    object      Ksl;
}
// * * * * * * * * * * * * * * * * * * * * * * * * * * * * * * * * * * * * * //

dimensions      [1 -3 -1 0 0 0 0];

internalField   nonuniform List<scalar> 
1152
(
196003
115331
98510.2
395100
145269
105754
154286
164218
111426
150283
97097.9
99212.9
127730
57027.4
103856
112508
257621
172735
129420
868133
171005
158712
1.20457e+06
210451
350267
144837
134584
2.22198e+06
180615
406545
202516
225530
321714
257736
534592
1.60929e+07
656561
351017
140650
220902
210301
249385
579803
122504
352971
138037
426858
1.66565e+06
266917
136107
337755
159827
124050
285436
222546
204084
482517
254052
245135
1.56518e+07
572801
123244
231656
102585
275448
395952
432065
223914
281317
192526
160805
337587
240232
177109
652654
93098.3
121008
511906
406517
6.14052e+06
294250
127250
146373
159709
175951
163194
336450
157921
175388
157186
365803
206409
274494
162815
180370
136399
58109.5
51832.6
65231
77673.3
31360.7
55187.2
84335.7
223244
46493
51667.9
113794
33651.6
28568
98589.7
245018
64440.3
0
0
0
0
0
0
0
0
0
0
0
0
0
0
0
0
0
0
0
0
0
0
0
0
0
0
0
0
0
0
0
0
0
0
0
0
0
0
0
0
0
0
0
0
0
0
0
0
0
0
0
0
0
0
0
0
0
0
0
0
0
0
0
0
0
0
0
0
0
0
0
0
0
0
0
0
0
0
0
0
0
0
0
0
0
0
0
0
0
0
0
0
0
0
0
0
0
0
0
0
0
0
0
0
0
0
0
0
0
0
0
0
0
0
0
0
0
0
0
0
0
0
0
0
0
0
0
0
0
0
0
0
0
0
0
0
0
0
0
0
0
0
0
0
0
0
0
0
0
0
0
0
0
0
0
0
0
0
0
0
0
0
0
0
0
0
0
0
0
0
0
0
0
0
0
0
0
0
0
0
0
0
0
0
0
0
0
0
0
0
0
0
0
0
0
0
0
0
0
0
0
0
0
0
0
0
0
0
0
0
0
0
0
0
0
0
0
0
0
0
0
0
0
0
0
0
0
0
0
0
0
0
0
0
0
0
0
0
0
0
0
0
0
0
0
0
0
0
0
0
0
0
0
0
0
0
0
0
0
0
0
0
0
0
0
0
0
0
0
0
0
0
123799
102366
91669.1
124681
182181
111294
97695.8
77446.7
145861
81623
113471
150908
179011
191610
87484.4
97697.3
146112
214231
238618
339928
469478
148442
261108
281897
186432
312496
337139
230022
218220
191010
201836
199128
144124
181548
386030
202055
147818
212054
278248
124153
234701
213674
171700
497460
304197
521784
433303
168865
286649
324296
195923
1.00102e+07
1.33779e+06
132468
386883
205322
190637
187394
191660
239498
153551
810129
306571
215096
110198
346304
156844
439097
264713
176870
290337
178144
148260
319729
169199
207448
288614
222137
183841
243320
320482
410355
217599
115720
214967
247090
175002
196267
263999
145300
391567
201039
150407
291287
173854
190447
42188.6
53934.9
28354.6
31982.5
91082
33346.8
22035.1
21731.3
28443.9
13200.4
37130.1
36068.7
76314.4
47048.3
16439
36693.7
0
0
0
0
0
0
0
0
0
0
0
0
0
0
0
0
0
0
0
0
0
0
0
0
0
0
0
0
0
0
0
0
0
0
0
0
0
0
0
0
0
0
0
0
0
0
0
0
0
0
0
0
0
0
0
0
0
0
0
0
0
0
0
0
0
0
0
0
0
0
0
0
0
0
0
0
0
0
0
0
0
0
0
0
0
0
0
0
0
0
0
0
0
0
0
0
0
0
0
0
0
0
0
0
0
0
0
0
0
0
0
0
0
0
0
0
0
0
0
0
0
0
0
0
0
0
0
0
0
0
0
0
0
0
0
0
0
0
0
0
0
0
0
0
0
0
0
0
0
0
0
0
0
0
0
0
0
0
0
0
0
0
0
0
0
0
0
0
0
0
0
0
0
0
0
0
0
0
0
0
0
0
0
0
0
0
0
0
0
0
0
0
0
0
0
0
0
0
0
0
0
0
0
0
0
0
0
0
0
0
0
0
0
0
0
0
0
0
0
0
0
0
0
0
0
0
0
0
0
0
0
0
0
0
0
0
0
0
0
0
0
0
0
0
0
0
0
0
0
0
0
0
0
0
0
0
0
0
0
0
0
0
0
0
0
0
0
0
0
0
0
0
94082.4
222960
117656
244465
127318
82152.8
128737
146433
147085
136061
120787
80908.5
106306
140384
120799
429062
152885
163532
330701
175229
616101
330461
181941
150275
326689
180697
161342
307080
145824
288985
326191
139699
208945
447150
222906
192542
371696
114962
226660
208193
97511.2
1.06439e+07
208511
346031
517660
144031
221414
134040
151166
219987
287032
130982
419402
178788
212358
213210
347570
199779
293955
197570
157987
845817
216783
337101
171735
314434
221536
167021
354828
143703
237658
230477
185580
213950
247201
303215
211912
178487
185575
187141
178016
148358
219174
107408
169333
165674
191002
256215
242503
176831
351309
160469
1.78821e+06
205948
205599
139928
108234
78887.3
71303.7
62764.4
59242.9
117039
85928.4
79328.2
47955.1
74719.2
47993.4
26275.2
58503.8
32571.6
60508.8
62874.1
0
0
160.825
0
0
0
0
0
0
0
0
0
0
0
0
0
0
0
0
0
0
0
0
0
0
0
0
0
0
0
0
0
0
0
0
0
0
0
0
0
0
0
0
0
0
0
0
0
0
0
0
0
0
0
0
0
0
0
0
0
0
0
0
0
0
0
0
0
0
0
0
0
0
0
0
0
0
0
0
0
0
0
0
0
0
0
0
0
0
0
0
0
0
0
0
0
0
0
0
0
0
0
0
0
0
0
0
0
0
0
0
0
0
0
0
0
0
0
0
0
0
0
0
0
0
0
0
0
0
0
0
0
0
0
0
0
0
0
0
0
0
0
0
0
0
0
0
0
0
0
0
0
0
0
0
0
0
0
0
0
0
0
0
0
0
0
0
0
0
0
0
0
0
0
0
0
0
0
0
0
0
0
0
0
0
0
0
0
0
0
0
0
0
0
0
0
0
0
0
0
0
0
0
0
0
0
0
0
0
0
0
0
0
0
0
0
0
0
0
0
0
0
0
0
0
0
0
0
0
0
0
0
0
0
0
0
0
0
0
0
0
0
0
0
0
0
0
0
0
0
0
0
0
0
0
0
0
0
0
0
0
0
0
0
0
0
0
0
0
0
0
0
)
;

boundaryField
{
    inlet
    {
        type            zeroGradient;
    }
    outlet
    {
        type            zeroGradient;
    }
    wall
    {
        type            zeroGradient;
    }
    procBoundary0to1
    {
        type            processor;
        value           nonuniform List<scalar> 
192
(
52227.3
120195
98706.4
241300
317906
223129
211435
255501
103566
397113
262210
155459
1.4777e+06
267300
149165
9.26908e+06
147244
179326
736764
134817
1.69569e+06
115589
341184
5.3801e+06
42944.6
53076.7
114482
154074
0
0
0
111.592
0
0
0
0
0
0
0
0
0
0
0
0
0
0
0
0
0
0
0
0
0
0
0
0
0
0
0
0
0
0
0
0
0
0
0
0
0
0
0
0
0
0
0
0
0
0
0
0
0
0
0
0
0
0
0
0
0
0
0
0
0
0
0
0
72392.3
137713
104371
94530.9
234504
271912
179041
174143
311609
254211
219125
8.95665e+06
758213
533356
156503
285932
252583
199685
172831
336849
1.22403e+07
130600
316334
241900
125726
39284.9
38914.8
23153.6
0
0
0
0
0
0
0
0
0
0
0
0
0
0
0
0
0
0
0
0
0
0
0
0
0
0
0
0
0
0
0
0
0
0
0
0
0
0
0
0
0
0
0
0
0
0
0
0
0
0
0
0
0
0
0
0
0
0
0
0
0
0
0
0
0
0
0
0
)
;
    }
    procBoundary0to2
    {
        type            processor;
        value           nonuniform List<scalar> 
192
(
169462
216436
138711
116045
167321
376422
180054
5.30232e+07
349732
278182
222894
124749
170036
2.50028e+06
271007
327770
3.08785e+06
194328
180576
118697
115269
313317
325598
2.72294e+06
88785.3
74660.2
70086.2
63954.6
0
0
0
0
0
0
0
0
0
0
0
0
0
0
0
0
0
0
0
0
0
0
0
0
0
0
0
0
0
0
0
0
0
0
0
0
0
0
0
0
0
0
0
0
0
0
0
0
0
0
0
0
0
0
0
0
0
0
0
0
0
0
0
0
0
0
0
0
113447
74012.5
155358
97423.9
465062
246651
666331
577221
164657
99074.3
263242
135272
294250
149271
277198
200671
148607
245859
340941
170555
223979
90103.4
326540
163190
35453.6
14908.9
47000.9
22878.9
0
0
0
0
0
0
0
0
0
0
0
0
0
0
0
0
0
0
0
0
0
0
0
0
0
0
0
0
0
0
0
0
0
0
0
0
0
0
0
0
0
0
0
0
0
0
0
0
0
0
0
0
0
0
0
0
0
0
0
0
0
0
0
0
0
0
0
0
)
;
    }
}


// ************************************************************************* //
