FoamFile
{version 2.0; format ascii;class vectorField; location 0;object  v;}
2522
(
( 0.000270046 -0.000264086 0.0124459 )  
( -0.00224802 -0.000400582 0.013045 )  
( -0.000146748 0.000214784 3.15503e-05 )  
( 0.000430334 0.00134572 0.0182421 )  
( -4.01857e-05 0.00182111 0.0207804 )  
( 3.26693e-05 8.37733e-05 -8.23765e-05 )  
( 0.00129653 0.002851 0.0155927 )  
( 0.000110837 0.00261337 -0.000496083 )  
( -0.00300056 7.57173e-05 0.0139888 )  
( 6.89804e-06 -5.55679e-06 -8.61335e-06 )  
( 4.19726e-05 0.000329039 8.90529e-05 )  
( -0.00354773 0.000659733 0.0139835 )  
( 0.00568899 0.00339188 0.012785 )  
( -0.00230838 0.00242549 0.000289307 )  
( -0.00592345 -0.000785989 -0.00239998 )  
( 0.000492182 -0.000106996 0.0173191 )  
( -0.000304886 0.00181457 0.0145381 )  
( -0.00169532 5.57287e-05 0.0174312 )  
( 0.00209693 -0.00808981 -0.00445458 )  
( 0.00221607 0.00470516 0.0179983 )  
( 0.000784048 0.000309035 0.0143856 )  
( 0.00322506 0.00209814 0.0168121 )  
( 7.28779e-05 0.0010727 0.0161143 )  
( 0.00624644 -0.00390666 0.0172265 )  
( 3.49626e-05 -4.01044e-05 -9.69776e-05 )  
( 0.00114332 0.000582861 0.00937413 )  
( 0.000956375 0.00112022 -0.000294176 )  
( -0.000639155 -0.00149234 0.0159064 )  
( -0.000115489 0.00155501 0.0161569 )  
( -0.000508374 0.000607132 0.0229276 )  
( 3.75271e-05 -8.37665e-05 -1.74027e-05 )  
( -0.00238825 -0.00177865 -0.000188737 )  
( -8.10103e-05 0.000158218 1.02335e-07 )  
( -0.000319904 -0.000335315 1.78582e-05 )  
( -0.00128152 -0.000100211 0.0171222 )  
( 0.00475195 0.0026619 0.0171026 )  
( -0.00034029 2.58061e-05 -1.06538e-05 )  
( -0.000312006 0.000144687 -0.000217105 )  
( 9.43425e-05 6.33239e-05 0.000107039 )  
( 0.00175533 0.000147718 0.0156308 )  
( 0.00163849 0.00226105 0.0151913 )  
( 0.00213107 -0.000697814 0.0140706 )  
( -0.000957306 0.0013473 -5.43929e-07 )  
( 0.00126314 0.00194288 0.0212003 )  
( 0.00321208 0.00328114 0.0174177 )  
( -0.00027795 7.70168e-05 -0.000149032 )  
( 0.00194493 -0.000967433 0.018819 )  
( 2.48086e-05 3.30798e-05 -2.08968e-05 )  
( -7.12324e-06 7.92138e-05 -0.000197488 )  
( -2.4145e-05 3.30927e-05 -2.56464e-06 )  
( 0.00162703 0.0008847 0.0193159 )  
( 0.000491357 0.000342568 -2.07388e-05 )  
( 3.01531e-05 7.52162e-05 -3.53153e-05 )  
( -0.000121366 0.000244708 -7.62951e-06 )  
( -0.00284177 0.000518528 -0.00116561 )  
( -0.000291696 0.000123794 -0.000275177 )  
( -5.37847e-05 -0.000137773 4.53557e-05 )  
( -0.00112287 0.00279606 0.015636 )  
( 0.000185047 -0.00107935 0.0103974 )  
( -4.41018e-05 4.1524e-05 1.97765e-05 )  
( -0.00150464 0.000628312 0.0157557 )  
( 0.00171916 0.000843609 0.00899379 )  
( 0.00138075 0.000463853 0.0183885 )  
( -0.000108738 -0.000106592 -1.20507e-05 )  
( -0.00556825 0.00362904 0.0156745 )  
( 0.00258574 -0.00150818 0.0156133 )  
( 0.000934673 0.000261163 0.0137881 )  
( 0.00147573 0.00155855 0.0151691 )  
( -0.000365742 0.00263657 0.0139174 )  
( -0.000107768 4.15735e-05 -0.000401853 )  
( 0.0016882 -0.00188635 -0.000608668 )  
( 0.000412931 -0.000734348 0.0150899 )  
( -0.00112313 5.53304e-05 0.0158728 )  
( 0.00377513 -0.00159892 0.00881915 )  
( 0.000134922 -0.000150962 0.0161155 )  
( 0.00149758 -0.000686047 0.00916427 )  
( 0.00095183 0.000124782 0.0156334 )  
( -0.00103608 -0.000974963 0.0187755 )  
( 0.00237481 0.00238414 0.0143174 )  
( 0.000799102 -0.0015436 0.0163491 )  
( -0.000225645 0.00210955 0.0134614 )  
( 2.13908e-05 0.000108366 -2.94253e-05 )  
( -0.000263468 0.00215745 0.0179225 )  
( 0.000971499 -0.0028904 0.0170813 )  
( -0.000383828 0.000380667 -2.97784e-05 )  
( -0.000130736 -0.000406545 0.0122701 )  
( 0.00120243 0.0015509 0.0139538 )  
( 0.00160678 0.0010979 0.0122394 )  
( -3.65543e-05 4.1943e-05 5.03453e-05 )  
( -0.000790074 7.62366e-05 -0.00042272 )  
( 0.00213384 0.000344574 0.0136642 )  
( -0.000227889 -0.000672549 0.000210544 )  
( -0.000525683 0.000247824 0.0112092 )  
( 0.00100271 0.00131777 0.0168651 )  
( 0.000714868 0.000488184 -0.00123349 )  
( -0.00256369 -0.00162556 0.0155545 )  
( -0.000185922 0.000106424 -0.000175023 )  
( 0.000172925 0.000410431 -5.53354e-05 )  
( -2.47039e-05 8.79525e-05 5.51407e-05 )  
( 0.00154888 0.00332054 0.0127036 )  
( -0.000389344 0.00214294 0.017245 )  
( -0.00204198 0.00259403 0.0149154 )  
( 0.00311319 0.00131675 0.0149439 )  
( 0.00118741 0.000959435 0.0160962 )  
( -0.000403683 -0.000363995 -7.85109e-05 )  
( 0.00314728 0.00286188 0.0137948 )  
( -0.00112573 0.00130672 0.0160614 )  
( -0.000332407 0.000805224 0.0167576 )  
( 0.000108005 0.000112932 -6.55609e-05 )  
( 0.000132318 -4.43341e-05 6.34959e-05 )  
( -8.23539e-05 0.000103079 -0.000107319 )  
( 0.000392314 0.00163681 0.0182599 )  
( 0.000128667 0.000634445 0.0126937 )  
( -0.00198633 -0.00047692 -0.000705999 )  
( 0.000572292 0.00192622 0.0173481 )  
( 0.0003811 0.00245502 0.0127833 )  
( -0.00117856 -0.000546363 0.0154157 )  
( -0.00102689 0.00106751 0.0112403 )  
( -0.0028728 0.000931547 0.0188029 )  
( -0.00281645 -0.00188207 0.0132233 )  
( 0.00323961 0.00097901 0.0168644 )  
( -0.00440736 0.00378026 0.00956838 )  
( -0.00169458 0.00205254 0.0137024 )  
( 0.00339844 0.00162089 0.00982381 )  
( -0.00251785 -0.00182696 0.0161889 )  
( 0.000149239 6.17824e-05 2.07493e-05 )  
( 0.00214524 0.000881187 0.0168616 )  
( -0.000645466 -0.00330394 0.0201236 )  
( -0.00021589 -0.00182882 0.0174575 )  
( -0.000440424 0.00238506 0.0145716 )  
( 0.0052038 -0.00122392 0.0205297 )  
( 9.96784e-05 -9.58337e-05 -0.000368206 )  
( 0.000459688 0.00134181 0.0180397 )  
( -0.000341685 -0.00335334 0.0160325 )  
( 9.59561e-05 6.42321e-05 -3.4957e-05 )  
( -1.39391e-05 7.55362e-05 1.40125e-05 )  
( -0.000375872 0.00274387 0.0167288 )  
( 1.1952e-05 2.89067e-06 0.0167106 )  
( 0.00293582 0.00299824 0.0176933 )  
( 0.000607681 0.000525038 0.0170025 )  
( -0.000856474 0.000681051 0.0179847 )  
( -3.06482e-05 -0.000109314 -0.000193543 )  
( 0.00162281 0.000245176 0.0147189 )  
( -0.000386412 0.000494107 0.0143251 )  
( 7.03226e-05 -0.00012032 -4.38225e-05 )  
( -3.24691e-06 -1.23624e-05 3.12562e-05 )  
( 0.00274573 0.000562452 0.0151378 )  
( -3.21636e-06 -2.14511e-05 -1.74875e-05 )  
( -0.00047772 0.0019666 0.0122982 )  
( -0.00179018 -0.000975227 0.01449 )  
( 3.34756e-05 0.000410821 0.0173247 )  
( -0.000156392 4.71351e-05 2.3621e-05 )  
( 0.00183437 0.000734946 0.0199365 )  
( -0.000372361 0.0013895 0.0174622 )  
( -2.37941e-05 -3.74113e-05 -0.000103209 )  
( 0.0014726 0.00227508 0.0169677 )  
( -0.000850635 -0.00102754 0.0154934 )  
( -0.00173286 0.00350962 0.0121259 )  
( -0.00218643 0.00446048 0.0101692 )  
( 4.54595e-05 -7.95968e-05 -3.06352e-06 )  
( -3.06645e-05 -7.03377e-05 0.000121548 )  
( 0.00202684 -0.000940997 0.0195363 )  
( 0.000735368 -0.00057671 0.0144507 )  
( 0.0013326 0.00165627 0.0151873 )  
( 0.000627262 -0.00039499 0.0138178 )  
( -3.20145e-05 -3.67262e-05 -8.02086e-05 )  
( 0.000254578 -0.00741915 0.0122125 )  
( 0.000114535 0.00239238 0.0159635 )  
( -0.000182985 0.000904073 -9.89674e-07 )  
( -0.000102912 0.000114633 0.0178373 )  
( -0.000413504 0.00037774 -0.000165011 )  
( -0.000342966 -0.00010021 -0.00126744 )  
( -0.00161349 0.00121923 0.0202214 )  
( 0.00289827 0.000771711 0.0178643 )  
( -0.00135063 -0.00249235 0.0133977 )  
( 0.00258021 0.000526866 0.0139587 )  
( 0.00236458 -0.00152345 0.0182816 )  
( -0.00154294 0.00229707 0.0117888 )  
( 0.00299959 -0.000297936 0.0107372 )  
( -0.000614292 -0.00143202 0.012943 )  
( 0.000372671 0.000755206 0.0200745 )  
( 0.00117235 0.00102565 0.0157154 )  
( 0.00427214 0.000566721 0.0174745 )  
( -0.00202843 0.00370712 0.0116648 )  
( 0.000180832 7.76329e-05 1.089e-05 )  
( 0.00109752 -0.00160705 0.0168938 )  
( 0.00237626 0.000118241 0.0145249 )  
( -0.00195806 -0.00280352 0.0113729 )  
( -0.000250059 0.000354036 0.019168 )  
( 0.000136846 -6.83968e-05 -7.35084e-06 )  
( -0.000826363 0.00228382 0.0129798 )  
( 0.00361104 0.000639695 0.0130224 )  
( -0.000853418 -0.000370651 0.0155251 )  
( 9.18262e-05 0.00218605 0.0172477 )  
( 0.0040854 0.000335625 0.0119546 )  
( -0.0012158 0.000569067 0.0118649 )  
( 3.59577e-06 1.03888e-05 -6.22465e-06 )  
( -0.00148861 0.000402663 0.0143916 )  
( -0.00156015 0.000687273 0.0114198 )  
( -0.00140865 -0.00270731 0.0111985 )  
( 0.000106404 0.000533333 0.0169945 )  
( -0.00216734 0.00143789 0.0119604 )  
( 3.84994e-05 4.81026e-05 5.38653e-05 )  
( 0.000131359 -1.7129e-05 -0.000137835 )  
( 0.00132134 0.00212918 0.0180562 )  
( 0.00148693 0.000960466 0.0192528 )  
( 0.000743147 -0.001911 0.0123448 )  
( 7.00357e-06 0.000168366 -0.000164396 )  
( 0.00116821 0.000524988 0.0325868 )  
( 0.00191715 0.000220169 0.0195868 )  
( -9.72089e-05 0.000204356 -1.52579e-05 )  
( 0.00155856 0.000974522 0.0156916 )  
( -0.00235723 -0.000585946 0.0183041 )  
( 0.000544416 0.00123875 0.0201361 )  
( 0.000201755 0.00160144 0.0169664 )  
( -0.00170939 -0.00120075 -0.000372132 )  
( 6.81659e-05 0.000289576 -7.38076e-05 )  
( 0.00258958 -0.00105183 0.0144393 )  
( -0.00182222 -0.000812613 0.0155876 )  
( 0.00137736 -0.000583424 0.00919302 )  
( 0.0015079 4.06561e-05 0.018729 )  
( 0.000252774 0.000895037 0.0195966 )  
( 0.000443646 0.000668868 0.010183 )  
( 0.00410465 0.000787551 -0.00240567 )  
( 0.000611785 0.00044681 0.0171082 )  
( -0.000417554 -0.000350043 0.0189738 )  
( -0.00185605 0.00174011 0.00897754 )  
( 0.00062848 0.00121395 0.013905 )  
( 0.000448787 -0.000868316 -0.000637757 )  
( -0.000580853 -0.00162333 0.0154873 )  
( -0.00191845 -0.00218937 0.00303808 )  
( -0.0025406 -0.00129327 0.0145978 )  
( -0.000553623 0.0013803 0.0169141 )  
( 0.000720234 0.00138744 0.0153443 )  
( 0.0016893 0.00132177 0.0137494 )  
( 0.000115461 -0.000569262 7.76101e-05 )  
( -0.000260571 -0.00035811 3.66723e-05 )  
( 8.07393e-05 -2.74055e-05 -1.73709e-05 )  
( 0.00116047 0.00150527 0.0130854 )  
( -0.000125072 0.00338987 0.0161502 )  
( 0.000960338 0.000470559 0.0190336 )  
( 0.00159969 0.00228245 0.0144076 )  
( 0.00263916 -0.00312897 0.0163111 )  
( 0.000252394 -0.00119482 0.0149431 )  
( -0.000169172 0.000150336 2.03458e-05 )  
( 7.08639e-06 2.34934e-05 5.36535e-05 )  
( 6.5334e-05 -0.000118512 5.04093e-05 )  
( 0.00221678 0.0004736 0.0168717 )  
( -0.00343875 0.00323494 0.0125561 )  
( 0.00203852 2.56387e-05 0.0197125 )  
( 0.00029644 0.00176731 0.0166049 )  
( 0.000936102 0.00202175 0.0178829 )  
( 0.000761459 0.000552261 0.0166292 )  
( 0.000288408 0.00232131 0.0164405 )  
( -0.000635989 -0.000121311 -0.000518526 )  
( -0.00279541 -0.00041951 0.018449 )  
( 0.00160215 -0.000742632 0.0194112 )  
( -0.000354275 0.00131576 0.0169928 )  
( 2.89625e-05 -5.19043e-05 -8.33972e-05 )  
( 0.000957518 -8.30065e-05 0.0170088 )  
( -0.000334433 0.000360881 0.0202537 )  
( -0.000317318 0.00112272 0.0138093 )  
( 0.000146647 -0.000430866 -0.000288635 )  
( 0.000849027 -0.0018248 0.0174926 )  
( -0.00124831 -0.000618273 0.0159401 )  
( -0.0010855 0.00326332 0.0150783 )  
( 0.000637073 -0.00126162 0.0178488 )  
( 6.08311e-05 3.97732e-05 -1.31028e-05 )  
( 0.000152985 0.000259936 0.0186054 )  
( -0.000500034 -0.00104509 0.0171582 )  
( 0.00613288 -0.00340267 0.0110271 )  
( 0.00257226 -0.000834651 0.0144099 )  
( 0.0040334 -0.000929761 0.0249472 )  
( 0.00101634 0.00135913 0.014652 )  
( 0.000283757 -0.000442336 -0.000240879 )  
( -0.00140602 0.00112495 0.0167672 )  
( -0.000118138 0.000110867 -8.76935e-05 )  
( 0.000698854 -0.00161589 0.0146171 )  
( 0.00234694 0.00131517 0.0115549 )  
( -0.00212539 0.00120992 0.0130028 )  
( -0.00161092 0.000980849 -1.43351e-07 )  
( 0.000100514 -7.8903e-05 0.0121869 )  
( 0.00150376 -0.00270044 0.0125657 )  
( -0.000201501 -0.00194549 0.0137126 )  
( -0.000411939 -0.00265307 0.0127997 )  
( 0.00176974 -0.000178315 0.0180905 )  
( 0.00306551 -0.00118814 0.0164918 )  
( 0.00229878 0.00199373 0.0173211 )  
( -0.000154654 0.00110719 0.0174804 )  
( 3.76605e-05 0.000617914 0.0163804 )  
( -9.87445e-05 4.8884e-05 -1.98181e-06 )  
( 0.00584332 -0.00276495 0.0156056 )  
( 0.00312809 -0.00122359 0.0206301 )  
( -0.00115375 -0.00202189 0.0179868 )  
( 0.00219281 -8.92154e-05 0.0161555 )  
( 0.00095916 0.00056528 0.0191152 )  
( 0.00209883 0.00166684 0.018552 )  
( -0.00265517 0.00342225 0.0145405 )  
( 0.00185978 0.00119435 0.0185471 )  
( 0.000387834 0.00169373 0.0181619 )  
( 0.00267278 0.00154981 0.013526 )  
( 0.00112183 0.00212723 0.0165456 )  
( 0.000902563 0.00275103 0.0172523 )  
( 8.55586e-05 0.000471309 0.0151833 )  
( -0.00134653 -0.00222104 0.0132897 )  
( 0.00029944 -0.000321572 7.44029e-06 )  
( 0.00120041 0.00294649 0.015176 )  
( -4.69682e-05 3.31049e-05 4.96512e-05 )  
( 0.00206288 -9.07132e-05 0.0152799 )  
( 0.00083828 0.000656384 0.00953317 )  
( -0.000260877 0.00221938 0.01748 )  
( -0.00445346 0.00853939 0.0114973 )  
( 1.99419e-05 7.56518e-05 -3.69481e-05 )  
( -0.00205074 -0.000661803 0.0163418 )  
( 0.00209451 -0.0021685 0.00899406 )  
( -0.00263836 -0.00246744 0.00102399 )  
( -0.000206145 0.000149094 0.0151795 )  
( 0.000613175 -0.000505284 0.010646 )  
( 0.000988195 0.00153285 0.017951 )  
( -0.000116597 0.000189516 3.12519e-05 )  
( -0.000240731 0.00012326 0.00022084 )  
( 0.000283343 -5.08926e-05 0.0153131 )  
( -0.000202981 -0.0001164 0.000249446 )  
( 0.00153018 0.002681 0.0160787 )  
( 0.00011976 0.00176839 0.0158735 )  
( 0.00142435 0.000912671 0.0143488 )  
( -0.000794037 0.000922646 0.0115182 )  
( -0.00069687 0.00210872 0.0123224 )  
( 0.0015086 -0.00182768 0.0165978 )  
( 2.32103e-05 -0.000701485 -0.000171012 )  
( 1.57089e-05 1.27801e-05 -1.32828e-05 )  
( 0.00299834 0.00214265 0.0128689 )  
( -0.00191711 0.000585201 0.0152729 )  
( 0.00150435 -0.000190929 0.0193 )  
( 0.00135106 0.00117618 0.0195836 )  
( 0.00109423 -0.000420285 0.00098504 )  
( -2.12601e-05 4.15304e-05 2.25285e-05 )  
( 0.000183502 0.000337243 -0.000177029 )  
( -0.000566762 -0.000305221 0.0200911 )  
( 8.27027e-05 1.6465e-06 -4.53931e-06 )  
( 0.000465669 -0.00367829 0.0119958 )  
( 3.18849e-06 0.00033116 0.0162852 )  
( -0.000371654 -0.00178744 0.0153334 )  
( 0.00437617 -0.00162026 0.015312 )  
( -0.00173681 0.0027992 0.0204037 )  
( 0.000193382 -4.0854e-05 3.64995e-06 )  
( -0.00285757 -0.000270736 0.0173843 )  
( 7.89352e-05 9.95132e-05 -8.06713e-05 )  
( 0.000483368 0.000202624 0.0176514 )  
( 0.00178481 0.00175179 0.0188207 )  
( 0.0026337 3.34694e-06 0.0135117 )  
( -0.000368924 8.43177e-05 -0.000108413 )  
( 0.00108736 -0.000122813 0.0193717 )  
( 0.000120099 0.00165558 0.0169552 )  
( 0.000445553 -0.00180295 0.0145879 )  
( 0.000244841 9.49608e-05 3.74685e-05 )  
( 0.00393281 -0.000275003 0.0170025 )  
( 0.00111942 0.0022458 0.0166343 )  
( -0.000167152 -1.84934e-05 0.0180638 )  
( 0.00103791 -0.000505221 -0.00118357 )  
( -0.00117417 -0.00265716 0.0138361 )  
( -0.000724495 0.0010192 0.0150555 )  
( 0.000410331 -0.00187627 0.017142 )  
( 0.00216539 -0.000136518 0.0190245 )  
( -0.00134694 0.00130384 0.0151176 )  
( 0.00137377 -9.48487e-05 0.0140162 )  
( -1.23138e-05 -3.93161e-05 0.000103015 )  
( 3.3603e-06 0.0018607 0.0175272 )  
( 7.88948e-06 -1.48581e-05 -5.5508e-05 )  
( 0.000421951 -0.0026037 0.0196618 )  
( 0.000707673 0.000326111 0.0191086 )  
( 0.000270632 -3.99852e-06 0.0191301 )  
( 5.88017e-05 -3.47345e-05 -8.17907e-06 )  
( -5.95616e-05 8.26274e-06 1.5402e-06 )  
( 0.000217202 -0.000666985 0.0135929 )  
( -0.00219347 0.000148942 0.0159817 )  
( 0.00276881 0.00193824 0.0174884 )  
( -6.21401e-05 -0.000117818 1.15292e-05 )  
( 0.0026287 0.00158781 0.0151513 )  
( 5.97362e-05 0.000294237 0.0187532 )  
( 0.00105234 0.000989797 0.018355 )  
( 0.000708557 0.00165619 0.0179435 )  
( 0.00152895 0.00043435 0.0187035 )  
( -5.6746e-06 5.38199e-05 -8.18324e-06 )  
( -0.00179893 0.000750286 0.0126486 )  
( -0.000203179 -0.000158933 2.45684e-05 )  
( -0.000413995 3.78092e-05 -0.000231857 )  
( 3.3719e-05 3.21423e-05 -8.85626e-06 )  
( 0.000450694 0.00192415 0.0168501 )  
( -0.000418035 -0.00104859 3.02761e-05 )  
( -0.000125656 -0.00386699 0.0155836 )  
( 0.00126975 -0.000317447 0.0212089 )  
( -0.000153253 1.55534e-05 -0.000103577 )  
( 0.001238 0.00221968 0.0161693 )  
( -0.000903167 -0.000246114 -1.36432e-05 )  
( 0.000502521 0.000585045 1.16887e-05 )  
( 0.00187516 0.00306961 0.0172896 )  
( 0.00112235 0.00187366 0.0162652 )  
( 0.0022572 -3.1547e-05 0.0126056 )  
( 0.000664983 0.0010379 0.0144358 )  
( 0.00057151 0.000834345 0.0169656 )  
( 6.49861e-05 -4.38309e-05 1.2419e-05 )  
( 8.75213e-05 5.00399e-05 2.83369e-05 )  
( -0.00400284 0.00787739 0.0109106 )  
( -0.000107617 -0.000943476 0.0107637 )  
( -5.63103e-05 0.000815695 0.0171163 )  
( 0.000245037 -0.00186839 0.0169395 )  
( -0.000917394 -0.000398991 0.0115204 )  
( 0.000719476 0.00259708 0.013434 )  
( 0.000641199 -0.00184434 0.0100433 )  
( 0.000172864 8.99552e-05 -0.000109765 )  
( -5.93207e-06 5.65704e-05 -4.608e-06 )  
( -0.00113402 -0.00077959 0.0142617 )  
( 0.00284957 0.000857091 0.0147991 )  
( 4.9108e-05 1.98786e-05 -6.8644e-06 )  
( 0.00301364 0.00105288 0.0179209 )  
( -0.000506666 0.00260925 0.0162749 )  
( 0.00242223 -0.000884299 0.0188946 )  
( 0.000992002 -0.000605005 0.0196232 )  
( 0.00168284 -0.000291639 0.0157878 )  
( -1.14189e-05 3.68407e-06 -6.03711e-06 )  
( -0.000807417 0.00124479 0.0189017 )  
( -7.48327e-05 1.30782e-05 6.56284e-05 )  
( -0.00123079 -0.00492356 0.0204329 )  
( 0.000725345 0.00204726 0.0161526 )  
( -0.00198428 -0.00340888 -0.000855306 )  
( 0.00088892 -4.16383e-05 0.0132159 )  
( 0.000345752 -0.00376299 0.0147813 )  
( -0.000695995 0.00134481 0.0167133 )  
( -0.00267963 0.00129863 0.00789307 )  
( 0.00052378 0.00026684 0.0191119 )  
( 0.00142781 0.00318943 0.015521 )  
( 5.34628e-05 3.106e-06 -2.06001e-05 )  
( -0.00138172 -0.000983986 0.0110782 )  
( -0.00247882 -0.000515161 0.0158422 )  
( 0.0030132 -0.00106502 0.0160316 )  
( 2.61571e-05 0.000128734 -4.93117e-05 )  
( 0.00137699 8.7803e-05 0.0162055 )  
( 0.000360604 0.000590272 0.017653 )  
( 0.00681419 0.00219635 0.0218426 )  
( 0.00195771 5.91143e-06 0.0123661 )  
( -0.00172455 0.00065382 0.0142681 )  
( -2.7324e-05 -7.43002e-06 9.0787e-07 )  
( 0.000246519 0.0021853 0.0178595 )  
( 0.000251509 0.000934364 0.0172704 )  
( 0.0002388 0.00234964 0.024149 )  
( 0.00176859 0.00142783 0.0125891 )  
( 0.000841874 -4.23709e-05 -0.000457506 )  
( 0.000477562 0.000909814 0.0156684 )  
( 0.00256476 0.000693399 0.0167831 )  
( -0.00182895 0.00216508 1.05901e-07 )  
( -0.00288418 -0.000761832 0.0145125 )  
( -0.00264432 0.00564512 0.0110538 )  
( 2.87877e-05 6.38165e-05 1.9238e-05 )  
( -0.000114649 -0.000323149 0.0118285 )  
( -0.000431225 0.00149237 0.0149762 )  
( -0.000175077 8.98911e-05 -7.17132e-05 )  
( 4.24236e-05 7.35784e-05 -1.15211e-05 )  
( 0.00253509 0.00102584 0.0192495 )  
( 2.19315e-07 0.000409873 0.0137801 )  
( 0.000803223 0.000646504 0.0143453 )  
( -0.000227005 -0.000204807 -0.00029555 )  
( -1.56664e-05 -3.09275e-05 1.92574e-05 )  
( 0.00236025 0.00130851 0.0141609 )  
( 0.00224463 0.00318698 0.0139699 )  
( -0.00153922 -0.00368504 0.0152229 )  
( 0.00195468 -0.00175666 0.0141914 )  
( 0.00283798 0.000848172 0.0163721 )  
( -0.00166917 -0.0023214 0.0100521 )  
( 6.04803e-05 0.000544531 0.0226223 )  
( 0.00297301 0.000813185 0.0112412 )  
( 0.000429758 0.000824783 0.0174452 )  
( 0.00200502 0.000117709 0.00922149 )  
( 0.000953493 -0.000206823 0.0154182 )  
( 0.000691091 0.00077191 0.0161283 )  
( -0.00245815 0.00146044 0.00713619 )  
( 4.51179e-05 0.00189947 0.0149962 )  
( -0.000618484 -0.00048007 0.0208317 )  
( 0.000971636 -0.000103559 0.0182 )  
( -0.00165114 -0.000647708 0.0186893 )  
( -0.00274561 0.00121477 0.0156706 )  
( -0.00161052 -0.000842132 0.000172831 )  
( 0.00114935 0.00221544 0.0145824 )  
( -0.00243659 0.00254247 0.0152273 )  
( 0.00122684 -0.00178739 0.0148017 )  
( 0.000887855 0.00090014 0.0173799 )  
( 0.00548516 0.00640601 0.0273823 )  
( 0.000491838 -0.000217516 0.0140172 )  
( -0.00256206 0.00031276 0.0150917 )  
( -0.000264185 -0.000187033 -3.28341e-05 )  
( 0.00227993 0.00135639 0.0162025 )  
( 0.00462419 0.00145532 0.0117764 )  
( -0.000124108 0.000599383 0.0122595 )  
( -0.000835362 0.00232793 0.0165399 )  
( 0.000721351 0.000828699 0.0138203 )  
( -0.00105609 -0.00190809 0.0171467 )  
( -2.81608e-05 -0.000114161 3.99784e-05 )  
( 6.8055e-05 8.19287e-05 -0.000224261 )  
( 0.000956374 -0.00146296 0.0157964 )  
( -0.000720857 0.00321524 0.0151195 )  
( 0.00063812 0.000570203 0.0168065 )  
( -0.000369435 0.00147083 0.0148975 )  
( -0.00181547 0.00352874 0.0193125 )  
( -0.000307075 0.000113342 -0.000303587 )  
( -6.56476e-06 0.000449589 0.0123605 )  
( -0.00385463 -0.00452917 0.0166793 )  
( 0.000240982 0.000541221 -0.000392452 )  
( 2.65912e-06 0.00011176 -2.58736e-05 )  
( 0.00113403 -0.00178069 0.016884 )  
( 3.84706e-05 -6.70328e-05 -1.34181e-05 )  
( -0.000631957 0.000378568 0.0174889 )  
( 6.20706e-06 8.59921e-05 6.917e-05 )  
( -0.000206906 0.00147216 0.0161384 )  
( 0.00012525 -0.000135344 8.5627e-06 )  
( 0.0012654 0.00030777 0.0170156 )  
( 0.00191793 0.00200847 0.0146528 )  
( -4.81848e-06 3.37011e-06 1.34181e-06 )  
( 0.00279084 0.00189864 0.0141558 )  
( -0.000918465 0.00207538 0.0163625 )  
( 0.000116662 -5.47501e-05 -0.000117425 )  
( -5.73602e-05 0.000755475 0.0124252 )  
( -0.000978553 0.0014705 0.0146654 )  
( 0.00146149 0.00161531 0.0162545 )  
( 2.09668e-05 0.000197985 0.0159319 )  
( -0.00152718 0.00321481 -0.00203946 )  
( -0.000119559 -3.52495e-05 -1.26714e-06 )  
( 3.58538e-05 4.24278e-05 -1.43631e-05 )  
( -4.12416e-05 -9.48392e-06 4.21195e-05 )  
( -0.00144564 0.00421297 -0.000613187 )  
( -0.0010425 0.00271668 0.0144137 )  
( 0.000208095 -0.000363842 -8.00257e-05 )  
( 0.00158474 -1.86397e-05 0.0112709 )  
( 0.000561209 -0.00227723 0.0138602 )  
( 0.00154326 0.00138359 0.0145058 )  
( 0.0040225 -0.000668534 -4.94537e-07 )  
( 0.000496625 0.00106609 0.012867 )  
( -0.00012483 0.00115028 0.0179231 )  
( 6.39639e-05 -7.15245e-07 2.32058e-05 )  
( -0.00212531 -0.00198075 0.0122156 )  
( -3.46514e-05 3.40487e-05 -2.79292e-07 )  
( 0.00150022 2.47009e-05 0.0183609 )  
( -0.0014721 -0.00167553 0.0124603 )  
( 0.000213616 0.00026566 9.88502e-06 )  
( 8.46485e-06 -7.98736e-06 -1.32778e-05 )  
( 0.00172214 -5.70478e-05 0.0190401 )  
( 0.0013813 0.00148438 0.0156988 )  
( 0.00214991 -0.000706865 0.00902025 )  
( 0.000716396 0.000819266 0.0102225 )  
( -0.000485051 0.000365807 0.0164065 )  
( 0.00133581 -0.000157761 0.0173762 )  
( -0.00133171 0.00372333 0.0103364 )  
( 0.000138367 0.000223425 3.00889e-05 )  
( -0.000182702 0.000256721 -0.000148034 )  
( -0.0003286 0.00216318 0.0102326 )  
( 0.000550278 0.00166373 0.0165801 )  
( -0.0012549 -0.000992888 5.60374e-05 )  
( 0.00146947 0.000976654 0.0196587 )  
( -0.000630374 0.00141817 0.0142398 )  
( 0.00106258 0.000956796 0.0194001 )  
( 0.00505276 0.000905118 0.0169702 )  
( -0.000344455 1.49421e-05 -4.77671e-05 )  
( 6.87262e-07 -0.000124076 -1.41457e-05 )  
( 0.000304618 -0.000176517 0.0194923 )  
( 0.000825142 0.000613133 0.0186007 )  
( 0.000334127 0.000627169 0.0122712 )  
( 0.0018443 0.00267722 0.0192273 )  
( 0.00310122 0.000423519 0.0176389 )  
( 0.00157622 0.00135917 0.0156122 )  
( -0.000318137 0.000105174 -0.000228842 )  
( -9.3604e-05 0.000144041 -0.000151395 )  
( 0.000274188 -3.28899e-05 -8.07778e-05 )  
( -1.55763e-05 -9.92268e-06 -7.41981e-05 )  
( -4.29525e-05 5.63369e-05 -0.00018091 )  
( -0.000408268 -0.000418882 -6.98862e-05 )  
( 0.00104373 0.00147415 0.0166575 )  
( -0.000232821 0.00125891 0.0177213 )  
( 8.10574e-06 -0.000103086 -0.000364871 )  
( 0.0012709 0.000714312 0.00941226 )  
( 0.00181012 -0.000468641 0.00583357 )  
( 0.00288513 0.00186622 0.0142842 )  
( 0.000280665 0.000560561 0.0176992 )  
( 0.0016225 0.00375118 -0.00150987 )  
( 0.00221286 -0.000264172 0.0181567 )  
( -0.00167488 0.00229568 -5.02222e-05 )  
( 0.00161177 -0.000458396 0.0188556 )  
( -0.000167114 4.12679e-05 -3.56619e-05 )  
( 0.000762728 0.000805598 0.0184982 )  
( 1.22953e-06 8.81048e-06 -1.31232e-06 )  
( -4.65743e-05 -0.00116195 0.0152787 )  
( 0.00140851 5.16169e-07 0.0134469 )  
( -0.000115122 -5.47076e-05 1.10117e-05 )  
( -0.00180242 -0.00319217 0.0116842 )  
( -8.97482e-05 0.00128292 0.0151313 )  
( 0.000166063 0.000260963 -0.00027525 )  
( 0.00309743 0.000209439 0.019465 )  
( -0.00162689 0.00145664 0.012607 )  
( -0.000226169 -0.00148856 0.012398 )  
( -0.000305223 0.000920464 0.0186326 )  
( -0.00282102 0.00436227 0.0117119 )  
( -0.00516421 0.00768526 0.0124654 )  
( 0.000426144 -0.000143314 0.0153442 )  
( 0.000402914 0.00233384 0.0164067 )  
( 0.000355775 0.000843508 0.0172402 )  
( -0.00241458 -2.25106e-05 0.0161506 )  
( -0.00262171 -0.00261546 0.0149005 )  
( -0.00326696 0.00129997 0.018632 )  
( -0.000137751 -1.4352e-05 2.4944e-05 )  
( 0.000273225 0.000704922 1.49599e-05 )  
( 0.00171535 0.000985634 0.0177038 )  
( -0.00186756 -7.62233e-05 0.0168743 )  
( -3.20168e-05 0.000110915 -1.41903e-05 )  
( 0.000206989 0.00148703 0.0157479 )  
( 0.00210125 -0.00249012 0.0182806 )  
( -0.000712819 0.00149459 0.0160575 )  
( -0.000565164 0.00432836 0.0180075 )  
( -0.000515369 -0.00064514 0.0192442 )  
( -0.000717168 0.00111349 -0.000653106 )  
( -0.0026246 0.00179503 7.37814e-06 )  
( -0.000690256 0.00285954 0.0204144 )  
( 0.000171394 0.000164755 -0.000171349 )  
( 8.04298e-05 0.000247636 -0.000225061 )  
( 0.000873133 0.00300622 0.0172496 )  
( 0.00114026 5.59041e-05 0.0171446 )  
( 0.00224652 0.000389671 0.0168541 )  
( 0.0018804 9.55123e-05 0.0132776 )  
( 2.81435e-05 -3.844e-06 -1.94776e-05 )  
( 0.000741035 0.000918374 0.0180877 )  
( 0.000266953 0.000973916 0.0202266 )  
( 0.000136621 0.000336239 0.0146136 )  
( -0.0037593 0.00215294 0.0178385 )  
( 0.00256384 0.000843888 0.0153119 )  
( 0.00141902 0.00372196 -0.000769145 )  
( 0.00116324 0.000197795 0.0198921 )  
( -0.000737465 0.000940994 0.0197242 )  
( 0.000164395 0.000517545 0.016124 )  
( -0.00176013 -2.522e-05 0.0113506 )  
( 0.00105875 0.000145622 0.0192462 )  
( -0.00049157 4.8419e-05 -0.000148177 )  
( 8.08776e-05 0.000227446 -0.000250704 )  
( 0.00108593 -0.00164998 0.016574 )  
( -3.43359e-05 -1.43804e-05 1.66307e-05 )  
( 1.48972e-05 0.000103268 3.62445e-05 )  
( 0.00268618 0.000294188 0.0142797 )  
( -8.06876e-05 0.000304489 1.11864e-05 )  
( 0.00157961 0.00136834 0.0157969 )  
( 0.00200664 -0.00226342 0.0112838 )  
( 0.000871024 0.0017919 0.017469 )  
( -0.000812018 0.00240559 0.0149666 )  
( -6.68538e-05 6.70953e-05 4.07714e-06 )  
( 0.00218574 0.00209504 0.0138175 )  
( 0.0018275 0.00276369 0.00891088 )  
( -0.00074422 -0.00105967 -9.33606e-05 )  
( 0.00284447 -0.000415885 0.0114473 )  
( -0.000415094 -0.00121512 0.00674363 )  
( 0.00089597 0.000127754 0.0167034 )  
( 0.000897355 0.00152058 0.0181518 )  
( -4.88839e-05 0.00301755 0.0196053 )  
( -4.95418e-05 6.69904e-05 -3.48889e-05 )  
( -3.98155e-05 -4.01318e-05 1.50841e-05 )  
( 0.00195066 0.00024366 0.0154408 )  
( 0.00176584 0.00125683 0.0170592 )  
( 0.000902321 0.00207796 0.0169719 )  
( 0.00149741 0.000515615 0.0190681 )  
( 0.000857358 0.00083719 0.0142605 )  
( -0.0002841 0.000809666 0.0147867 )  
( 0.00215739 0.000906472 0.0189252 )  
( -0.000230194 0.00010381 0.0158374 )  
( -0.000160809 0.000476826 2.05747e-05 )  
( 0.00241232 0.000363029 0.0159498 )  
( 0.00403325 0.000699874 0.0152226 )  
( -0.00336075 -0.000482449 0.0151603 )  
( -0.00216385 -0.000170182 0.0117432 )  
( 0.00018605 0.000117218 4.54856e-05 )  
( -1.87236e-05 1.18704e-05 8.52282e-06 )  
( 9.53996e-06 -0.00105772 0.0158626 )  
( 0.00125068 0.00066178 0.0165369 )  
( 1.0608e-05 0.000236599 -1.97182e-05 )  
( 0.000235174 0.000310267 0.000114015 )  
( 0.000536408 0.00131305 0.0139491 )  
( 0.000146294 0.000485649 0.0139562 )  
( 0.000172604 0.00112799 0.0165814 )  
( -8.31866e-05 -8.13868e-05 -7.49667e-05 )  
( -0.00306622 0.00573083 0.00936998 )  
( -0.00384792 0.00375056 0.0109172 )  
( 0.000480812 -0.000340419 0.0147498 )  
( -0.00256739 0.00137133 0.00738582 )  
( -8.3663e-05 -5.13014e-05 -3.163e-05 )  
( 0.000731991 0.0019092 0.0156629 )  
( -0.000126012 7.43573e-05 7.75028e-06 )  
( -0.000212432 -6.3424e-05 -5.10754e-06 )  
( -0.00172827 0.000431207 0.0133039 )  
( 0.00221241 0.00173733 -0.000357596 )  
( 0.00177063 -0.00180904 0.0157251 )  
( 1.94081e-05 6.4321e-05 -6.72005e-05 )  
( -0.00170224 0.00128598 0.0192972 )  
( 0.00175679 -0.000297966 0.014429 )  
( 0.000881642 0.000945898 0.0142085 )  
( 0.000306176 0.000467263 0.01649 )  
( -7.99418e-05 -7.88576e-05 -8.41801e-06 )  
( -0.00179228 0.0037409 0.0226274 )  
( -6.77768e-05 -6.51529e-05 -5.27535e-05 )  
( 0.000736274 0.00234573 0.0166441 )  
( 0.00326356 0.000426445 0.0158493 )  
( 0.00164252 -0.000416617 0.0186838 )  
( 0.00197216 0.000535984 0.0180078 )  
( 0.00138877 0.000736075 0.012103 )  
( 0.00058508 0.00118346 0.0140667 )  
( 0.00386142 -0.00127172 0.00856727 )  
( 0.00288519 6.85263e-05 0.0106435 )  
( -0.000663006 -0.000956554 0.0146382 )  
( 0.00235926 0.00183059 0.0179251 )  
( -2.90194e-05 1.06093e-05 -6.2073e-05 )  
( 9.92942e-06 -8.26847e-08 -5.0829e-05 )  
( -0.00235763 0.000128131 0.0146799 )  
( -3.66045e-05 3.24166e-05 -1.25347e-06 )  
( 0.000769697 -0.000108947 0.0142278 )  
( 0.000203891 0.00139187 0.0171303 )  
( 0.00197512 -0.000580644 0.0186755 )  
( -0.00563601 -0.00301696 0.018401 )  
( 0.00105583 0.000334828 0.0135375 )  
( 0.000305653 0.00196129 0.0163341 )  
( -0.00182551 0.00786977 0.0112113 )  
( 0.00043209 -0.00230847 0.0154415 )  
( -0.00342321 -0.000911768 6.03013e-05 )  
( -0.000654321 0.0022286 0.0183045 )  
( -0.00044399 -1.7894e-06 -0.000492001 )  
( 0.000456976 -0.000833853 -0.00059237 )  
( 0.000650326 0.000131599 0.0148037 )  
( 0.000478575 0.000655909 0.0157466 )  
( -0.000885235 0.000155891 0.0116322 )  
( 0.00114118 0.00162048 0.0184846 )  
( -0.00094868 -0.00183522 0.0164941 )  
( -0.000487153 0.000212195 -0.000723162 )  
( -0.00122092 -0.001467 0.0176631 )  
( -0.00183952 -0.00255118 0.0169324 )  
( 0.00123815 0.000165397 0.0110906 )  
( 0.00178689 -0.00121477 0.0187064 )  
( -0.000825845 0.000132168 0.0114697 )  
( 0.00197405 0.00141455 0.0163745 )  
( -0.0020438 -0.0015333 0.0167336 )  