FoamFile
{version 2.0; format ascii;class Cloud<passiveParticle>; location 0;object  positions;}
2466
(
( 0.00164773 0.00582333 0.00533858 ) 0 
( 0.00071393 0.00249445 0.00540056 ) 0 
( 0.0112355 0.00426421 0.0052934 ) 0 
( 0.00398964 0.0051574 0.00534692 ) 0 
( 0.00605063 0.0064014 0.000499887 ) 0 
( 0.00418227 0.00480912 0.006747 ) 0 
( 0.00840308 0.0031338 0.00401286 ) 0 
( 0.00594553 0.00906018 0.00561794 ) 0 
( 0.00624101 0.00374171 0.0037824 ) 0 
( 0.00463611 0.00101552 0.00859637 ) 0 
( 0.00778554 0.00472929 0.00376007 ) 0 
( 0.00489218 0.0114494 0.00119821 ) 0 
( 0.00852229 0.00275226 0.000499579 ) 0 
( 0.00849204 0.00397971 0.00616475 ) 0 
( 0.00460609 0.010836 0.0028699 ) 0 
( 0.000837769 0.000491395 0.0060436 ) 0 
( 0.00165833 0.00569684 0.00225969 ) 0 
( 0.00427887 0.00012399 0.00826239 ) 0 
( 0.00375101 0.000192233 0.00741625 ) 0 
( 0.0078755 0.00922656 0.000499713 ) 0 
( 0.00492395 0.0054877 0.00547955 ) 0 
( 0.00922333 0.00637511 0.00326645 ) 0 
( 0.0114856 0.00498301 0.00314086 ) 0 
( 0.000257702 0.00400551 0.00857863 ) 0 
( 0.00339146 0.0043903 0.0055782 ) 0 
( 0.00352163 0.00604187 0.00541271 ) 0 
( 0.00316688 0.0119399 0.00129857 ) 0 
( 0.0119562 0.000452872 0.0027299 ) 0 
( 0.00459425 0.00322152 0.00707823 ) 0 
( 0.00233285 0.0023924 0.00461646 ) 0 
( 0.00712372 0.00577509 0.000499645 ) 0 
( 0.00124437 0.0103959 0.00049982 ) 0 
( 0.00233238 0.00169216 0.0039026 ) 0 
( 0.00648019 0.00954429 0.00456631 ) 0 
( 0.0084469 0.0103383 0.0051006 ) 0 
( 0.0102735 0.00418694 0.00487981 ) 0 
( 0.00459115 0.0112192 0.00462706 ) 0 
( 0.00937468 0.00549188 0.0040418 ) 0 
( 0.0132498 0.00163303 0.0026855 ) 0 
( 0.00424619 0.00566543 0.0019467 ) 0 
( 0.0105014 0.0067203 0.00311064 ) 0 
( 0.0133396 0.000527591 0.00286032 ) 0 
( 0.00688875 0.010456 0.00594511 ) 0 
( 0.0078662 0.0100997 0.00288277 ) 0 
( 0.00478711 0.0117993 0.00541737 ) 0 
( 0.011453 0.00403849 0.00280964 ) 0 
( 0.00852506 0.000390989 0.0066391 ) 0 
( 0.00846934 0.00573111 0.00529077 ) 0 
( 0.00169555 0.00626478 0.00443486 ) 0 
( 0.00847005 0.00411146 0.00719721 ) 0 
( 0.0133148 0.000203211 0.00380602 ) 0 
( 0.00559338 0.00629231 0.00158479 ) 0 
( 0.000424583 0.00574768 0.00365351 ) 0 
( 0.012175 0.00188445 0.00618859 ) 0 
( 0.0112929 0.0043291 0.000499687 ) 0 
( 0.0056464 0.00223384 0.00757323 ) 0 
( 0.00155489 0.00107047 0.00399937 ) 0 
( 0.00086095 0.00635383 0.00192252 ) 0 
( 0.000822496 0.00720248 0.00765635 ) 0 
( 0.00256625 0.00366304 0.00146466 ) 0 
( 0.00136063 0.00521859 0.00673347 ) 0 
( 0.0108144 0.00241652 0.00198957 ) 0 
( 0.00398084 0.00602348 0.00344154 ) 0 
( 0.0021679 0.0102409 0.00702116 ) 0 
( 0.0103651 0.00395678 0.000499988 ) 0 
( 0.0088582 0.00380808 0.00525038 ) 0 
( 0.00340612 0.0041978 0.00136044 ) 0 
( 0.00254899 0.00174823 0.000499663 ) 0 
( 0.00546528 0.00751297 0.00647008 ) 0 
( 0.00684095 0.0095608 0.00549858 ) 0 
( 0.00424489 0.00900336 0.00536763 ) 0 
( 0.011174 0.00242473 0.000499794 ) 0 
( 0.00293364 0.00377791 0.00473373 ) 0 
( 0.0109769 0.00134848 0.003215 ) 0 
( 0.00680376 0.00462117 0.000499586 ) 0 
( 0.011229 0.00722083 0.0069373 ) 0 
( 0.0035954 0.00346436 0.00405297 ) 0 
( 0.00545708 0.00346113 0.00125533 ) 0 
( 0.000814576 0.00656778 0.00407172 ) 0 
( 0.00716458 0.00528781 0.00430972 ) 0 
( 0.00239928 0.001437 0.00720204 ) 0 
( 0.00761005 0.00474691 0.00107691 ) 0 
( 0.0101647 0.00271643 0.00648397 ) 0 
( 0.00488796 0.0115203 0.00219554 ) 0 
( 0.00692502 0.00650754 0.00510187 ) 0 
( 0.00975636 0.00257889 0.00558176 ) 0 
( 0.00407636 0.00260514 0.00647264 ) 0 
( 0.00594436 0.0018841 0.00572867 ) 0 
( 0.00372176 0.0032784 0.00159366 ) 0 
( 0.01112 0.00335372 0.00215767 ) 0 
( 0.00382321 0.00428228 0.00316535 ) 0 
( 0.00297644 0.00978111 0.00201052 ) 0 
( 0.00912283 0.00184702 0.00725932 ) 0 
( 0.0062255 0.00293662 0.00318895 ) 0 
( 0.000168606 0.00819184 0.0071867 ) 0 
( 0.000442389 0.0133429 0.00136707 ) 0 
( 0.0133154 0.000961394 0.00194226 ) 0 
( 0.00028414 0.00578211 0.0052473 ) 0 
( 0.000580997 0.00360227 0.00772267 ) 0 
( 0.00612471 0.00973123 0.00353136 ) 0 
( 0.00356057 0.00128217 0.00846534 ) 0 
( 0.000704108 0.00398022 0.000499721 ) 0 
( 0.000610443 0.00117688 0.00431032 ) 0 
( 0.00391173 0.00774383 0.00317482 ) 0 
( 0.00247555 0.00925539 0.00129884 ) 0 
( 0.0133196 0.000902829 0.00457708 ) 0 
( 0.00183985 0.0108942 0.0045897 ) 0 
( 0.000472954 0.00659949 0.00313225 ) 0 
( 0.00141411 0.00288831 0.00480537 ) 0 
( 0.00438966 0.00657117 0.00720469 ) 0 
( 0.0111639 0.000333612 0.00593879 ) 0 
( 0.000904665 0.00408819 0.00335173 ) 0 
( 0.0105128 0.00681193 0.00536256 ) 0 
( 0.00312451 0.00225633 0.00114024 ) 0 
( 0.00502362 0.0039515 0.000499655 ) 0 
( 0.00478942 0.00324765 0.00196837 ) 0 
( 0.00753275 0.00484869 0.0058992 ) 0 
( 0.00146215 0.00559901 0.000499702 ) 0 
( 0.0068912 0.0031005 0.00733266 ) 0 
( 0.0100575 0.00467372 0.0013812 ) 0 
( 0.00989251 0.00634827 0.00402291 ) 0 
( 0.0100807 0.0044184 0.00392643 ) 0 
( 0.00294903 0.0102027 0.00429543 ) 0 
( 0.00917127 0.000381063 0.00740191 ) 0 
( 0.000508622 0.0101649 0.00728925 ) 0 
( 0.00832117 0.00854512 0.00204782 ) 0 
( 0.00222815 0.00524086 0.00324195 ) 0 
( 0.0110069 0.00585839 0.00304767 ) 0 
( 0.00882623 0.00467009 0.00273546 ) 0 
( 0.00664072 0.00215092 0.00751712 ) 0 
( 0.00562637 0.00983858 0.000499503 ) 0 
( 0.00477293 0.00223646 0.00708745 ) 0 
( 0.00921664 0.00543165 0.00588362 ) 0 
( 0.00174021 0.01251 0.00283242 ) 0 
( 0.00450551 0.0105832 0.0038601 ) 0 
( 0.00169479 0.00510866 0.00145184 ) 0 
( 0.00143995 0.00351296 0.00397061 ) 0 
( 0.0085718 0.00528185 0.00348436 ) 0 
( 0.00496195 0.00738203 0.00732372 ) 0 
( 0.00438253 0.00685968 0.00541945 ) 0 
( 0.000824744 0.00817196 0.00247476 ) 0 
( 0.0034833 0.00883025 0.00755569 ) 0 
( 0.00442898 0.00640044 0.00261813 ) 0 
( 0.00281991 0.000244788 0.00137638 ) 0 
( 0.00434805 0.00643042 0.00131076 ) 0 
( 0.00622555 0.0110382 0.00367826 ) 0 
( 0.00929006 0.00857112 0.00142268 ) 0 
( 0.00917389 0.00280692 0.00132329 ) 0 
( 0.0059774 0.00669541 0.00447211 ) 0 
( 0.00163713 0.0132495 0.00349735 ) 0 
( 0.00200337 0.0115466 0.00287672 ) 0 
( 0.00872571 0.00254322 0.00327327 ) 0 
( 0.00130179 0.00495107 0.00299955 ) 0 
( 0.00811762 0.00325099 0.00673739 ) 0 
( 0.00295697 0.00902068 0.00492687 ) 0 
( 0.006171 0.00597051 0.00547961 ) 0 
( 0.00624797 0.00795289 0.0056077 ) 0 
( 0.00133411 0.00181529 0.00462856 ) 0 
( 0.00303491 0.0110155 0.0016556 ) 0 
( 0.00116157 0.00802657 0.00715464 ) 0 
( 0.00527925 0.00642216 0.00549555 ) 0 
( 0.00247821 0.00426695 0.00794652 ) 0 
( 0.00479944 0.0076024 0.00388666 ) 0 
( 0.000340977 6.41664e-05 0.00496819 ) 0 
( 0.00447701 0.00102609 0.00179455 ) 0 
( 0.00597534 0.0038976 0.00283112 ) 0 
( 0.00508332 0.00131728 0.00733737 ) 0 
( 0.00715513 0.00803329 0.0050679 ) 0 
( 0.00711131 0.00989477 0.000499545 ) 0 
( 0.00686611 0.0102857 0.00390906 ) 0 
( 0.00211258 0.00233872 0.00232908 ) 0 
( 0.0103101 0.00293607 0.000499666 ) 0 
( 0.00416864 0.000862894 0.00672034 ) 0 
( 0.0038636 0.0108762 0.0022013 ) 0 
( 0.002538 0.00465384 0.00116655 ) 0 
( 0.00184189 0.000801365 0.00308031 ) 0 
( 0.00918978 0.00114965 0.00466484 ) 0 
( 4.23578e-05 0.0041417 0.00579898 ) 0 
( 0.00200052 0.0057808 0.00736637 ) 0 
( 0.00273884 0.00524409 0.00555024 ) 0 
( 0.00623993 0.00836111 0.00114767 ) 0 
( 0.00345437 0.00118921 0.00349165 ) 0 
( 3.59402e-05 0.00563966 0.00186194 ) 0 
( 0.000494149 0.00820949 0.00355822 ) 0 
( 0.00540697 0.00510307 0.00411999 ) 0 
( 0.00602639 0.0031052 0.00790162 ) 0 
( 0.00266405 0.00237475 0.00563023 ) 0 
( 0.00625569 0.00786116 0.0036494 ) 0 
( 0.00694912 0.00341776 0.00103385 ) 0 
( 0.00433449 0.0125872 0.00388037 ) 0 
( 0.00922872 0.00472835 0.00740608 ) 0 
( 0.0106068 0.00300223 0.00294403 ) 0 
( 0.00806326 0.00822471 0.00332332 ) 0 
( 0.00323618 0.00537355 0.00360201 ) 0 
( 0.00591305 0.0103259 0.00430674 ) 0 
( 0.00685307 0.00892675 0.00211664 ) 0 
( 0.00832832 0.00245227 0.00730011 ) 0 
( 0.00148511 0.00890806 0.00262369 ) 0 
( 0.00843432 0.00589205 0.0027044 ) 0 
( 0.00425281 0.00566778 0.000499542 ) 0 
( 0.00365212 0.00871935 0.00049972 ) 0 
( 0.00770736 0.00905126 0.00266236 ) 0 
( 0.00255638 0.000467782 0.00693005 ) 0 
( 0.00344905 0.012897 0.00135975 ) 0 
( 0.00177647 0.0087649 0.00803166 ) 0 
( 0.0106061 0.000802975 0.00124396 ) 0 
( 0.00786413 0.0104261 0.00664758 ) 0 
( 0.00693432 0.00224109 0.00330598 ) 0 
( 0.00369947 0.0102137 0.00147055 ) 0 
( 0.0107042 0.00240271 0.00531623 ) 0 
( 0.00650391 0.00168995 0.00122317 ) 0 
( 0.00973043 0.00634953 0.00597023 ) 0 
( 0.00233684 0.0108777 0.000499742 ) 0 
( 0.000100294 0.00141488 0.00310705 ) 0 
( 0.000491755 0.0122263 0.0024113 ) 0 
( 0.000222241 0.000523441 0.00366068 ) 0 
( 0.000902184 0.000582801 0.000499658 ) 0 
( 0.0101803 0.0032712 0.00380832 ) 0 
( 0.00515819 0.00129522 0.0028553 ) 0 
( 0.00127181 0.00965727 0.00574979 ) 0 
( 0.00300173 0.00835229 0.00131535 ) 0 
( 0.00219195 0.00452719 0.00209608 ) 0 
( 0.006522 0.00448611 0.00497304 ) 0 
( 0.0111397 0.00735784 0.00595116 ) 0 
( 0.0123253 0.000272273 0.00393341 ) 0 
( 0.00875302 0.00751272 0.000499651 ) 0 
( 0.0014596 0.00645359 0.00299892 ) 0 
( 0.00148295 0.00823291 0.00336124 ) 0 
( 0.000406543 0.00302541 0.000499708 ) 0 
( 0.00166915 0.00784619 0.00497261 ) 0 
( 0.00676696 0.0064273 0.00622004 ) 0 
( 0.00151614 0.00750538 0.000499599 ) 0 
( 0.00689084 0.00576382 0.00255304 ) 0 
( 0.00805177 0.00755594 0.00174981 ) 0 
( 0.0027442 0.00987663 0.00628973 ) 0 
( 0.000887157 0.0101481 0.00380704 ) 0 
( 0.0104874 0.00496802 0.00319685 ) 0 
( 0.00338934 0.0129126 0.00384573 ) 0 
( 0.00197076 0.00896001 0.00471936 ) 0 
( 0.0075219 0.00279622 0.000499789 ) 0 
( 0.00896349 0.00733893 0.00332375 ) 0 
( 0.00507044 0.00518009 0.00223759 ) 0 
( 0.00917525 0.00749811 0.00140577 ) 0 
( 0.00844297 0.00347567 0.00118511 ) 0 
( 0.00378233 0.0127278 0.00294523 ) 0 
( 0.00834694 0.005098 0.000499858 ) 0 
( 0.00309097 0.00234898 0.00391042 ) 0 
( 0.00405631 0.000265271 0.00495237 ) 0 
( 0.0103919 0.000252486 0.00656863 ) 0 
( 0.00840622 0.00823048 0.00110255 ) 0 
( 0.00534384 0.00598685 0.00732033 ) 0 
( 0.0074149 0.00157826 0.00469293 ) 0 
( 0.000435128 0.00215694 0.00778491 ) 0 
( 0.00818987 0.0047996 0.00188975 ) 0 
( 0.00144275 0.00315016 0.00580648 ) 0 
( 0.00349298 0.00528879 0.00620473 ) 0 
( 0.00379362 0.0118189 0.00468786 ) 0 
( 0.0121718 0.0023587 0.000499872 ) 0 
( 0.00163005 0.0078608 0.00628696 ) 0 
( 0.0110624 0.00747325 0.0039133 ) 0 
( 0.00653546 0.00349441 0.00470539 ) 0 
( 0.00205669 0.00981304 0.00049975 ) 0 
( 0.008663 0.0101581 0.00606676 ) 0 
( 0.00728399 0.00893408 0.00461844 ) 0 
( 0.00347532 0.00923459 0.00133805 ) 0 
( 0.000739626 0.00145826 0.00627873 ) 0 
( 0.00610549 0.00698057 0.00542446 ) 0 
( 0.000388056 0.00728153 0.00164878 ) 0 
( 0.00204289 0.00692748 0.00509797 ) 0 
( 0.0120014 0.00584755 0.00315032 ) 0 
( 0.0024769 0.0131184 0.00128567 ) 0 
( 0.00213692 0.00634475 0.000499761 ) 0 
( 0.0054442 0.00070528 0.00806389 ) 0 
( 0.0102871 0.0085089 0.00137985 ) 0 
( 0.0016407 0.00610132 0.00134542 ) 0 
( 0.00452289 0.00165249 0.00354046 ) 0 
( 0.00236259 0.00151982 0.00614898 ) 0 
( 0.000283759 0.00151183 0.00148541 ) 0 
( 0.00462798 0.000998835 0.00049988 ) 0 
( 0.0064817 0.0116706 0.00443506 ) 0 
( 0.0105213 0.00496492 0.000500542 ) 0 
( 0.00831348 0.0066149 0.000499577 ) 0 
( 0.0100964 0.00726211 0.00615231 ) 0 
( 0.00639153 0.000364965 0.00277288 ) 0 
( 0.00308792 0.00122719 0.00133623 ) 0 
( 0.00970547 0.0014834 0.00546569 ) 0 
( 0.00554865 0.00935457 0.00425659 ) 0 
( 0.00032608 0.0105808 0.00541069 ) 0 
( 0.00797787 0.0076387 0.00654229 ) 0 
( 0.00235644 0.00312741 0.00621177 ) 0 
( 0.00385236 0.00179233 0.00164563 ) 0 
( 0.00753173 0.00697854 0.00586693 ) 0 
( 0.00351479 0.00820503 0.002161 ) 0 
( 0.00140653 0.00470271 0.00397627 ) 0 
( 0.00350843 0.00865576 0.00309592 ) 0 
( 0.0048316 0.00675181 0.00632638 ) 0 
( 0.00801908 0.00333244 0.00556752 ) 0 
( 0.00213245 0.000477487 0.00515217 ) 0 
( 0.00625388 0.0104741 0.00285311 ) 0 
( 0.00885385 0.00755217 0.00235306 ) 0 
( 0.00243345 0.00566645 0.0041232 ) 0 
( 0.00368829 0.0108399 0.00530783 ) 0 
( 0.00242696 0.00413385 0.0055186 ) 0 
( 0.00935066 0.00212887 0.00478645 ) 0 
( 0.00503919 0.00159392 0.00119362 ) 0 
( 0.000773441 4.82336e-05 0.00133452 ) 0 
( 0.00505605 0.00495116 0.000499694 ) 0 
( 0.00750003 0.00835767 0.00150537 ) 0 
( 0.000729534 0.00205486 0.00354888 ) 0 
( 0.00639029 0.00882767 0.00386716 ) 0 
( 0.00625898 0.00532288 0.00623619 ) 0 
( 0.00412084 0.0014564 0.00264619 ) 0 
( 0.0128077 0.00366723 0.0022833 ) 0 
( 0.00372513 0.00965206 0.00460263 ) 0 
( 0.00237157 0.0048131 0.00472628 ) 0 
( 0.000535284 0.011229 0.00246981 ) 0 
( 0.0028127 0.0120978 0.00308068 ) 0 
( 0.00581302 0.000902321 0.00674071 ) 0 
( 0.00170237 0.00327555 0.00302056 ) 0 
( 0.00220346 0.0121975 0.00613107 ) 0 
( 0.00416654 0.00109714 0.0076922 ) 0 
( 0.00986591 0.00899375 0.00640884 ) 0 
( 0.000226608 0.0116833 0.00621734 ) 0 
( 0.00307841 0.00898806 0.00393518 ) 0 
( 0.000430442 0.00481179 0.00505532 ) 0 
( 0.00674118 0.00815077 0.00703065 ) 0 
( 0.00570993 0.0120673 0.00249269 ) 0 
( 0.0121065 0.00211426 0.00373231 ) 0 
( 0.00416705 0.00867946 0.00641554 ) 0 
( 0.00696351 0.00681337 0.000499858 ) 0 
( 0.00464773 0.00227826 0.00544128 ) 0 
( 0.00659163 0.0105951 0.00157766 ) 0 
( 0.00711015 0.000961188 0.00315711 ) 0 
( 0.00385602 0.00396085 0.000499679 ) 0 
( 0.000831699 0.0054218 0.00755699 ) 0 
( 0.00493352 0.00695514 0.00193847 ) 0 
( 0.00276265 0.00461591 0.00632756 ) 0 
( 0.0123945 0.00496015 0.00468192 ) 0 
( 0.0104398 0.00173774 0.000499559 ) 0 
( 0.0128297 0.00369111 0.0069674 ) 0 
( 0.00962312 0.00203137 0.0021038 ) 0 
( 0.0125582 0.00447714 0.00633542 ) 0 
( 0.000413532 0.00245332 0.0018587 ) 0 
( 0.00931659 0.000561566 0.00142094 ) 0 
( 0.000304816 0.00487561 0.00298334 ) 0 
( 0.00451673 0.0108342 0.000499767 ) 0 
( 0.000120642 0.00726013 0.00386283 ) 0 
( 0.00192188 0.0104044 0.0060659 ) 0 
( 0.00418008 0.00343437 0.00277345 ) 0 
( 0.00837984 0.00525579 0.00743108 ) 0 
( 7.32669e-06 0.000218671 0.0065291 ) 0 
( 0.00776625 0.00102373 0.00648554 ) 0 
( 0.000490992 0.0111469 0.000499797 ) 0 
( 0.00143824 0.00569237 0.00365658 ) 0 
( 0.00648194 0.00799888 0.00214918 ) 0 
( 0.0033213 0.010287 0.00280132 ) 0 
( 0.00259308 0.00764528 0.00190466 ) 0 
( 0.00889963 0.00654189 0.00130639 ) 0 
( 0.00530107 0.0102367 0.0032743 ) 0 
( 0.00502143 0.0103266 0.0047589 ) 0 
( 8.62575e-06 0.0112166 0.00161742 ) 0 
( 0.00289182 0.00614917 0.00629655 ) 0 
( 0.000783947 0.0133269 0.00401294 ) 0 
( 0.00789764 0.00972953 0.00195195 ) 0 
( 0.00296084 0.00468157 0.0028544 ) 0 
( 0.00431411 0.0111329 0.00603017 ) 0 
( 0.00410804 0.00208418 0.00793802 ) 0 
( 0.00830302 0.00671707 0.00528689 ) 0 
( 0.00602563 0.00394618 0.00732558 ) 0 
( 0.00764961 0.00097853 0.000499476 ) 0 
( 0.00171031 0.00393886 0.00484932 ) 0 
( 0.00352789 0.0103801 0.000499767 ) 0 
( 0.000793478 0.0128462 0.00313552 ) 0 
( 0.00324754 0.00529408 0.00469101 ) 0 
( 0.00104322 0.00986961 0.00200696 ) 0 
( 0.00856687 0.00907964 0.00317257 ) 0 
( 0.0063006 0.00575 0.00450838 ) 0 
( 0.00517841 0.0101874 0.00580021 ) 0 
( 0.00431635 0.0093774 0.00310945 ) 0 
( 0.00234312 0.00255202 0.00327841 ) 0 
( 0.00647612 0.000702684 0.00469568 ) 0 
( 0.00199904 0.00959476 0.00210962 ) 0 
( 0.00442521 0.00952618 0.00144896 ) 0 
( 0.00548684 0.000285589 0.00319136 ) 0 
( 0.0020576 0.00271424 0.00138995 ) 0 
( 0.00957607 0.00394214 0.00258668 ) 0 
( 0.00669407 0.0107127 0.00479659 ) 0 
( 0.00027007 0.00915882 0.00695372 ) 0 
( 0.00527789 0.00311425 0.00536647 ) 0 
( 0.00211353 0.00816043 0.00413374 ) 0 
( 0.00193586 0.000700111 0.00149078 ) 0 
( 0.00745433 0.0071066 0.00368496 ) 0 
( 0.00505408 0.0123564 0.00322512 ) 0 
( 0.00835736 0.00414295 0.00445242 ) 0 
( 0.000398951 0.00986712 0.00471435 ) 0 
( 0.00292756 0.00185173 0.00794235 ) 0 
( 0.0111776 0.00570951 0.00187609 ) 0 
( 0.0114213 0.00114102 0.00197433 ) 0 
( 0.00849743 0.00170581 0.00649149 ) 0 
( 0.00513095 0.00941875 0.00516278 ) 0 
( 0.00839813 0.00175865 0.00471263 ) 0 
( 0.00345504 0.00773921 0.000499765 ) 0 
( 0.0043546 0.00580005 0.00623976 ) 0 
( 0.0103249 0.00450796 0.00582521 ) 0 
( 0.000832267 0.0074516 0.00453865 ) 0 
( 0.00755347 0.00805834 0.00246427 ) 0 
( 0.0111851 0.00287956 0.00442194 ) 0 
( 0.00774922 0.00993217 0.00569032 ) 0 
( 0.00548557 0.00664371 0.00272809 ) 0 
( 7.65177e-05 0.00376085 0.00687251 ) 0 
( 0.00397211 0.00318459 0.00788824 ) 0 
( 0.00802758 0.000800285 0.00455418 ) 0 
( 0.00175301 0.000289707 0.00749761 ) 0 
( 0.00170743 0.00211213 0.00550709 ) 0 
( 0.00314357 0.0021914 0.0064882 ) 0 
( 0.00875031 0.000317172 0.000499868 ) 0 
( 0.00989695 0.00895973 0.00407467 ) 0 
( 0.000637154 0.00457978 0.00647272 ) 0 
( 0.00122681 0.00138334 0.00100654 ) 0 
( 0.00875605 0.00250131 0.00226842 ) 0 
( 0.00317267 0.00149212 0.00443739 ) 0 
( 0.00622437 0.00134676 0.00289921 ) 0 
( 0.0071776 0.00964909 0.00646016 ) 0 
( 0.00711544 0.00416051 0.00423669 ) 0 
( 0.00330014 0.00616719 0.00420674 ) 0 
( 0.0119495 0.00203912 0.00170793 ) 0 
( 0.000193161 0.0124637 0.00383754 ) 0 
( 0.00058801 0.0124427 0.00475566 ) 0 
( 0.00889988 0.00299652 0.00590552 ) 0 
( 0.00265913 0.000861354 0.00216211 ) 0 
( 0.0131207 0.00229663 0.00192254 ) 0 
( 0.00229992 0.0112619 0.00647045 ) 0 
( 0.00317382 0.00450115 0.00408644 ) 0 
( 0.00541483 0.00940447 0.00137474 ) 0 
( 0.00794579 0.0107282 0.00210918 ) 0 
( 0.0104323 0.00397403 0.00310251 ) 0 
( 0.010242 0.0019537 0.00712545 ) 0 
( 0.00599171 0.00243421 0.0040213 ) 0 
( 0.00338001 0.00255138 0.00739053 ) 0 
( 0.00116573 0.00418165 0.00237554 ) 0 
( 0.0103431 0.00150036 0.00623995 ) 0 
( 0.000932782 0.00558042 0.00451356 ) 0 
( 0.00655996 0.000281958 0.006502 ) 0 
( 0.00382292 0.00772808 0.00417059 ) 0 
( 0.0132504 0.0014632 0.000499701 ) 0 
( 0.00758793 0.00182842 0.00705136 ) 0 
( 0.00558583 0.000568071 0.00219013 ) 0 
( 0.00548392 0.00322994 0.00435118 ) 0 
( 0.00226462 0.00142581 0.00486403 ) 0 
( 0.000999439 0.00910525 0.00495559 ) 0 
( 0.00869775 0.00563314 0.00167134 ) 0 
( 0.00963844 0.000314893 0.00498412 ) 0 
( 0.000772368 0.00167197 0.00241268 ) 0 
( 0.000491954 0.0110548 0.00345346 ) 0 
( 0.00487227 0.00366613 0.00622053 ) 0 
( 0.00273755 0.0067206 0.00779691 ) 0 
( 0.0021376 0.00468593 0.00710487 ) 0 
( 0.00970272 0.000903003 0.00227758 ) 0 
( 0.0118775 0.00378808 0.00167078 ) 0 
( 0.00378644 0.0103071 0.0062292 ) 0 
( 0.0104363 0.00408032 0.00209123 ) 0 
( 0.00401419 0.00691036 0.00049968 ) 0 
( 0.00110306 0.00732932 0.0056147 ) 0 
( 0.000418507 0.0116402 0.00719758 ) 0 
( 0.00116942 0.000622306 0.00492632 ) 0 
( 0.00350685 0.00959381 0.00687872 ) 0 
( 0.000224515 0.00651461 0.00701248 ) 0 
( 0.0024474 0.000678905 0.00422475 ) 0 
( 0.0127511 0.00317773 0.000499579 ) 0 
( 0.0132975 0.00118442 0.00361356 ) 0 
( 0.00251137 0.00740848 0.000499604 ) 0 
( 0.00378188 0.000508318 0.00129606 ) 0 
( 0.0130071 0.00300651 0.00405648 ) 0 
( 0.00718502 0.0112517 0.00386104 ) 0 
( 0.00997823 0.00580437 0.000499713 ) 0 
( 0.00428512 0.0100401 0.00537574 ) 0 
( 0.00404676 0.00155144 0.00510902 ) 0 
( 0.00270799 0.0102165 0.00115139 ) 0 
( 0.00933561 0.00954352 0.00165334 ) 0 
( 0.00337372 0.00493369 0.000499786 ) 0 
( 0.00942441 0.00581821 0.00498546 ) 0 
( 0.0122411 0.00229555 0.00709736 ) 0 
( 0.0090925 0.00715491 0.00580244 ) 0 
( 0.0096005 0.00378467 0.00136237 ) 0 
( 0.0112348 0.00176165 0.00587031 ) 0 
( 0.000851763 0.0133229 0.00624971 ) 0 
( 0.0072721 0.00930768 0.00129268 ) 0 
( 0.00177188 0.00464839 0.000499667 ) 0 
( 0.0124718 0.000514781 0.00493781 ) 0 
( 0.00280575 0.0110621 0.00478598 ) 0 
( 0.00444844 0.00435041 0.00394267 ) 0 
( 0.00836006 0.00396715 0.00346196 ) 0 
( 0.00689346 0.0114215 0.00110299 ) 0 
( 0.00396358 0.00737872 0.00770282 ) 0 
( 0.0127732 0.00307161 0.00308652 ) 0 
( 0.00040088 0.00162925 0.000499598 ) 0 
( 0.00246647 0.0120377 0.00708206 ) 0 
( 0.00104139 0.00734399 0.00348202 ) 0 
( 0.00294547 0.00382977 0.00338157 ) 0 
( 0.00377274 0.000821086 0.00573718 ) 0 
( 0.00817054 0.00934823 0.0063838 ) 0 
( 0.00655749 5.55771e-06 0.000499895 ) 0 
( 0.0111352 0.00352249 0.00365222 ) 0 
( 0.005129 0.00343009 0.00308868 ) 0 
( 0.000405543 0.00302656 0.00619395 ) 0 
( 0.0115478 0.00274009 0.00318609 ) 0 
( 0.00282833 0.0112919 0.00367241 ) 0 
( 0.00646403 0.00732386 0.00654254 ) 0 
( 0.00629283 0.00267429 0.00522371 ) 0 
( 0.0122555 0.00405953 0.000499631 ) 0 
( 0.00338268 0.00913823 0.0059978 ) 0 
( 0.0115545 4.56834e-05 0.000499604 ) 0 
( 0.00725304 0.0112078 0.00649636 ) 0 
( 0.00439026 0.00789922 0.00583154 ) 0 
( 0.0070264 0.00312285 0.00379606 ) 0 
( 0.0010635 0.00369163 0.00673069 ) 0 
( 0.0111533 0.00153159 0.00418986 ) 0 
( 0.0039484 0.00271764 0.00348945 ) 0 
( 0.00266339 0.0130816 0.00317923 ) 0 
( 0.000245197 0.000564136 0.00779343 ) 0 
( 0.00142687 0.00489178 0.00504388 ) 0 
( 0.00534173 0.00569983 0.0063626 ) 0 
( 0.00528787 0.00923551 0.00329865 ) 0 
( 0.0108875 0.00630503 0.00393419 ) 0 
( 0.0105687 0.00343365 0.0013274 ) 0 
( 0.00746348 0.00144123 0.00136594 ) 0 
( 0.00741741 0.000243736 0.00596687 ) 0 
( 0.001759 0.00139408 0.00226826 ) 0 
( 0.00325188 0.0062615 0.000499861 ) 0 
( 0.00137275 0.0092936 0.00399082 ) 0 
( 0.00832196 0.00574265 0.00628071 ) 0 
( 0.00721113 0.00805281 0.00389796 ) 0 
( 0.00288054 0.000721116 0.000499545 ) 0 
( 0.00634158 0.00690438 0.00133 ) 0 
( 0.00121745 0.00902936 0.00724639 ) 0 
( 0.00182237 0.00908611 0.00645285 ) 0 
( 0.00326844 0.00317595 0.00661819 ) 0 
( 0.00185889 0.00736275 0.0028808 ) 0 
( 0.0064418 0.00586079 0.00705863 ) 0 
( 0.00344709 0.00305723 0.000635933 ) 0 
( 0.00311408 0.000596461 0.00499781 ) 0 
( 0.00694342 0.00765586 0.00106125 ) 0 
( 0.00141676 0.0118555 0.00212676 ) 0 
( 0.00898092 0.00587076 0.00049984 ) 0 
( 0.00220145 0.00857386 0.00197702 ) 0 
( 0.0120286 0.00317928 0.00394489 ) 0 
( 0.00194443 0.0128049 0.000499703 ) 0 
( 0.0100977 0.00235644 0.00128601 ) 0 
( 0.00681415 0.00472422 0.00309734 ) 0 
( 0.000936086 0.00528554 0.00583059 ) 0 
( 0.00578925 0.012028 0.00506145 ) 0 
( 0.0039879 0.00208592 0.00426569 ) 0 
( 0.0101493 0.00100704 0.00442241 ) 0 
( 0.00343808 0.00626903 0.00263827 ) 0 
( 0.00610539 0.00336886 0.000499744 ) 0 
( 0.0080488 0.000275082 0.00339558 ) 0 
( 0.00675702 0.00879841 0.00613974 ) 0 
( 0.0015774 0.00861373 0.0056066 ) 0 
( 0.0123669 0.000647503 0.00117718 ) 0 
( 0.00493828 0.00562778 0.00122614 ) 0 
( 0.013328 0.000102712 0.00143021 ) 0 
( 0.0112416 0.00455667 0.00173875 ) 0 
( 0.00549315 0.0110613 0.000499808 ) 0 
( 0.00593698 0.0119573 0.000499862 ) 0 
( 0.00521683 0.0122857 0.00164241 ) 0 
( 0.00301338 0.00952262 0.000499604 ) 0 
( 0.000556294 0.00891129 0.00592264 ) 0 
( 0.00560681 0.00773903 0.00174144 ) 0 
( 0.0117315 0.00637157 0.00677566 ) 0 
( 0.00932655 0.00835192 0.00475329 ) 0 
( 0.00159185 0.00114009 0.00669311 ) 0 
( 0.0114367 0.00523581 0.00103149 ) 0 
( 0.00439248 0.00984179 0.000499874 ) 0 
( 0.00101729 0.000867232 0.00185354 ) 0 
( 0.00380349 0.00865727 0.00453852 ) 0 
( 0.010327 0.00605428 0.00234132 ) 0 
( 0.0121782 0.0013583 0.000499786 ) 0 
( 0.00366304 0.00237734 0.00559142 ) 0 
( 0.00448052 0.0020479 0.000499668 ) 0 
( 0.00229179 0.0131522 0.00528795 ) 0 
( 0.00157541 0.0123841 0.0074008 ) 0 
( 0.00114922 0.00836836 0.0042968 ) 0 
( 0.00149542 0.0132654 0.00140803 ) 0 
( 0.00716177 0.00161241 0.00240011 ) 0 
( 0.000408244 0.00984721 0.00624194 ) 0 
( 0.00483305 0.0015789 0.0044901 ) 0 
( 0.00222886 0.00412609 0.00401404 ) 0 
( 0.0119808 0.00579516 0.00504414 ) 0 
( 0.000725907 0.00818427 0.00523279 ) 0 
( 0.00502528 0.0123681 0.000499887 ) 0 
( 0.00545641 0.002271 0.00485326 ) 0 
( 0.00797803 0.00612844 0.00439238 ) 0 
( 0.0070423 0.00295409 0.00261233 ) 0 
( 0.00375206 0.005311 0.00274777 ) 0 
( 0.0120434 0.0030276 0.00236654 ) 0 
( 0.0109463 0.00764229 0.0050125 ) 0 
( 0.00268038 0.0061388 0.00327742 ) 0 
( 0.001233 0.00233909 0.00635728 ) 0 
( 0.00248249 0.0118194 0.00202043 ) 0 
( 0.00834911 0.0051937 0.00445615 ) 0 
( 0.0128022 0.00378665 0.00129065 ) 0 
( 0.00499558 0.00787502 0.000499703 ) 0 
( 0.000526554 0.0031156 0.0044048 ) 0 
( 0.000869903 0.000292563 0.00702903 ) 0 
( 0.00694289 0.00855879 0.00307831 ) 0 
( 0.00849693 0.00873909 0.00515488 ) 0 
( 0.00992777 0.00765833 0.00525004 ) 0 
( 0.0108331 0.00690205 0.00218387 ) 0 
( 0.00980415 0.00140482 0.00119557 ) 0 
( 0.00364621 0.0059639 0.00692575 ) 0 
( 0.00869209 0.00415971 0.00049986 ) 0 
( 0.00500202 0.000609475 0.00622968 ) 0 
( 0.0120624 0.00298385 0.00639459 ) 0 
( 0.00544263 0.0110464 0.00536214 ) 0 
( 0.00908747 0.0045254 0.00388639 ) 0 
( 0.00324934 0.00994997 0.00542988 ) 0 
( 0.0044337 0.00314424 0.000499852 ) 0 
( 0.0084591 0.00920665 0.00131095 ) 0 
( 0.00706856 0.00102551 0.00545057 ) 0 
( 0.00781681 0.00621452 0.00700337 ) 0 
( 0.0104278 0.00367361 0.00636616 ) 0 
( 0.00866352 0.00871259 0.00409761 ) 0 
( 0.00834566 0.00727145 0.00410699 ) 0 
( 0.00737312 0.00995678 0.0047506 ) 0 
( 0.000424353 0.00556461 0.00665542 ) 0 
( 0.00721384 0.000516791 0.00404677 ) 0 
( 0.00292307 0.00775603 0.00751768 ) 0 
( 0.00246751 0.0029111 0.000499669 ) 0 
( 0.00589 0.0119803 0.0036638 ) 0 
( 0.00751865 0.0103665 0.00128099 ) 0 
( 0.00943149 0.00363859 0.00645849 ) 0 
( 0.0110422 0.00581471 0.005865 ) 0 
( 0.00760119 0.00856153 0.00661978 ) 0 
( 0.0124668 2.03103e-05 0.00194959 ) 0 
( 0.000749169 0.00573367 0.00270783 ) 0 
( 0.0130542 0.0027611 0.00660699 ) 0 
( 0.00102662 0.00708966 0.00661279 ) 0 
( 0.00777808 0.001379 0.00377783 ) 0 
( 0.00500822 0.00422183 0.00704039 ) 0 
( 0.00659272 0.0009385 0.00192863 ) 0 
( 0.00028835 0.0133469 0.00236196 ) 0 
( 0.000717375 0.00871384 0.000499699 ) 0 
( 0.00688533 0.00239587 0.004468 ) 0 
( 0.00967076 0.00790937 0.000499782 ) 0 
( 0.00474582 0.00251802 0.00292015 ) 0 
( 0.00805451 0.0073152 0.00290792 ) 0 
( 0.00120088 0.00420119 0.00573878 ) 0 
( 0.00969593 0.000642168 0.000499622 ) 0 
( 0.00160204 0.00342728 0.000499877 ) 0 
( 0.0071009 0.00297676 0.00578339 ) 0 
( 0.00360235 0.00739 0.00508544 ) 0 
( 0.00798978 0.00810826 0.0045227 ) 0 
( 0.00862377 0.010191 0.0013814 ) 0 
( 0.0103736 0.00545686 0.00406165 ) 0 
( 0.00688014 0.00146022 0.00633172 ) 0 
( 0.000120314 0.00700941 0.000499805 ) 0 
( 0.00124301 0.0116931 0.00466232 ) 0 
( 0.00844814 0.00474839 0.00551027 ) 0 
( 0.0118998 0.00386298 0.00466305 ) 0 
( 0.00778331 0.0108466 0.00455203 ) 0 
( 8.20471e-05 0.0052979 0.000499578 ) 0 
( 0.0117123 0.00640367 0.00139459 ) 0 
( 0.0107813 0.00233211 0.00368169 ) 0 
( 0.00199418 0.0100851 0.00402279 ) 0 
( 0.00490049 0.00909249 0.0022143 ) 0 
( 0.0097951 0.00359502 0.0055282 ) 0 
( 0.00168315 0.00411502 0.00134041 ) 0 
( 0.00614799 0.00742883 0.000499728 ) 0 
( 0.00363765 0.00629159 0.00786973 ) 0 
( 0.00265378 0.0090747 0.00705372 ) 0 
( 0.00109967 0.00294171 0.00121545 ) 0 
( 0.00635646 0.00858899 0.00483765 ) 0 
( 6.43199e-05 0.00712359 0.0062302 ) 0 
( 0.0113543 0.00526108 0.00409231 ) 0 
( 0.00779372 0.000665229 0.00190318 ) 0 
( 0.0050789 0.00846566 0.0013021 ) 0 
( 0.00231588 0.0106301 0.00312541 ) 0 
( 0.00373522 0.00997863 0.00365771 ) 0 
( 0.0020475 0.0119268 0.00380407 ) 0 
( 0.0109683 0.00594088 0.000499806 ) 0 
( 0.00902883 0.00919326 0.00589455 ) 0 
( 0.00118088 0.00946464 0.000969842 ) 0 
( 0.0059501 0.00856752 0.00295942 ) 0 
( 0.00661073 0.00427634 0.00141855 ) 0 
( 0.00432787 0.00851978 0.00365257 ) 0 
( 0.00650173 0.00665649 0.00332851 ) 0 
( 0.00768067 0.0109194 0.00554783 ) 0 
( 0.0085592 0.00842269 0.00632497 ) 0 
( 0.0096405 0.00548617 0.00307786 ) 0 
( 0.00977263 0.00197544 0.00362276 ) 0 
( 0.00388785 0.00177778 0.00701233 ) 0 
( 0.00105639 0.00661738 0.000499862 ) 0 
( 0.00537596 0.00249058 0.00148185 ) 0 
( 0.0119296 0.00381601 0.00585655 ) 0 
( 0.00478118 0.000365941 0.0073968 ) 0 
( 0.00479886 0.00874197 0.00450617 ) 0 
( 0.00578582 0.00869494 0.00197356 ) 0 
( 0.00425483 0.0048758 0.00110944 ) 0 
( 0.00232696 0.0118806 0.000499861 ) 0 
( 0.00146683 0.0113706 0.000499674 ) 0 
( 0.00777107 0.00250393 0.00506563 ) 0 
( 0.0102218 0.00752044 0.00123791 ) 0 
( 0.00477407 0.00732853 0.00288531 ) 0 
( 9.50028e-05 0.000883077 0.00223951 ) 0 
( 0.00589646 0.00577618 0.00244799 ) 0 
( 0.00830401 0.000243389 0.00787978 ) 0 
( 0.00564568 0.0104567 0.00128487 ) 0 
( 0.0131715 0.00217283 0.0035294 ) 0 
( 0.00535882 0.007097 0.0010163 ) 0 
( 0.00152265 0.0065119 0.00785313 ) 0 
( 0.00251995 0.00708209 0.00357662 ) 0 
( 0.00765401 0.00570343 0.00354322 ) 0 
( 0.00351588 0.00832253 0.00543575 ) 0 
( 0.00571519 0.00147943 0.00389206 ) 0 
( 0.0126672 0.00421464 0.00310959 ) 0 
( 0.00332558 0.00825723 0.00675186 ) 0 
( 0.00944844 0.00676082 0.000499808 ) 0 
( 0.00432241 0.00594116 0.00482252 ) 0 
( 0.00376976 0.0119006 0.00569222 ) 0 
( 0.00871852 0.00339534 0.00271761 ) 0 
( 0.0024405 0.00539216 0.000499691 ) 0 
( 0.00393494 0.0111646 0.00124654 ) 0 
( 0.00459839 0.00960433 0.00404161 ) 0 
( 0.000959915 0.00718125 0.00248095 ) 0 
( 0.00265715 0.00572973 0.00229361 ) 0 
( 0.0121098 0.00123549 0.00420954 ) 0 
( 0.0037361 0.0110335 0.00332135 ) 0 
( 0.00118646 0.0124125 0.00395445 ) 0 
( 0.00086608 0.00474502 0.00829182 ) 0 
( 0.00544246 0.00832406 0.00514668 ) 0 
( 0.00563893 0.00882867 0.00049973 ) 0 
( 0.00658865 0.00100495 0.000499797 ) 0 
( 0.00636629 0.00477769 0.00398978 ) 0 
( 0.0026266 0.00593824 0.00131618 ) 0 
( 0.0101965 0.00861772 0.00516787 ) 0 
( 0.00291568 0.0130277 0.00719154 ) 0 
( 0.000859189 0.00626107 0.0060365 ) 0 
( 0.00230344 0.00688423 0.00132488 ) 0 
( 0.0123576 0.00505089 0.00265622 ) 0 
( 0.00794226 0.00587808 0.00106416 ) 0 
( 0.0110266 0.00432652 0.00423707 ) 0 
( 0.00914219 0.00846935 0.00262807 ) 0 
( 0.00958985 0.000992772 0.00359377 ) 0 
( 0.00919265 0.00769641 0.00663683 ) 0 
( 0.00313843 0.00342585 0.00565881 ) 0 
( 0.00296385 0.0018575 0.00210231 ) 0 
( 0.00606915 0.00187862 0.00673994 ) 0 
( 0.00997849 0.00886877 0.000499706 ) 0 
( 0.000774862 0.00305266 0.00335895 ) 0 
( 0.00487326 0.0115008 0.0037101 ) 0 
( 0.00197441 0.00320301 0.00846136 ) 0 
( 0.0125023 0.00151877 0.00508441 ) 0 
( 0.000764378 0.00281317 0.00710245 ) 0 