/*--------------------------------*- C++ -*----------------------------------*\
| =========                 |                                                 |
| \\      /  F ield         | OpenFOAM: The Open Source CFD Toolbox           |
|  \\    /   O peration     | Version:  2506                                  |
|   \\  /    A nd           | Website:  www.openfoam.com                      |
|    \\/     M anipulation  |                                                 |
\*---------------------------------------------------------------------------*/
FoamFile
{
    version     2.0;
    format      ascii;
    arch        "LSB;label=32;scalar=64";
    class       volScalarField;
    location    "0.07";
    object      Ksl;
}
// * * * * * * * * * * * * * * * * * * * * * * * * * * * * * * * * * * * * * //

dimensions      [1 -3 -1 0 0 0 0];

internalField   nonuniform List<scalar> 
4608
(
133059
241386
200863
223876
138544
122785
235309
195762
202869
122244
156546
200539
117856
229161
143096
217122
189334
273099
226001
213912
184287
159057
262577
131327
189856
78488.7
195421
104766
185515
254526
257734
309662
136539
250966
326613
164117
174088
140346
98041.3
220399
221028
185692
154166
218518
151936
313385
210556
189278
149283
198066
180965
404988
119231
199919
205163
181302
244969
244953
258519
153903
252717
217563
160827
140766
222675
152730
298827
206277
436827
172659
232636
230131
190154
244286
171393
215756
243968
211589
246873
212244
174959
180049
363771
233791
277057
294868
185574
235618
192570
198755
206321
173463
260734
287980
175192
181862
302876
312622
160478
175599
173453
154701
224836
351708
266900
248087
204296
202864
254060
184786
258927
178606
303543
178274
179359
200194
272546
255638
145552
254319
246524
236472
143135
401001
190930
112142
214888
301276
224324
213038
225512
308281
219335
173680
239977
226283
243957
230540
237685
283881
246905
180474
226145
286709
265070
142731
276014
169911
296225
226740
253024
211294
195720
415079
299273
175945
184836
379821
200358
227697
424793
132568
219791
251154
298571
337921
192275
141622
257762
290071
218621
526549
164643
292422
218993
275006
227415
231908
351790
289192
388365
217575
259236
245730
237551
153528
219837
261368
183810
159370
256082
225032
149405
161344
250039
132276
342040
239387
313812
226516
259699
261407
230968
271969
230142
208123
219246
219524
204180
274141
276510
261115
255718
241709
310728
262241
214827
272976
333711
413818
224432
183569
242161
374702
193768
269065
203735
173535
236838
241651
286080
170915
188527
270036
287993
314981
185978
234528
371709
260061
287016
267260
221256
187911
283901
212570
250434
282394
211729
264241
259417
506599
182073
208057
219396
177327
233503
351748
253202
232635
274347
271577
218739
247918
178249
243408
135034
120975
450896
245034
232193
234081
218098
223111
310968
286579
192277
216293
205985
212963
280445
290241
335510
311116
365755
133428
277061
139474
292979
207706
155542
347015
137009
764955
192275
268431
236294
353001
165670
222032
211557
321281
208327
243720
116296
326102
223754
293637
267192
196457
374327
219521
211246
349358
286303
222053
309610
263179
159640
238196
207212
198177
214031
242954
174969
230243
263140
266727
193333
268501
204420
276324
173052
336269
238454
221498
201950
322668
244302
166523
253344
169789
299241
326083
359776
167249
208839
154227
303470
238354
291606
172512
157037
376339
242592
222596
226436
124353
252732
353841
208052
274409
375640
306670
175880
272790
207613
169820
125307
259477
174385
209121
270456
259061
250312
192772
227202
211060
318699
570245
99631.5
189715
297769
356062
31906.7
40233.9
41971.3
46133.4
48309.4
59290.2
84148.8
42361.1
59331.9
32432.6
116879
65301
161226
133348
110103
66238.5
47083.9
61104.4
72441.3
87446.7
99278.1
71270.9
171454
92623.8
28323.9
25679.9
71325.8
81818.5
209408
96083
150896
36612.2
43775
66129.5
55992.9
79429.1
51259.3
100435
57210.9
24783.7
61972.4
54874
63640.5
85039.7
86356
86049.8
49934.9
21379
12923.8
31950.3
94143.9
51934.1
43201.5
36086.8
40147.7
30141.9
51244.9
48330.8
90297.1
31941.9
68179.7
30820.8
26716.6
45004
0
0
0
0
0
0
0
0
0
0
0
0
0
0
0
0
0
0
0
0
0
0
551.302
0
0
0
0
0
0
1343.41
1048.33
0
0
0
0
0
0
0
0
0
0
0
0
0
0
0
0
0
0
0
0
0
0
0
0
0
0
0
0
0
0
0
0
0
0
0
0
0
0
0
0
0
0
0
0
0
0
0
0
0
0
0
0
0
0
0
0
0
0
0
0
0
0
0
0
0
0
0
0
0
0
0
0
0
0
0
0
0
0
0
0
0
0
0
0
0
0
0
0
0
0
0
0
0
0
0
0
0
0
0
0
0
0
0
0
0
0
0
0
0
0
0
0
0
0
0
0
0
0
0
0
0
0
0
0
0
0
0
0
0
0
0
0
0
0
0
0
0
0
0
0
0
0
0
0
0
0
0
0
0
0
0
0
0
0
0
0
0
0
0
0
0
0
0
0
0
0
0
0
0
0
0
0
0
0
0
0
0
0
0
0
0
0
0
0
0
0
0
0
0
0
0
0
0
0
0
0
0
0
0
0
0
0
0
0
0
0
0
0
0
0
0
0
0
0
0
0
0
0
0
0
0
0
0
0
0
0
0
0
0
0
0
0
0
0
0
0
0
0
0
0
0
0
0
0
0
0
0
0
0
0
0
0
0
0
0
0
0
0
0
0
0
0
0
0
0
0
0
0
0
0
0
0
0
0
0
0
0
0
0
0
0
0
0
0
0
0
0
0
0
0
0
0
0
0
0
0
0
0
0
0
0
0
0
0
0
0
0
0
0
0
0
0
0
0
0
0
0
0
0
0
0
0
0
0
0
0
0
0
0
0
0
0
0
0
0
0
0
0
0
0
0
0
0
0
0
0
0
0
0
0
0
0
0
0
0
0
0
0
0
0
0
0
0
0
0
0
0
0
0
0
0
0
0
0
0
0
0
0
0
0
0
0
0
0
0
0
0
0
0
0
0
0
0
0
0
0
0
0
0
0
0
0
0
0
0
0
0
0
0
0
0
0
0
0
0
0
0
0
0
0
0
0
0
0
0
0
0
0
0
0
0
0
0
0
0
0
0
0
0
0
0
0
0
0
0
0
0
0
0
0
0
0
0
0
0
0
0
0
0
0
0
0
0
0
0
0
0
0
0
0
0
0
0
0
0
0
0
0
0
0
0
0
0
0
0
0
0
0
0
0
0
0
0
0
0
0
0
0
0
0
0
0
0
0
0
0
0
0
0
0
0
0
0
0
0
0
0
0
0
0
0
0
0
0
0
0
0
0
0
0
0
0
0
0
0
0
0
0
0
0
0
0
0
0
0
0
0
0
0
0
0
0
0
0
0
0
0
0
0
0
0
0
0
0
0
0
0
0
0
0
0
0
0
0
0
0
0
0
0
0
0
0
0
0
0
0
0
0
0
0
0
0
0
0
0
0
0
0
0
0
0
0
0
0
0
0
0
0
0
0
0
0
0
0
0
0
0
0
0
0
0
0
0
0
0
0
0
0
0
0
0
0
0
0
0
0
0
0
0
0
0
0
0
0
0
0
0
0
0
0
0
0
0
0
0
0
0
0
0
0
0
0
0
0
0
0
0
0
0
0
0
0
0
0
0
0
0
0
0
0
0
0
0
0
0
0
0
0
0
0
0
0
0
0
0
0
0
0
0
0
0
0
0
0
0
0
0
0
0
0
0
0
0
0
0
0
0
0
0
0
0
0
0
0
0
0
0
0
0
0
0
0
0
0
0
0
0
0
0
0
0
0
0
0
0
0
0
0
0
0
0
0
0
0
0
0
0
0
0
0
0
0
0
0
0
0
0
0
0
0
0
0
0
0
0
0
0
0
0
0
0
0
0
0
0
0
0
0
0
0
0
0
0
0
0
0
0
0
0
0
0
0
0
0
0
0
0
0
0
0
0
0
0
0
0
0
0
0
0
0
0
0
0
0
0
0
0
0
0
0
0
0
0
0
0
0
0
0
0
0
0
0
0
0
0
0
0
0
0
0
0
0
0
0
0
0
0
0
0
0
0
0
0
0
0
0
0
0
0
0
0
0
0
0
0
0
0
0
0
0
0
0
0
0
0
0
0
0
0
0
0
0
0
0
0
0
0
0
0
0
0
0
0
0
0
0
0
0
0
0
0
0
0
0
0
0
0
0
0
0
0
0
0
0
0
0
0
0
0
0
0
0
0
0
0
0
0
0
0
0
0
0
0
0
0
0
0
0
0
0
0
0
0
0
0
0
0
0
0
0
0
0
0
0
0
0
0
0
0
0
0
0
0
0
0
0
0
0
0
0
0
0
0
0
0
0
0
0
0
0
0
0
0
0
0
0
0
0
0
0
0
0
0
0
0
0
0
0
0
0
0
0
0
0
0
0
0
0
0
0
0
0
0
0
0
0
0
0
0
0
0
0
0
0
0
0
0
0
0
0
0
0
0
0
0
0
0
0
0
0
0
0
0
0
0
0
0
158589
212945
195356
148136
169839
157543
210196
162474
282049
149997
162013
201782
177496
254686
199199
189290
145860
162668
168346
152100
293054
223369
169959
204300
199748
168817
204229
144220
223119
201442
144387
207078
259778
108236
310641
229342
295748
230702
210442
312625
219759
314014
173525
288547
191941
148321
250529
241746
252471
187551
178159
209279
182566
215880
183698
256213
142507
281570
162633
172600
256410
221928
254666
159139
239148
314315
248179
128876
312469
259264
220641
83027.4
334186
250081
220108
153126
288137
320392
271579
337988
165291
193647
177055
271294
324578
128611
212153
265528
254604
260142
164262
275376
180371
245218
204429
163556
159087
284565
146288
306957
214058
279871
249499
288039
418366
208362
299317
276115
414770
143145
233973
358943
282493
330121
211097
102333
294263
274001
162730
218992
240653
210377
279824
156841
270406
211640
175168
148468
194224
175615
191795
353524
200143
252914
150043
388340
275082
176604
195648
252867
200568
326603
301721
175540
293105
228179
278262
304346
207777
148382
209286
253495
192219
314497
257008
189916
240075
254575
212386
102668
87174.3
304559
151646
391866
190868
274798
164190
312724
218900
260891
233493
226553
342323
212972
150348
134552
263365
184818
311777
318213
117725
362339
186530
301446
273817
239470
126706
140993
435152
221133
189859
176166
67293.5
28651.6
60553.6
68636.4
31422.8
37823.2
46320.9
59286.1
79774.4
60859.9
82596.8
62906.1
54221.7
28045
20218.4
36795.1
63311.1
25688.9
38937.7
40441.6
49394
60016
57246.1
52663.2
51551.2
52747.8
78058.2
126828
40893
44831.5
115903
50322.7
0
0
0
0
0
0
0
0
0
0
0
0
0
0
0
0
0
0
0
0
0
0
0
0
0
0
0
0
0
0
0
0
0
0
0
0
0
0
0
0
0
0
0
0
0
0
0
0
0
0
0
0
0
0
0
0
0
0
0
0
0
0
0
0
0
0
0
0
0
0
0
0
0
0
0
0
0
0
0
0
0
0
0
0
0
0
0
0
0
0
0
0
0
0
0
0
0
0
0
0
0
0
0
0
0
0
0
0
0
0
0
0
0
0
0
0
0
0
0
0
0
0
0
0
0
0
0
0
0
0
0
0
0
0
0
0
0
0
0
0
0
0
0
0
0
0
0
0
0
0
0
0
0
0
0
0
0
0
0
0
0
0
0
0
0
0
0
0
0
0
0
0
0
0
0
0
0
0
0
0
0
0
0
0
0
0
0
0
0
0
0
0
0
0
0
0
0
0
0
0
0
0
0
0
0
0
0
0
0
0
0
0
0
0
0
0
0
0
0
0
0
0
0
0
0
0
0
0
0
0
0
0
0
0
0
0
0
0
0
0
0
0
0
0
0
0
0
0
0
0
0
0
0
0
0
0
0
0
0
0
0
0
0
0
0
0
0
0
0
0
0
0
0
0
0
0
0
0
0
0
0
0
0
0
0
0
0
0
0
0
0
0
0
0
0
0
0
0
0
0
0
0
0
0
0
0
0
0
0
0
0
0
0
0
0
0
0
0
0
0
0
0
0
0
0
0
0
0
0
0
0
0
0
0
0
0
0
0
0
0
0
0
0
0
0
0
0
0
0
0
0
0
0
0
0
0
0
0
0
0
0
0
0
0
0
0
0
0
0
0
0
0
0
0
0
0
0
0
0
0
0
0
0
0
0
0
0
0
0
0
0
0
0
0
0
0
0
0
0
0
0
0
0
0
0
0
0
0
0
0
0
0
0
0
0
0
0
0
0
0
0
0
0
0
0
0
0
0
0
0
0
0
0
0
0
0
0
0
0
0
0
0
0
0
0
0
0
0
0
0
0
0
0
0
0
0
0
0
0
0
0
0
0
0
0
0
0
0
0
0
0
0
0
0
0
0
0
0
0
0
0
0
0
0
0
0
0
0
0
0
0
0
0
0
0
0
0
0
0
0
0
0
0
0
0
0
0
0
0
0
0
0
0
0
0
0
0
0
0
0
0
0
0
0
0
0
0
0
0
0
0
0
0
0
0
0
0
0
0
0
0
0
0
0
224765
140357
146348
215708
170681
225827
207969
256588
204150
197360
133372
252505
164640
215317
299998
156400
225694
134872
145219
237025
148909
193851
176159
203952
215907
125075
142374
158730
154588
196443
139074
258903
169518
243404
182299
117167
206085
113892
196999
283530
174407
264686
230852
320833
140422
248298
344562
181904
207381
182248
127228
300018
289687
246097
93917.2
267580
116731
142322
307344
194292
110763
258742
137181
177127
212023
226825
233626
223474
197022
289378
233055
187323
236236
176429
281618
274186
304650
171002
185904
174027
157655
285450
206909
267420
172963
164689
275488
302047
188539
180759
231140
224253
270661
246502
256888
158768
226909
243295
159799
376154
203446
202317
246699
146381
253228
176620
196391
333695
276678
398426
258386
226718
186808
95739.9
189720
281900
182494
355080
195317
302235
284922
207345
265957
208713
190395
207800
212635
330314
229658
226283
181636
204371
252354
160482
442901
176898
189343
339680
252275
374066
147629
240529
226419
254735
210663
212955
249994
227995
252926
200542
241324
294270
247979
204779
269829
248757
158770
574072
174999
483278
70232.9
209990
300891
140856
259682
281564
255233
298607
201367
168169
216859
199124
196374
208554
292110
209260
250592
211819
196112
250753
219001
347722
225868
222485
235715
187163
381915
334619
264758
176148
276228
350642
94707.7
46986.9
21848.4
33269
98613.7
76332.5
101396
50579.7
131416
63201.6
76640
68983.2
82986.7
84883.4
67893.9
71060.9
70131.7
74971.4
52072.7
91791.7
83487.6
48813.7
32361.1
53584.8
101947
26764.8
53794.6
46548.6
75990.5
116027
35430.9
61545.6
0
0
0
0
0
0
0
0
0
0
0
0
0
0
0
0
0
0
0
0
0
0
0
0
0
0
0
0
0
0
0
0
0
0
0
0
0
0
0
0
0
0
0
0
0
0
0
0
0
0
0
0
0
0
0
0
0
0
0
0
0
0
0
0
0
0
0
0
0
0
0
0
0
0
0
0
0
0
0
0
0
0
0
0
0
0
0
0
0
0
0
0
0
0
0
0
0
0
0
0
0
0
0
0
0
0
0
0
0
0
0
0
0
0
0
0
0
0
0
0
0
0
0
0
0
0
0
0
0
0
0
0
0
0
0
0
0
0
0
0
0
0
0
0
0
0
0
0
0
0
0
0
0
0
0
0
0
0
0
0
0
0
0
0
0
0
0
0
0
0
0
0
0
0
0
0
0
0
0
0
0
0
0
0
0
0
0
0
0
0
0
0
0
0
0
0
0
0
0
0
0
0
0
0
0
0
0
0
0
0
0
0
0
0
0
0
0
0
0
0
0
0
0
0
0
0
0
0
0
0
0
0
0
0
0
0
0
0
0
0
0
0
0
0
0
0
0
0
0
0
0
0
0
0
0
0
0
0
0
0
0
0
0
0
0
0
0
0
0
0
0
0
0
0
0
0
0
0
0
0
0
0
0
0
0
0
0
0
0
0
0
0
0
0
0
0
0
0
0
0
0
0
0
0
0
0
0
0
0
0
0
0
0
0
0
0
0
0
0
0
0
0
0
0
0
0
0
0
0
0
0
0
0
0
0
0
0
0
0
0
0
0
0
0
0
0
0
0
0
0
0
0
0
0
0
0
0
0
0
0
0
0
0
0
0
0
0
0
0
0
0
0
0
0
0
0
0
0
0
0
0
0
0
0
0
0
0
0
0
0
0
0
0
0
0
0
0
0
0
0
0
0
0
0
0
0
0
0
0
0
0
0
0
0
0
0
0
0
0
0
0
0
0
0
0
0
0
0
0
0
0
0
0
0
0
0
0
0
0
0
0
0
0
0
0
0
0
0
0
0
0
0
0
0
0
0
0
0
0
0
0
0
0
0
0
0
0
0
0
0
0
0
0
0
0
0
0
0
0
0
0
0
0
0
0
0
0
0
0
0
0
0
0
0
0
0
0
0
0
0
0
0
0
0
0
0
0
0
0
0
0
0
0
0
0
0
0
0
0
0
0
0
0
0
0
0
0
0
0
0
0
0
0
0
0
0
0
0
0
0
0
0
0
0
168907
172208
232876
225776
171640
209636
145640
225641
149462
164693
182026
138691
299011
235787
203498
213874
180546
241708
163000
219135
159520
173520
185272
188013
181641
250295
139843
299589
125707
185205
161795
244229
148115
243641
184897
225860
180452
215705
136798
165651
263309
173859
188757
197355
249755
163248
271371
246280
161899
259003
247102
222221
172866
214464
178854
95346.1
332155
240414
145285
213023
238319
232172
294811
264125
276653
170667
267612
172828
193838
204524
218364
200847
230914
237475
172228
240888
159683
197866
268568
238884
226142
180431
301793
254599
262328
182453
169914
270032
280813
280661
237535
238244
282018
282228
205689
244336
154481
284911
202912
277942
197578
219702
219945
133458
200608
146496
249294
141318
266770
292224
264874
259415
213578
291760
299841
242767
214251
176982
286743
221171
311022
210144
206583
195828
421877
272458
256875
206716
206139
189363
279823
203965
194809
230997
145901
220425
241329
281281
153258
388256
208210
302816
185644
263321
167209
218918
234509
367915
166031
181037
178350
508643
204007
295095
289527
261561
201022
185832
350581
259539
191533
257749
229831
201402
191190
162810
259049
191933
347636
237379
203812
221125
222249
294014
194418
183027
120724
327404
285190
229830
249358
299460
346335
210679
287728
163430
132485
362565
150855
215945
221848
247714
35955.5
43610.6
58006.3
49713.1
62013.3
50487.7
47783.6
141369
73338.3
43584.6
29585.8
31827.4
51705
55881
82561.3
88263.3
67260.7
37931
45218.9
39786.8
43889.5
23418.6
33300.7
75914.7
50315.3
18306.8
37319.7
48377.1
38768.8
88978.9
23587.3
43323.3
0
0
0
0
0
0
0
0
0
0
0
0
0
0
0
0
0
0
0
0
0
0
0
0
0
0
0
0
0
0
0
0
0
0
0
0
0
0
0
0
0
0
0
0
0
0
0
0
0
0
0
0
0
0
0
0
0
0
0
0
0
0
0
0
0
0
0
0
0
0
0
0
0
0
0
0
0
0
0
0
0
0
0
0
0
0
0
0
0
0
0
0
0
0
0
0
0
0
0
0
0
0
0
0
0
0
0
0
0
0
0
0
0
0
0
0
0
0
0
0
0
0
0
0
0
0
0
0
0
0
0
0
0
0
0
0
0
0
0
0
0
0
0
0
0
0
0
0
0
0
0
0
0
0
0
0
0
0
0
0
0
0
0
0
0
0
0
0
0
0
0
0
0
0
0
0
0
0
0
0
0
0
0
0
0
0
0
0
0
0
0
0
0
0
0
0
0
0
0
0
0
0
0
0
0
0
0
0
0
0
0
0
0
0
0
0
0
0
0
0
0
0
0
0
0
0
0
0
0
0
0
0
0
0
0
0
0
0
0
0
0
0
0
0
0
0
0
0
0
0
0
0
0
0
0
0
0
0
0
0
0
0
0
0
0
0
0
0
0
0
0
0
0
0
0
0
0
0
0
0
0
0
0
0
0
0
0
0
0
0
0
0
0
0
0
0
0
0
0
0
0
0
0
0
0
0
0
0
0
0
0
0
0
0
0
0
0
0
0
0
0
0
0
0
0
0
0
0
0
0
0
0
0
0
0
0
0
0
0
0
0
0
0
0
0
0
0
0
0
0
0
0
0
0
0
0
0
0
0
0
0
0
0
0
0
0
0
0
0
0
0
0
0
0
0
0
0
0
0
0
0
0
0
0
0
0
0
0
0
0
0
0
0
0
0
0
0
0
0
0
0
0
0
0
0
0
0
0
0
0
0
0
0
0
0
0
0
0
0
0
0
0
0
0
0
0
0
0
0
0
0
0
0
0
0
0
0
0
0
0
0
0
0
0
0
0
0
0
0
0
0
0
0
0
0
0
0
0
0
0
0
0
0
0
0
0
0
0
0
0
0
0
0
0
0
0
0
0
0
0
0
0
0
0
0
0
0
0
0
0
0
0
0
0
0
0
0
0
0
0
0
0
0
0
0
0
0
0
0
0
0
0
0
0
0
0
0
0
0
0
0
0
0
0
0
0
0
0
0
0
0
0
0
0
0
0
0
0
0
0
0
0
0
0
185163
213735
166182
200485
156250
213106
219044
151053
299519
200321
158358
155641
141241
288305
113731
146018
236092
148666
283969
238568
162541
225678
189794
149584
128284
208952
156864
259319
329431
144880
303089
173929
183511
121076
262787
95456.4
136201
320671
258489
159813
234084
209539
309265
250001
203432
250416
240760
161697
261485
167545
116308
230979
202779
251080
195754
164525
339382
176439
158506
245808
211985
247162
205107
182780
238365
284848
371517
218114
359849
224967
186385
240473
162975
202412
222684
198305
185766
165134
199965
328977
333435
267369
393653
183493
219872
274536
220573
265064
166057
299140
102683
239065
296720
170748
290780
175088
286003
210014
255540
186714
221613
214372
206498
211500
306706
241876
229045
169710
194890
441849
153203
208540
262085
266455
184384
306931
274776
193409
193527
188255
146142
253170
224903
154953
201058
205962
225229
168533
202924
468557
223685
148932
201372
347223
220706
250822
269256
192799
224007
259144
169102
162280
215187
200798
317837
219682
290147
183538
267418
276647
262159
265591
243758
389900
175788
176421
202972
181532
401702
236491
155488
331844
253005
202504
100362
193700
167873
206264
254247
267844
223696
176888
324762
278464
350001
312031
160682
196770
174438
186489
172471
273962
145042
169325
147337
283069
202138
292961
289395
247679
253712
172143
84110.7
103673
83376.9
47705.8
52483.9
41440.7
99353.1
113381
25336
34119
29594.2
161031
72829.6
26815.4
69689.7
48763.7
28785.5
38206
49428.2
46510.7
20376.3
74284
21123.8
27652.1
43500.7
42255.7
35151.2
36834.1
12805.9
91457.8
47340.1
44574.5
0
0
0
0
0
0
0
0
0
0
0
4612.73
0
0
0
0
0
0
0
0
0
0
0
0
0
0
0
0
0
0
0
0
0
0
0
0
0
0
0
0
0
0
0
0
0
0
0
0
0
0
0
0
0
0
0
0
0
0
0
0
0
0
0
0
0
0
0
0
0
0
0
0
0
0
0
0
0
0
0
0
0
0
0
0
0
0
0
0
0
0
0
0
0
0
0
0
0
0
0
0
0
0
0
0
0
0
0
0
0
0
0
0
0
0
0
0
0
0
0
0
0
0
0
0
0
0
0
0
0
0
0
0
0
0
0
0
0
0
0
0
0
0
0
0
0
0
0
0
0
0
0
0
0
0
0
0
0
0
0
0
0
0
0
0
0
0
0
0
0
0
0
0
0
0
0
0
0
0
0
0
0
0
0
0
0
0
0
0
0
0
0
0
0
0
0
0
0
0
0
0
0
0
0
0
0
0
0
0
0
0
0
0
0
0
0
0
0
0
0
0
0
0
0
0
0
0
0
0
0
0
0
0
0
0
0
0
0
0
0
0
0
0
0
0
0
0
0
0
0
0
0
0
0
0
0
0
0
0
0
0
0
0
0
0
0
0
0
0
0
0
0
0
0
0
0
0
0
0
0
0
0
0
0
0
0
0
0
0
0
0
0
0
0
0
0
0
0
0
0
0
0
0
0
0
0
0
0
0
0
0
0
0
0
0
0
0
0
0
0
0
0
0
0
0
0
0
0
0
0
0
0
0
0
0
0
0
0
0
0
0
0
0
0
0
0
0
0
0
0
0
0
0
0
0
0
0
0
0
0
0
0
0
0
0
0
0
0
0
0
0
0
0
0
0
0
0
0
0
0
0
0
0
0
0
0
0
0
0
0
0
0
0
0
0
0
0
0
0
0
0
0
0
0
0
0
0
0
0
0
0
0
0
0
0
0
0
0
0
0
0
0
0
0
0
0
0
0
0
0
0
0
0
0
0
0
0
0
0
0
0
0
0
0
0
0
0
0
0
0
0
0
0
0
0
0
0
0
0
0
0
0
0
0
0
0
0
0
0
0
0
0
0
0
0
0
0
0
0
0
0
0
0
0
0
0
0
0
0
0
0
0
0
0
0
0
0
0
0
0
0
0
0
0
0
0
0
0
0
0
0
0
0
0
0
0
0
0
0
0
0
0
0
0
0
0
0
0
0
0
0
0
0
0
0
0
0
0
0
0
0
0
0
0
0
)
;

boundaryField
{
    inlet
    {
        type            zeroGradient;
    }
    outlet
    {
        type            zeroGradient;
    }
    wall
    {
        type            zeroGradient;
    }
}


// ************************************************************************* //
