/*--------------------------------*- C++ -*----------------------------------*\
| =========                 |                                                 |
| \\      /  F ield         | OpenFOAM: The Open Source CFD Toolbox           |
|  \\    /   O peration     | Version:  2506                                  |
|   \\  /    A nd           | Website:  www.openfoam.com                      |
|    \\/     M anipulation  |                                                 |
\*---------------------------------------------------------------------------*/
FoamFile
{
    version     2.0;
    format      ascii;
    arch        "LSB;label=32;scalar=64";
    class       surfaceScalarField;
    location    "0.07";
    object      phi;
}
// * * * * * * * * * * * * * * * * * * * * * * * * * * * * * * * * * * * * * //

dimensions      [0 3 -1 0 0 0 0];

oriented        oriented;

internalField   nonuniform List<scalar> 
13248
(
-3.6777e-09
-4.27036e-09
5.16229e-08
3.33961e-09
-3.1058e-09
-4.53833e-09
-7.98067e-10
4.71435e-08
-1.25949e-09
-3.30353e-09
2.42587e-09
3.31266e-08
6.87127e-09
3.03643e-09
9.22888e-10
3.63461e-08
2.58285e-10
4.72382e-09
4.35437e-10
3.84584e-08
3.15607e-09
-4.6825e-09
-5.31589e-09
6.33988e-08
-3.19541e-09
2.97131e-09
1.10906e-09
3.39936e-08
2.44099e-09
3.94445e-10
3.55012e-08
2.65353e-09
6.14628e-09
1.89827e-09
-7.79664e-10
4.20262e-08
-3.47313e-09
-4.94636e-09
-3.28842e-09
5.37405e-08
-4.35642e-09
-6.48014e-09
5.26947e-08
2.53529e-09
2.86192e-10
3.78741e-08
-2.76559e-09
-3.57556e-09
5.32002e-08
1.20685e-09
-1.60758e-09
3.64692e-08
4.42331e-10
-1.37006e-09
4.63576e-08
1.62933e-09
3.59778e-08
5.14483e-09
-1.35023e-09
-1.17227e-09
4.78222e-08
-3.68279e-09
-4.37241e-09
6.29003e-09
3.78316e-08
2.02222e-09
5.82794e-09
2.47657e-08
-8.31417e-10
1.14319e-08
3.52005e-08
3.30672e-11
3.48067e-09
3.37284e-08
2.42075e-09
-9.58595e-10
3.99171e-08
4.23644e-09
3.48777e-09
3.56979e-08
-7.87928e-10
5.23498e-08
-2.41691e-09
5.78787e-09
-4.16202e-09
4.24703e-08
-1.4115e-09
-8.06062e-09
-1.66695e-08
8.00788e-08
4.73473e-09
-1.01891e-09
3.76718e-08
-8.81718e-09
-1.22348e-09
6.86733e-08
-2.88686e-09
5.16006e-09
3.53859e-08
3.88695e-09
9.17573e-09
2.52417e-08
9.86494e-10
9.92378e-09
3.77244e-08
1.47545e-09
3.6978e-08
5.76264e-09
-1.5854e-09
-2.30793e-09
4.19224e-08
8.79425e-10
6.7102e-10
-1.59147e-09
2.59909e-08
3.70457e-09
1.88797e-09
3.7106e-08
-4.38109e-10
-1.69884e-09
4.72442e-08
1.15186e-09
-6.24009e-12
4.71815e-08
7.1254e-10
-3.86557e-09
5.65155e-08
-8.90041e-09
-5.10849e-09
6.81047e-08
4.70883e-09
2.76819e-08
9.30453e-10
1.56276e-09
3.73152e-09
3.04359e-08
2.51834e-09
1.9895e-09
2.80933e-09
3.57053e-08
-1.96922e-09
1.43701e-09
4.78454e-08
1.42587e-09
1.3688e-09
3.72776e-08
-1.81862e-09
2.71211e-09
4.55934e-08
9.73485e-10
2.22845e-09
3.45777e-08
3.08832e-09
3.0312e-09
3.25795e-08
5.71332e-10
5.03452e-08
1.84467e-09
6.10737e-11
-1.89548e-09
3.96253e-08
8.1024e-09
-5.91973e-10
-3.50496e-10
4.51995e-08
-4.68345e-09
2.4309e-09
4.6645e-08
5.33386e-09
3.81765e-09
2.869e-08
7.41768e-10
-9.89097e-10
5.19452e-08
4.69685e-09
6.93453e-09
3.56345e-08
-4.63854e-10
6.82842e-10
5.08853e-08
2.11996e-09
3.85814e-08
4.20299e-09
-3.68085e-10
2.91853e-08
5.37246e-09
7.2627e-09
2.65391e-09
3.11938e-08
7.15704e-09
-2.01636e-09
4.7712e-08
1.37011e-10
2.85019e-09
3.51467e-08
4.8951e-09
5.76114e-09
3.72203e-08
1.11286e-09
-2.35249e-09
6.27687e-08
-3.86352e-09
-1.71126e-09
4.64123e-08
-2.81498e-09
4.5389e-08
-1.46716e-09
3.33223e-10
2.59391e-09
-2.24109e-09
4.21672e-08
6.0828e-09
3.01973e-09
-1.58626e-09
-8.53707e-09
5.66083e-08
3.25214e-09
-1.42095e-09
-3.80745e-09
3.57258e-08
1.04285e-09
-3.9794e-09
-2.37977e-09
3.85218e-08
2.76244e-09
3.32916e-09
-3.98454e-12
3.00804e-08
1.07337e-09
3.6307e-09
4.58419e-09
5.75361e-08
9.76925e-10
2.08187e-09
-2.30606e-09
3.65479e-08
1.30056e-09
-6.06135e-10
3.5999e-08
6.6082e-10
1.52938e-09
-4.41854e-09
-3.88008e-09
4.31673e-08
4.91619e-09
-4.93315e-10
2.98943e-09
3.82886e-08
-2.08482e-10
7.31529e-10
4.78707e-08
-3.70333e-09
2.18165e-09
3.68074e-08
7.69575e-09
3.79157e-09
3.80053e-08
-3.55707e-10
-6.93692e-10
4.97984e-08
2.79796e-09
2.07867e-09
3.8819e-08
-1.77238e-11
3.53749e-08
2.81241e-09
2.42043e-09
-4.21466e-09
4.47417e-08
9.94511e-10
-2.13156e-09
-1.52699e-08
6.06428e-08
1.2684e-09
-2.43709e-09
2.45343e-08
-3.36406e-09
-6.54206e-09
4.85566e-08
9.37497e-10
3.2955e-09
2.99228e-08
4.89486e-09
4.24008e-10
3.4842e-08
1.44666e-09
1.122e-09
4.01027e-08
6.30098e-09
4.0417e-08
7.06066e-09
-1.11752e-08
-4.47349e-09
4.86899e-08
5.21422e-09
6.8459e-09
1.24949e-08
3.42928e-08
8.80403e-10
7.29879e-09
3.39013e-08
4.54776e-09
1.90293e-09
5.65601e-08
1.47186e-09
-1.99936e-09
4.3757e-08
5.90891e-09
-3.24757e-09
2.44763e-08
3.82136e-09
-7.80021e-09
4.87342e-08
3.14808e-09
4.41936e-08
-2.41295e-10
7.03994e-09
4.70029e-09
2.24452e-08
3.26334e-09
-2.99126e-09
-3.38144e-09
5.18983e-08
-5.45664e-09
-2.52213e-09
4.93922e-08
-1.90534e-09
-3.65311e-10
4.59617e-08
-5.07129e-10
5.1073e-10
4.32724e-08
2.25063e-09
5.17557e-09
4.53345e-08
1.04322e-08
4.67662e-09
4.74463e-08
-5.08067e-09
4.84688e-08
-2.12594e-09
-5.08169e-10
1.86267e-09
3.2571e-08
1.21064e-09
-1.45285e-10
2.06946e-09
2.98915e-08
2.49159e-10
2.31152e-09
4.26171e-08
2.70727e-09
4.2363e-09
3.02179e-08
2.90271e-09
-4.01529e-09
4.99239e-08
2.97306e-09
5.58395e-10
3.91246e-08
3.78125e-09
9.63559e-10
3.54844e-08
1.31005e-09
4.52858e-08
2.44994e-09
1.75675e-09
4.22373e-09
3.24818e-08
3.02565e-09
-1.37376e-09
5.85714e-09
4.45422e-08
1.19476e-09
7.44929e-09
3.89386e-08
-5.16388e-09
2.41895e-09
3.6866e-08
6.7022e-09
1.01742e-08
2.58897e-08
1.95743e-09
3.6892e-09
3.72485e-08
1.53792e-09
2.04958e-09
5.02188e-08
4.53577e-09
3.47071e-08
2.18651e-09
1.98394e-09
3.39361e-08
-2.73467e-09
2.23684e-10
-1.55222e-09
4.58485e-08
-5.26134e-09
-9.78676e-10
5.30137e-08
1.57379e-09
6.19615e-09
2.33902e-08
7.00065e-09
3.83586e-09
5.17416e-08
-1.98681e-09
-3.18466e-09
7.6798e-08
-3.31952e-09
1.05019e-09
3.98659e-08
4.36109e-09
3.56766e-08
9.68123e-09
5.61733e-09
-1.25267e-09
-5.06499e-09
5.68882e-08
-8.27721e-09
-1.26128e-10
2.00437e-09
-3.63066e-09
5.64551e-08
5.26587e-10
5.68633e-09
-3.30315e-09
3.96862e-08
-4.33932e-09
-4.65648e-09
-4.99077e-09
5.79522e-08
-4.09692e-09
-3.78101e-09
-3.47036e-10
3.1832e-08
-2.28016e-09
4.99678e-10
4.67187e-09
4.8233e-08
3.50404e-10
1.04053e-09
1.64118e-09
3.33601e-08
1.0057e-09
1.66488e-09
4.11756e-08
-2.48036e-09
-3.32064e-09
-3.75784e-10
-2.49667e-09
3.73701e-08
3.60446e-09
5.97127e-10
-4.55468e-09
3.82396e-08
1.90818e-09
-5.44061e-10
4.38005e-08
1.22516e-09
-2.28387e-09
3.47834e-08
4.4868e-10
8.76718e-10
3.7558e-08
1.07118e-09
3.17615e-09
5.06716e-08
4.69662e-10
-1.3967e-09
4.24583e-08
4.56892e-10
3.76148e-08
-5.62338e-10
3.47296e-10
-5.35087e-10
4.19508e-08
4.81964e-10
3.88109e-09
-2.54441e-09
5.50986e-08
2.09533e-10
-3.51575e-09
3.11775e-08
3.2515e-09
-5.64346e-09
4.88741e-08
1.38379e-09
3.31208e-11
3.2634e-08
-2.71888e-09
2.19102e-09
3.99297e-08
2.08334e-09
1.06084e-09
3.28429e-08
4.99104e-10
4.03893e-08
2.06871e-09
-1.10398e-09
3.64893e-09
4.6854e-08
-1.24417e-09
3.49077e-10
5.58293e-09
2.47122e-08
1.53283e-09
3.00486e-09
2.61968e-08
8.25937e-09
4.26735e-09
3.99223e-08
5.44087e-09
-2.17849e-09
4.87872e-08
-3.79155e-09
-4.83197e-09
4.07317e-08
8.37562e-10
1.84578e-10
4.49814e-08
6.96906e-09
3.51159e-08
3.44544e-09
-2.70679e-09
-5.6152e-10
3.3068e-08
-3.70571e-09
-2.73871e-09
-1.33817e-09
5.88512e-08
4.60952e-10
-1.22245e-09
5.04198e-08
-3.35388e-10
-6.44156e-10
5.16696e-08
-1.45396e-09
4.31622e-09
3.7896e-08
4.01364e-09
1.56345e-09
3.34714e-08
8.28166e-09
-2.77531e-10
4.36405e-08
-3.73043e-09
6.87429e-08
-1.29299e-09
-2.3155e-09
-3.09621e-09
4.23639e-08
-4.9427e-09
-1.31714e-09
-2.74909e-09
3.03039e-08
7.11299e-10
-7.41934e-10
4.01081e-08
5.31898e-09
2.89383e-09
2.20723e-08
-2.88399e-09
5.99481e-10
6.18435e-08
-3.60098e-10
2.11601e-09
3.60482e-08
1.11333e-09
-4.4763e-10
3.41812e-08
4.94753e-09
3.58999e-08
1.82141e-09
-3.34656e-09
-2.29318e-09
3.84488e-08
-3.42357e-09
8.87387e-10
1.24463e-10
3.74345e-08
3.12699e-09
-2.59748e-10
3.62167e-08
8.09764e-10
4.19312e-10
4.16578e-08
6.96326e-10
9.64507e-10
2.56381e-08
-2.75783e-09
-3.31765e-09
4.61364e-08
4.89992e-09
4.9156e-09
3.71979e-08
5.98717e-09
3.37115e-08
4.85596e-09
-3.57194e-09
4.44306e-08
-1.53797e-09
-7.67777e-09
-5.03078e-10
4.94097e-08
-6.50552e-09
4.86114e-09
3.94504e-08
7.9392e-09
2.9525e-09
2.3817e-08
1.90121e-09
-4.05521e-09
5.72168e-08
2.49712e-09
5.74351e-09
5.91232e-08
4.55843e-09
5.28482e-09
4.19216e-08
3.3185e-09
4.80478e-08
-9.40591e-10
-1.58463e-10
-2.54668e-09
9.34763e-12
5.69257e-08
-1.17105e-09
3.67076e-09
4.53983e-09
2.47954e-10
4.68585e-08
2.26189e-09
4.11291e-09
4.01961e-09
3.68141e-08
-7.20613e-10
-4.00852e-09
7.418e-09
6.24502e-08
-3.79477e-09
-2.30622e-09
-5.49088e-10
2.87783e-08
1.9004e-09
2.78062e-09
1.34995e-09
3.67373e-08
5.05886e-09
8.61753e-10
1.26066e-09
3.5903e-08
-1.88475e-09
3.03346e-09
3.94338e-08
-2.1335e-09
1.70354e-09
-6.27693e-10
-4.33432e-09
4.74737e-08
-5.13227e-09
6.68299e-09
-4.88997e-09
3.60667e-08
2.37033e-09
-7.30189e-09
5.94345e-08
-7.66705e-09
-9.81821e-09
6.20569e-08
-2.13962e-09
2.46502e-09
2.90164e-08
3.25336e-09
5.76755e-09
4.08609e-08
2.96275e-09
2.7604e-09
4.12491e-08
3.65791e-10
4.16518e-08
1.59351e-09
-3.16328e-09
-3.64734e-09
4.7145e-08
-2.71796e-09
4.20113e-09
2.64199e-09
4.02022e-08
-9.90972e-10
-6.76234e-10
2.97439e-08
4.9845e-09
-1.91628e-09
3.49966e-08
6.16622e-10
-3.06137e-09
4.25282e-08
2.41423e-10
4.56381e-09
4.15086e-08
5.94367e-11
-7.65191e-10
3.65504e-08
3.30201e-09
3.94796e-08
-1.9671e-09
3.71752e-09
4.67859e-09
3.88958e-08
-4.08534e-09
1.04696e-09
-2.60278e-09
3.26275e-08
-1.68532e-09
2.57106e-09
2.56818e-08
3.68112e-09
6.59861e-09
2.60408e-08
9.78046e-09
7.11412e-09
3.25123e-08
-5.60821e-09
-5.09221e-09
6.57764e-08
3.82038e-09
-8.75164e-11
3.48752e-08
-7.2654e-09
5.32787e-08
-3.77484e-09
-3.87113e-09
2.69207e-09
4.23614e-08
-3.43588e-09
7.28944e-09
2.86047e-09
4.22273e-08
-2.14275e-09
1.6978e-09
6.07251e-08
7.21584e-09
5.43852e-09
4.3471e-08
-3.93584e-09
-5.38157e-09
6.15431e-08
-2.03695e-09
-1.16332e-09
2.76436e-08
-2.92681e-09
1.40089e-09
4.30419e-08
4.44885e-09
4.97841e-08
4.31777e-09
-2.17042e-09
5.57333e-09
4.65045e-08
-4.85154e-09
3.44082e-09
-8.81497e-10
2.84346e-08
7.47095e-10
-1.35302e-09
4.58526e-08
-3.48621e-09
-2.21335e-09
3.39574e-08
-7.47717e-10
8.37747e-10
5.28857e-08
5.50691e-10
4.91226e-11
3.35374e-08
-7.56044e-10
-3.88058e-10
3.72769e-08
9.29432e-10
4.02619e-08
-1.59869e-09
-6.06175e-09
-8.07601e-09
6.93574e-08
-1.11975e-08
3.87934e-09
-3.87138e-09
3.04833e-08
4.87797e-10
-5.04522e-09
4.33004e-08
9.52364e-10
-1.93065e-09
4.09106e-08
-1.09165e-09
-3.99027e-09
3.25101e-08
-7.288e-10
-3.43168e-09
4.92544e-08
1.13525e-09
4.49037e-09
3.04554e-08
-9.12003e-10
4.01003e-08
-3.41215e-09
-5.53293e-09
4.7435e-08
2.22656e-09
-7.77397e-09
3.18663e-09
3.06064e-08
6.21235e-09
2.48866e-09
3.30917e-08
2.01138e-09
-4.11023e-10
2.97431e-08
-4.95698e-09
-1.3207e-09
4.99576e-08
4.17855e-09
6.88605e-09
4.45961e-08
2.88864e-09
-4.29041e-09
5.59767e-08
1.61172e-09
5.03675e-08
-8.53918e-09
1.01724e-09
1.93577e-10
9.56621e-10
4.7059e-08
3.73605e-09
4.98037e-09
2.49525e-09
5.08429e-10
3.99864e-08
4.06197e-09
-3.47282e-09
-1.18668e-09
4.06459e-08
3.32288e-09
9.02938e-09
7.62246e-09
4.11279e-08
1.19759e-09
-3.66929e-09
-2.16161e-09
4.3271e-08
3.67518e-10
-6.24084e-11
-3.30641e-09
3.43174e-08
2.11949e-09
2.03526e-11
-1.51117e-09
3.6819e-08
5.12358e-10
1.75563e-09
3.56835e-08
-1.65236e-09
3.66744e-09
6.17023e-10
-1.48738e-09
5.59729e-08
-6.67228e-09
1.56709e-09
-3.93169e-10
3.60182e-08
-1.63402e-10
1.23926e-09
5.8739e-08
3.14343e-09
5.43291e-09
6.09395e-08
-3.13132e-09
-1.46472e-09
3.45941e-08
1.91072e-09
4.07524e-09
2.84372e-08
3.20015e-09
1.33017e-09
3.71183e-08
-3.05913e-10
3.92166e-08
7.69685e-09
9.75069e-10
-2.55261e-09
4.70239e-08
2.11139e-10
1.85085e-09
3.56226e-09
3.53709e-08
1.23235e-09
1.69327e-09
2.99083e-08
-3.16226e-09
3.36665e-09
4.14574e-08
-1.07501e-10
-1.05455e-09
3.90632e-08
-1.36794e-09
-1.22697e-09
4.80712e-08
2.28038e-09
1.01142e-09
3.32208e-08
4.54134e-09
3.5197e-08
1.71568e-09
5.67932e-09
2.87386e-09
2.85851e-08
-7.951e-10
4.53882e-10
-5.37929e-09
4.67945e-08
1.91167e-09
-7.60643e-09
3.35236e-08
-5.38141e-09
-5.70595e-09
4.24064e-08
3.71859e-10
3.11806e-09
2.25863e-08
1.03251e-09
9.57509e-09
5.43136e-08
5.32697e-09
3.29707e-09
2.8295e-08
-4.12309e-09
7.05892e-08
-3.31905e-09
-1.37095e-09
6.66179e-10
4.93742e-08
-3.43416e-09
4.32299e-10
9.75312e-10
3.40694e-08
-9.57657e-10
4.27038e-10
5.40815e-08
3.4769e-09
1.04406e-09
3.22864e-08
7.401e-09
-1.02853e-10
6.08398e-08
-3.01014e-09
-1.90894e-09
4.95387e-08
-2.89649e-09
4.92907e-09
4.12962e-08
7.12369e-09
3.02908e-08
5.35006e-09
-5.31382e-10
6.76557e-09
4.30049e-08
-2.06831e-09
-4.58131e-10
1.27387e-09
2.80628e-08
2.85739e-10
2.66394e-09
4.28719e-08
5.61343e-10
3.29123e-10
3.43968e-08
-1.18071e-12
1.90719e-09
5.14381e-08
4.3929e-09
-5.16783e-10
2.77511e-08
1.86472e-09
-2.27411e-09
4.70083e-08
-1.87984e-09
5.08618e-08
2.68383e-10
-3.2508e-09
-5.64462e-09
9.80161e-08
-1.29977e-08
-9.24075e-10
-8.56711e-10
3.02872e-08
-1.30121e-09
-2.9735e-09
4.9315e-08
1.14266e-09
4.71469e-10
3.83243e-08
-2.18995e-09
4.75066e-09
3.29993e-08
1.60974e-09
1.21417e-09
4.37238e-08
1.96346e-09
-2.19833e-09
3.00259e-08
-6.93235e-09
4.97526e-08
-2.63646e-09
1.458e-10
4.12742e-08
4.05076e-09
-3.68028e-09
-1.35979e-09
3.38132e-08
-2.55794e-09
3.13977e-09
2.71804e-08
-1.56173e-09
6.56067e-09
3.0685e-08
-3.8913e-09
-5.32713e-09
7.33126e-08
-6.71652e-09
-2.37183e-09
4.38896e-08
-1.0346e-09
-4.72607e-09
5.16189e-08
4.51357e-09
3.4499e-08
2.93553e-09
1.27455e-09
1.69701e-09
-5.89456e-09
5.71472e-08
-4.29521e-09
-1.59547e-09
-2.19694e-09
-5.81573e-10
4.22328e-08
2.22918e-09
-2.88956e-10
-1.13852e-08
4.87587e-08
1.36437e-09
-1.32883e-09
-7.18064e-09
4.67801e-08
2.56821e-09
-3.92896e-10
-1.10865e-08
5.07803e-08
2.64128e-09
-1.14082e-09
-4.81386e-09
4.01861e-08
-3.06944e-10
2.49037e-09
-4.65852e-09
3.01647e-08
7.68157e-09
-3.17383e-09
4.8519e-08
4.47847e-10
-7.61914e-09
5.872e-09
2.6483e-09
4.18691e-08
-3.11054e-10
-1.11786e-08
-1.49936e-09
5.39865e-08
2.86897e-10
5.76038e-09
3.0128e-08
8.12197e-10
2.21644e-09
5.1017e-08
4.3376e-10
-1.07033e-09
2.49564e-08
-2.35841e-10
-1.52785e-09
2.58208e-08
4.36337e-09
-2.93852e-09
3.07991e-08
-4.32551e-10
3.96869e-08
1.15169e-09
1.48676e-09
4.29879e-09
4.69645e-08
-3.07777e-09
-3.30495e-09
2.24539e-09
3.64179e-08
-4.79859e-09
1.68796e-09
3.54744e-08
-3.00912e-09
3.51318e-09
3.83712e-08
-9.93771e-11
4.20202e-10
3.46629e-08
-2.29344e-09
-2.37039e-09
5.11077e-08
4.12522e-09
2.24284e-09
2.16207e-08
1.68923e-09
3.19694e-08
5.23104e-09
-1.83968e-09
-6.09879e-09
4.71098e-08
-6.28734e-09
-7.77105e-09
-3.35269e-09
5.8324e-08
-5.99189e-09
-2.20661e-09
3.56391e-08
-5.02808e-09
2.13315e-09
4.28225e-08
-1.92128e-09
2.40627e-09
1.74934e-08
2.73554e-09
7.37622e-09
3.991e-08
6.07338e-09
4.08585e-09
2.31141e-08
9.15501e-09
6.78748e-08
1.32188e-09
6.58114e-10
-2.57972e-10
4.71905e-08
-4.31527e-09
-2.8506e-09
1.03121e-09
3.31943e-08
-4.29573e-10
5.85984e-11
4.93953e-08
-2.90366e-09
-4.3765e-10
3.73312e-08
-1.64849e-09
1.01696e-09
6.09738e-08
8.13697e-09
7.07703e-09
4.00523e-08
5.44642e-09
3.02309e-09
4.50495e-08
-1.75033e-09
4.97672e-08
-3.1246e-09
2.71473e-09
4.20304e-09
3.54621e-08
3.67042e-10
-3.40796e-09
6.40361e-10
3.45764e-08
-7.59339e-10
-1.42353e-09
4.17054e-08
-2.15551e-09
3.0837e-09
3.22715e-08
3.27773e-09
7.92997e-09
3.90918e-08
3.52153e-09
3.50504e-09
3.10792e-08
5.8632e-09
4.29601e-09
4.33937e-08
-1.18932e-09
5.66158e-08
-4.51859e-10
3.31184e-09
-5.96171e-09
1.03795e-07
1.07389e-09
-9.30049e-09
-3.3924e-09
4.69323e-08
4.59501e-09
1.00528e-09
3.29907e-08
4.59716e-10
3.10521e-09
4.2438e-08
9.82586e-10
-4.62129e-09
4.50276e-08
2.05854e-09
-1.12227e-10
4.62651e-08
-4.21645e-10
-3.63073e-10
3.71651e-08
9.88228e-10
4.90361e-08
-1.88275e-09
2.82918e-09
4.36764e-08
-1.23218e-08
1.12866e-09
-2.57423e-09
3.70188e-08
-1.19463e-09
2.45796e-09
2.68627e-08
-3.70933e-09
-1.40881e-08
5.21314e-08
-1.79522e-09
7.70566e-09
4.30478e-08
3.84971e-09
1.41971e-09
4.97457e-08
3.17555e-10
4.64293e-10
5.84774e-08
-6.2661e-09
3.70982e-08
-2.13431e-09
9.87575e-10
3.64887e-09
4.10415e-10
5.26949e-08
-3.33331e-09
3.72516e-09
8.88153e-10
-2.23844e-09
4.75865e-08
-3.53357e-10
6.15524e-10
1.86864e-09
4.66034e-08
5.59243e-10
-3.3889e-10
-2.22014e-09
4.72077e-08
2.74672e-09
7.43512e-10
1.80951e-09
4.82377e-08
-3.49217e-10
3.41182e-10
9.92415e-10
3.73274e-08
2.2682e-09
-2.96047e-09
-7.56533e-10
3.51232e-08
-8.9979e-10
5.59686e-10
4.39402e-08
1.65637e-09
-5.97735e-10
-6.05914e-12
-6.91544e-10
4.3466e-08
-4.87495e-10
4.18365e-09
6.37714e-10
4.69204e-08
2.45707e-09
-1.05782e-09
3.47811e-08
3.97952e-09
4.56242e-10
4.68176e-08
-1.8937e-09
-4.198e-10
3.30592e-08
-1.24469e-09
-2.1173e-09
2.82823e-08
-1.48078e-09
1.32571e-09
2.89528e-08
5.65862e-10
4.01921e-08
-1.99195e-09
9.04733e-10
-5.76439e-10
4.48246e-08
1.11984e-09
-3.6059e-10
-2.80068e-09
4.1122e-08
-6.96749e-10
-1.00066e-09
3.57529e-08
-2.03683e-10
-9.68956e-10
3.93034e-08
-1.47627e-09
1.00125e-09
3.45147e-08
3.14933e-09
1.59362e-09
4.27714e-08
-3.22619e-09
-7.13815e-10
3.00366e-08
-2.87959e-09
3.69004e-08
-4.71155e-09
-1.88223e-09
-2.92201e-10
4.6041e-08
2.6675e-09
-4.04203e-10
2.13671e-09
5.19091e-08
-2.99579e-09
-2.0003e-09
3.92304e-08
8.22894e-10
-4.90938e-10
3.85247e-08
-1.22847e-09
-4.73639e-09
2.5283e-08
1.14313e-09
-8.67023e-10
3.99991e-08
-7.40193e-09
-3.97016e-09
3.49157e-08
2.5131e-09
5.27942e-08
2.28529e-09
1.65602e-10
2.83731e-10
4.365e-08
2.79908e-09
-2.1096e-09
-5.26586e-10
3.8133e-08
2.52962e-10
-1.70284e-10
4.5203e-08
-2.53329e-09
-1.45059e-10
3.97716e-08
1.21585e-09
1.50487e-09
5.09822e-08
-1.1242e-09
3.90386e-11
4.14864e-08
-1.32952e-09
2.89512e-10
4.09947e-08
2.35545e-10
5.10533e-08
-3.38601e-10
-8.38328e-10
-7.1687e-09
4.26219e-08
1.13055e-09
-2.10943e-09
-2.56705e-09
3.78883e-08
-1.89656e-10
5.82388e-10
3.90326e-08
-1.31429e-09
-1.27437e-09
3.45254e-08
-2.26214e-10
-8.71521e-10
4.03801e-08
-2.04575e-09
-1.99484e-09
3.49329e-08
-2.82811e-09
1.71576e-09
4.27498e-08
1.79562e-09
5.29769e-08
-7.49288e-10
4.7477e-09
4.21728e-09
8.05482e-08
7.11336e-09
1.16272e-09
2.30524e-12
4.79478e-08
-2.0391e-09
-3.61902e-10
3.71377e-08
-7.24918e-10
-8.64822e-10
4.07132e-08
7.42809e-11
3.28013e-10
4.30287e-08
7.45333e-10
-6.63828e-10
4.42633e-08
-2.22644e-09
-1.61177e-09
4.34645e-08
1.67768e-09
4.67853e-08
1.4158e-10
1.85385e-09
4.61856e-08
-1.8348e-09
1.68871e-09
2.07592e-09
4.07137e-08
-3.9141e-09
-4.1793e-09
3.52151e-08
-2.45941e-09
-4.31212e-10
4.57203e-08
1.79816e-09
-1.54527e-09
4.77316e-08
-3.24267e-09
-1.07067e-09
4.94048e-08
-7.97319e-10
1.94451e-09
5.42369e-08
-3.87093e-10
4.23718e-08
3.44134e-10
-1.99585e-09
-2.82169e-09
-2.02293e-09
4.97559e-08
3.61217e-09
4.17296e-09
-1.10824e-09
-1.30656e-09
4.63929e-08
7.90808e-10
-6.76848e-10
-1.30104e-09
4.55537e-08
1.91947e-09
-1.11529e-09
-3.33471e-09
4.79909e-08
2.9902e-09
2.33766e-10
-3.44424e-09
4.74887e-08
2.8432e-09
6.63263e-10
-6.22215e-09
3.75146e-08
5.60514e-09
3.17202e-09
-6.98355e-09
3.51818e-08
4.41622e-09
-5.90309e-09
4.33078e-08
5.19042e-09
4.51689e-09
-4.673e-09
-2.41149e-09
4.40481e-08
4.48317e-09
-1.63886e-09
-1.26846e-09
4.38482e-08
-1.5494e-09
-2.10482e-09
3.54951e-08
-2.05509e-09
-2.25766e-09
4.62462e-08
-2.00954e-09
-3.16401e-09
3.27342e-08
-4.76473e-10
-6.7489e-09
2.72749e-08
3.34963e-09
-7.96176e-09
2.6105e-08
-5.95982e-09
4.11224e-08
2.47485e-09
-3.99863e-09
-1.85143e-09
4.34711e-08
4.79303e-09
-2.78492e-09
-1.77872e-09
4.04191e-08
-3.27699e-09
-1.65103e-09
3.57911e-08
-4.10527e-09
-1.98467e-09
3.98568e-08
-5.29925e-09
-1.72756e-09
3.42744e-08
-3.74053e-09
-3.35956e-09
3.78228e-08
4.84006e-09
-1.10359e-09
1.45961e-08
-3.43265e-09
3.64597e-08
2.75301e-09
-5.49999e-09
-3.90363e-10
4.34729e-08
6.60891e-09
-2.53262e-09
9.11816e-10
4.62524e-08
-4.0506e-09
-7.49477e-10
3.98461e-08
-4.42238e-09
4.04324e-10
3.65044e-08
-6.63894e-09
5.93107e-10
2.51809e-08
-2.10977e-09
4.54795e-09
2.7563e-08
4.54442e-09
5.38535e-09
2.17729e-08
7.69168e-10
4.84815e-08
4.65527e-09
-4.06783e-09
-1.009e-09
4.21759e-08
6.16146e-09
-4.09498e-09
2.67005e-10
3.88064e-08
-3.34003e-09
3.25866e-10
4.33747e-08
-4.38915e-09
1.41804e-09
3.98094e-08
-2.91769e-09
2.68943e-09
4.74105e-08
-9.66601e-10
4.45724e-09
3.96227e-08
4.21404e-10
3.86311e-09
4.11269e-08
2.31872e-09
4.76514e-08
2.27317e-09
-3.90368e-09
-3.07593e-09
4.30063e-08
5.58582e-09
-3.3604e-09
4.71251e-10
3.71406e-08
-2.12665e-09
9.9578e-10
3.71288e-08
-2.95269e-09
9.35303e-10
3.58342e-08
-2.1765e-09
2.29743e-09
3.99929e-08
-2.25177e-09
3.02708e-09
3.64371e-08
-1.90479e-09
3.38353e-09
4.28811e-08
4.03148e-09
4.85182e-08
8.39476e-10
-6.73137e-10
6.74335e-09
6.20203e-08
9.38182e-09
-7.21286e-10
3.15437e-09
4.5312e-08
-1.51395e-09
3.15185e-09
3.57729e-08
-1.68412e-09
2.04614e-09
3.97722e-08
-1.60518e-09
2.17674e-09
4.30678e-08
-1.56695e-09
2.73905e-09
4.45119e-08
-1.17131e-09
2.48666e-09
4.3964e-08
4.49391e-09
4.5134e-08
1.55711e-11
-2.87038e-09
4.75116e-08
3.8791e-09
4.40861e-09
-3.6772e-09
4.24743e-08
2.19961e-09
-3.75079e-09
3.51396e-08
3.29958e-09
-2.07716e-09
4.16216e-08
4.47051e-09
-1.41652e-09
4.57044e-08
3.54175e-09
-1.77267e-09
4.8859e-08
3.64001e-09
5.78196e-11
5.0547e-08
4.34465e-09
4.24162e-08
4.29257e-09
2.13465e-10
2.68523e-09
3.74067e-09
4.64471e-08
-2.41087e-09
-7.03242e-10
2.51127e-09
3.38244e-09
4.50124e-08
-1.82836e-09
1.39744e-09
4.39898e-09
4.39568e-08
-1.68818e-09
2.32991e-09
2.83924e-09
4.45438e-08
-3.23868e-10
3.95022e-09
6.25101e-09
4.38354e-08
-4.21863e-09
8.59495e-10
4.84586e-09
3.99495e-08
-4.1894e-09
-2.98093e-09
6.04259e-09
3.90033e-08
-6.02337e-09
2.00128e-09
4.20395e-08
-1.69255e-09
-2.02151e-09
5.99966e-10
1.59405e-09
4.3269e-08
2.32526e-09
2.78803e-09
2.16401e-09
4.28788e-08
1.29793e-09
1.62272e-09
3.97616e-08
4.89743e-09
2.93707e-09
4.25495e-08
3.45698e-09
2.53967e-09
3.78864e-08
-2.97135e-10
6.52482e-10
3.52218e-08
-6.92023e-09
3.71461e-09
3.50558e-08
5.53921e-10
4.12198e-08
-5.57025e-09
1.07886e-09
1.54405e-10
4.24439e-08
1.38877e-09
2.367e-09
8.53378e-11
4.12098e-08
1.33897e-09
-6.93162e-10
3.91358e-08
2.88099e-09
1.32189e-09
3.99305e-08
1.93424e-09
8.55536e-11
3.76753e-08
2.63901e-09
-3.22784e-10
3.80927e-08
-7.82832e-09
-3.08327e-09
3.18611e-08
-3.72328e-09
3.98466e-08
-6.93891e-09
-8.38937e-11
-8.54885e-10
4.2397e-08
2.16905e-09
2.76082e-09
7.74842e-10
4.27186e-08
3.17813e-09
-1.56048e-09
4.02963e-08
4.07283e-09
-1.76959e-09
3.8704e-08
1.08506e-09
-6.40488e-09
3.46577e-08
-1.78477e-09
-5.374e-09
3.54849e-08
-8.78626e-09
-8.2378e-09
3.39289e-08
-3.53928e-09
4.34473e-08
-3.93625e-09
6.26199e-10
-2.29613e-09
4.23751e-08
6.16145e-10
3.57095e-10
-8.4825e-10
4.06986e-08
5.9565e-10
-7.83716e-11
4.16539e-08
-4.59872e-10
-1.18008e-09
4.02741e-08
6.60433e-10
-2.54789e-09
4.24359e-08
-1.68259e-09
-3.60497e-09
4.01956e-08
-4.73478e-09
-5.06971e-09
4.10102e-08
-2.72793e-09
4.43209e-08
-2.21581e-09
2.1371e-09
-4.84468e-09
4.33127e-08
1.05834e-10
1.29524e-09
-3.33914e-09
4.04729e-08
1.74443e-11
-1.26327e-09
3.95915e-08
-1.55633e-09
-2.89636e-09
3.91247e-08
-1.28235e-09
-3.5207e-09
4.06908e-08
-3.48722e-09
-4.95852e-09
3.99946e-08
-4.04287e-09
-4.10254e-09
4.24687e-08
-1.75239e-09
4.49959e-08
-1.49771e-09
3.91891e-09
8.94872e-10
4.94631e-08
2.89852e-09
3.41547e-09
-1.45495e-09
4.39308e-08
-5.46483e-10
-1.48061e-09
3.99507e-08
-2.40048e-09
-2.1323e-09
4.0862e-08
-2.12509e-09
-3.21345e-09
4.24842e-08
-2.10468e-09
-3.75489e-09
4.32869e-08
-2.06307e-09
-4.06886e-09
4.38868e-08
-2.10503e-09
4.44717e-08
-1.04978e-09
1.44812e-09
4.50575e-08
1.13275e-09
7.68406e-10
1.59811e-09
4.2985e-08
-2.11778e-09
-2.31477e-09
3.99496e-08
-2.37867e-09
-3.72135e-09
4.18517e-08
-9.57752e-10
-2.91226e-09
4.41232e-08
-2.44108e-09
-2.10899e-09
4.56435e-08
-1.34384e-09
-3.40693e-10
4.6817e-08
-2.10838e-09
4.44449e-08
-4.50055e-09
2.47715e-11
1.04376e-09
2.11723e-09
4.46123e-08
-5.90837e-10
-7.35693e-10
1.34566e-09
2.35569e-09
4.39248e-08
-1.5704e-09
1.05327e-09
2.7968e-09
4.32402e-08
-1.78777e-09
1.47546e-09
2.42112e-09
4.31784e-08
-1.47734e-09
2.02005e-09
3.52494e-09
4.26961e-08
-2.9303e-09
6.27882e-10
2.81721e-09
4.13328e-08
-2.80815e-09
-1.03326e-09
2.68705e-09
4.10286e-08
-3.05057e-09
4.50413e-10
4.21299e-08
-4.86009e-10
-1.08794e-09
3.84552e-10
1.07554e-09
4.29355e-08
9.90236e-10
1.47089e-09
1.54285e-09
4.26056e-08
1.00228e-09
1.45238e-09
4.15751e-08
2.23808e-09
1.87696e-09
4.18578e-08
1.62048e-09
1.55923e-09
4.04699e-08
-2.96825e-10
5.16794e-10
3.94397e-08
-3.05849e-09
1.10915e-09
3.93949e-08
-3.9362e-10
4.16807e-08
-2.67578e-09
8.29686e-10
2.13915e-10
4.24099e-08
6.5908e-11
1.43778e-09
2.95457e-10
4.18494e-08
1.02995e-09
5.65421e-11
4.09396e-08
1.40008e-09
6.04718e-10
4.08326e-08
7.25176e-10
-3.59965e-11
3.99452e-08
5.17752e-11
-5.15705e-10
3.97987e-08
-3.85435e-09
-1.73903e-09
3.86155e-08
-2.12148e-09
4.1382e-08
-3.66231e-09
6.02365e-10
-4.70343e-10
4.23723e-08
1.06813e-10
1.56023e-09
8.01352e-12
4.20481e-08
1.55944e-09
-7.56237e-10
4.11098e-08
1.62426e-09
-1.11419e-09
4.03595e-08
7.6667e-11
-3.03463e-09
3.92008e-08
-1.36247e-09
-2.92647e-09
3.93334e-08
-4.4095e-09
-4.06442e-09
3.93003e-08
-2.47518e-09
4.23088e-08
-2.91913e-09
8.78936e-10
-1.11945e-09
4.25173e-08
-3.72095e-10
5.66039e-10
-7.24434e-10
4.17439e-08
4.40713e-10
-5.30317e-10
4.1553e-08
-3.22283e-10
-1.16415e-09
4.10841e-08
-3.77842e-10
-1.99868e-09
4.14572e-08
-1.6032e-09
-2.60135e-09
4.10953e-08
-3.01822e-09
-3.20366e-09
4.15628e-08
-2.14825e-09
4.31673e-08
-2.1929e-09
1.20753e-09
-1.76285e-09
4.30498e-08
-3.00988e-10
8.18087e-10
-1.69928e-09
4.18374e-08
-4.62896e-11
-1.24388e-09
4.11696e-08
-1.05533e-09
-1.98762e-09
4.09559e-08
-1.26035e-09
-2.59308e-09
4.14896e-08
-2.27717e-09
-3.17615e-09
4.15858e-08
-2.61339e-09
-2.9224e-09
4.2523e-08
-1.73827e-09
4.36827e-08
-1.71069e-09
1.35026e-09
6.41551e-10
4.48119e-08
8.96723e-10
1.29042e-09
-7.79385e-10
4.30704e-08
-4.86541e-10
-1.1869e-09
4.16709e-08
-1.60988e-09
-1.76209e-09
4.17585e-08
-1.71308e-09
-2.47387e-09
4.24669e-08
-1.80352e-09
-2.73208e-09
4.29325e-08
-1.64521e-09
-2.70501e-09
4.351e-08
-1.72276e-09
4.39588e-08
-1.14892e-09
-7.07117e-11
4.37436e-08
8.81401e-10
1.1443e-09
1.52398e-10
4.29296e-08
-9.47792e-10
-1.4598e-09
4.1892e-08
-1.51778e-09
-2.38515e-09
4.23533e-08
-1.33997e-09
-2.08266e-09
4.34293e-08
-2.08369e-09
-1.61592e-09
4.41265e-08
-1.68246e-09
-5.8628e-10
4.47879e-08
-1.70683e-09
4.45514e-08
-2.17951e-09
-2.36846e-10
9.84361e-10
1.69972e-09
4.38759e-08
-7.57693e-10
-1.19065e-09
1.07801e-09
1.65439e-09
4.35108e-08
-1.33365e-09
8.78198e-10
1.67759e-09
4.3101e-08
-1.33829e-09
8.28275e-10
1.57894e-09
4.29149e-08
-1.26453e-09
7.4445e-10
1.80176e-09
4.26448e-08
-1.66595e-09
-3.67651e-12
1.52427e-09
4.21719e-08
-1.61498e-09
-7.79056e-10
1.37753e-09
4.21173e-08
-1.69068e-09
5.60213e-10
4.25428e-08
-7.31465e-10
-1.02085e-09
6.18899e-10
1.04677e-09
4.30089e-08
-3.9094e-11
9.75717e-10
1.12974e-09
4.27745e-08
8.06362e-10
1.0868e-09
4.23358e-08
9.42486e-10
1.10764e-09
4.2194e-08
5.51373e-10
9.34643e-10
4.17287e-08
-3.57543e-10
4.92661e-10
4.13803e-08
-1.44679e-09
4.37407e-10
4.14242e-08
-1.02743e-10
4.22869e-08
-1.39048e-09
7.11704e-10
3.9456e-10
4.26552e-08
-3.04354e-10
9.30415e-10
4.0225e-10
4.23588e-08
7.37164e-10
2.97374e-10
4.19225e-08
6.4279e-10
3.15464e-10
4.17197e-08
1.79081e-10
-2.61428e-11
4.13699e-08
-4.5279e-10
-3.36088e-10
4.12595e-08
-1.79796e-09
-7.83248e-10
4.1181e-08
-9.62345e-10
4.22136e-08
-1.77035e-09
6.56538e-10
-1.76818e-10
4.25896e-08
-3.01326e-10
8.88607e-10
-8.94283e-11
4.23086e-08
7.62341e-10
-3.45593e-10
4.18794e-08
5.18929e-10
-6.09532e-10
4.15296e-08
-2.1988e-10
-1.27539e-09
4.11879e-08
-9.67068e-10
-1.48015e-09
4.12239e-08
-2.02856e-09
-1.85338e-09
4.14311e-08
-1.5229e-09
4.25206e-08
-1.68069e-09
6.87196e-10
-6.00068e-10
4.27051e-08
-4.51182e-10
5.6324e-10
-5.41926e-10
4.2321e-08
3.06268e-10
-5.84686e-10
4.20494e-08
-1.66092e-10
-8.98514e-10
4.18444e-08
-5.14544e-10
-1.35826e-09
4.18898e-08
-1.14396e-09
-1.68671e-09
4.19311e-08
-1.74215e-09
-1.9448e-09
4.22518e-08
-1.64455e-09
4.30118e-08
-1.46573e-09
7.11956e-10
-8.94798e-10
4.29713e-08
-3.3853e-10
5.28835e-10
-9.75707e-10
4.24545e-08
1.28536e-11
-9.78876e-10
4.208e-08
-5.86754e-10
-1.30441e-09
4.19606e-08
-9.34682e-10
-1.68169e-09
4.21607e-08
-1.4187e-09
-1.96637e-09
4.23487e-08
-1.64418e-09
-2.00513e-09
4.28079e-08
-1.68625e-09
4.33991e-08
-1.31958e-09
6.46763e-10
-2.58003e-10
4.35313e-08
-2.71365e-12
5.17396e-10
-7.12425e-10
4.29367e-08
-2.48252e-10
-9.56652e-10
4.24144e-08
-9.25066e-10
-1.25798e-09
4.23881e-08
-1.1946e-09
-1.65019e-09
4.27042e-08
-1.39345e-09
-1.84007e-09
4.30042e-08
-1.38636e-09
-1.90727e-09
4.34039e-08
-1.73794e-09
4.37666e-08
-1.14335e-09
1.70676e-10
4.32904e-08
-1.28781e-10
1.53269e-10
8.73025e-11
4.3001e-08
-7.00636e-10
-6.69451e-10
4.26303e-08
-9.38447e-10
-1.32321e-09
4.2752e-08
-1.00385e-09
-1.43221e-09
4.32431e-08
-1.35579e-09
-1.42575e-09
4.36333e-08
-1.35404e-09
-1.16305e-09
4.40524e-08
-1.43537e-09
4.42477e-08
-1.73338e-09
-8.64685e-10
5.38603e-10
1.01e-09
4.35174e-08
-3.72514e-10
-8.17365e-10
6.14346e-10
1.00699e-09
4.33236e-08
-8.94753e-10
5.32092e-10
9.98284e-10
4.31013e-08
-9.15599e-10
4.41568e-10
9.5755e-10
4.29552e-08
-9.05841e-10
3.08244e-10
9.59908e-10
4.28126e-08
-9.93293e-10
-4.62723e-11
7.96913e-10
4.2643e-08
-9.12808e-10
-3.69945e-10
6.42302e-10
4.26476e-08
-8.48117e-10
2.45352e-10
4.28137e-08
-3.77282e-10
-5.08392e-10
4.23033e-10
6.77437e-10
4.30785e-08
-1.59193e-10
5.57279e-10
7.12192e-10
4.29364e-08
4.84431e-10
6.87672e-10
4.27202e-08
4.08793e-10
6.41942e-10
4.25866e-08
1.65409e-10
5.26891e-10
4.24062e-08
-2.57617e-10
3.07778e-10
4.22929e-08
-6.89172e-10
1.45878e-10
4.23525e-08
-1.38296e-10
4.2682e-08
-7.00601e-10
4.65662e-10
3.0345e-10
4.28696e-08
-3.05283e-10
5.32292e-10
3.02288e-10
4.2703e-08
4.1735e-10
2.38438e-10
4.24873e-08
2.63246e-10
1.67831e-10
4.23489e-08
-3.30783e-11
-1.65722e-11
4.22103e-08
-4.26691e-10
-2.22718e-10
4.21837e-08
-9.19691e-10
-4.37901e-10
4.22581e-08
-5.79126e-10
4.26706e-08
-9.35887e-10
4.4919e-10