/*--------------------------------*- C++ -*----------------------------------*\
| =========                 |                                                 |
| \\      /  F ield         | OpenFOAM: The Open Source CFD Toolbox           |
|  \\    /   O peration     | Version:  2506                                  |
|   \\  /    A nd           | Website:  www.openfoam.com                      |
|    \\/     M anipulation  |                                                 |
\*---------------------------------------------------------------------------*/
FoamFile
{
    version     2.0;
    format      ascii;
    arch        "LSB;label=32;scalar=64";
    class       volVectorField;
    location    "0.07";
    object      U;
}
// * * * * * * * * * * * * * * * * * * * * * * * * * * * * * * * * * * * * * //

dimensions      [0 1 -1 0 0 0 0];

internalField   nonuniform List<vector> 
4608
(
(-0.00245341 -0.000391065 0.0227378)
(-0.00182261 -0.000239907 0.0120048)
(-0.00273754 -0.000685223 0.0146342)
(-0.000207701 2.60206e-05 0.0128133)
(0.00214838 -0.000651069 0.0210496)
(-0.000464774 -0.000788259 0.0257612)
(-7.04572e-06 -0.000416236 0.0129622)
(0.00299393 -0.000717267 0.0143115)
(0.00148245 -0.000958348 0.0141396)
(-0.000708416 -0.00109665 0.0249537)
(-0.00240939 -0.00156754 0.0193439)
(-0.000564996 0.000446054 0.0143159)
(-3.9954e-05 -0.00126055 0.0247988)
(-0.000216489 -0.00126608 0.0126912)
(0.000536766 -0.000304073 0.0211039)
(0.00107548 0.000340109 0.0125619)
(0.00088541 -0.00087261 0.0150993)
(-0.00147151 4.78722e-05 0.0103487)
(-0.000750447 5.28971e-05 0.0124419)
(0.000397002 0.00168644 0.01354)
(-0.000510664 0.000462627 0.0147868)
(0.00100987 -0.00119911 0.0190504)
(0.00151375 0.000687478 0.0100599)
(0.000339824 7.30346e-05 0.0238455)
(0.000820603 -0.0010621 0.0149443)
(-0.000820222 -0.00313473 0.0359723)
(8.43068e-05 0.00148776 0.0138209)
(-0.00142789 0.00349734 0.0280086)
(-0.00261886 0.00231544 0.0154231)
(0.000699439 0.00193958 0.0102639)
(0.00145625 0.0032122 0.00960223)
(0.00164489 0.000272174 0.00893139)
(-0.000776959 -0.00213405 0.0208274)
(7.67606e-05 -0.00256192 0.0115646)
(0.0010049 0.000368352 0.00730053)
(0.00122496 -0.000978161 0.0165082)
(0.000260242 0.00167547 0.0160539)
(0.000532924 0.00155522 0.019748)
(-0.00323599 0.00109739 0.0313076)
(-0.000681901 0.00207743 0.0132156)
(3.87478e-05 0.000252312 0.0119251)
(0.00119178 0.000142975 0.0147884)
(-0.000262351 0.000979348 0.0190777)
(-0.000390347 0.000129494 0.0125501)
(-5.44632e-05 0.000502829 0.0204772)
(-6.64462e-05 -0.000136981 0.00848991)
(0.00110428 0.000201196 0.0132058)
(0.00152091 0.00141232 0.0165963)
(-0.00199449 0.000809564 0.0194026)
(6.87033e-05 0.00100016 0.014215)
(-0.00187624 0.000855546 0.015797)
(-0.00117937 0.00151115 0.00541)
(0.0026722 0.000245169 0.0247278)
(0.00206213 0.00313773 0.0150615)
(0.000989511 0.000855425 0.0138852)
(0.000536093 0.000597429 0.0169899)
(-0.00268566 0.000670175 0.0113601)
(0.000775705 0.00198631 0.0109512)
(0.000627133 0.00130982 0.00990639)
(9.70469e-05 0.00233531 0.0190534)
(0.00245489 0.000107333 0.0104603)
(0.00126421 0.000995421 0.012499)
(-0.00133616 -0.000886603 0.0184166)
(-0.000994089 0.00023208 0.0226935)
(-0.000830202 -0.00155219 0.0315449)
(0.000828913 -0.00408745 0.0477246)
(-0.00076574 -0.00125126 0.0244346)
(-0.00252811 -0.00216808 0.0363295)
(-0.000150628 -0.000218309 0.0146209)
(0.00283917 0.000980318 0.0399199)
(0.0013581 -0.00132725 0.0296622)
(0.00114222 -0.000492762 0.0280396)
(-0.0031947 -0.00199579 0.0373812)
(-0.00142305 -0.00101044 0.0275418)
(-6.29316e-06 -0.000697661 0.0407255)
(-0.00147825 0.000644006 0.0329678)
(0.00117822 0.00136179 0.0287544)
(0.00267287 0.00124094 0.0340871)
(0.00060695 -0.00015541 0.0282012)
(0.00128094 -0.000306074 0.032865)
(0.000231901 -0.00254411 0.0412126)
(-0.000287287 -0.00372246 0.0384328)
(-1.3153e-05 -0.000699645 0.0185602)
(-0.000156449 -0.00121361 0.0297985)
(-0.00159748 0.00246196 0.0253224)
(0.00185902 -0.000100744 0.0243745)
(0.00236379 0.000994269 0.0372425)
(0.00271467 0.00139592 0.0295922)
(-0.00487335 -0.00282267 0.0365027)
(-0.00143229 0.000797243 0.0333131)
(0.0028563 0.000734055 0.0320573)
(0.00170027 -0.0018754 0.039014)
(0.00131461 0.00081065 0.0268843)
(0.002196 -0.000653176 0.0249889)
(0.00362556 -0.00227253 0.0409658)
(0.000443025 0.00418907 0.040099)
(0.0016213 0.000107472 0.022777)
(0.00242814 0.0021333 0.0213877)
(-0.00324929 0.00170641 0.0437953)
(-0.00219701 0.000378735 0.039782)
(-0.000694382 -0.000475517 0.0403037)
(0.000147891 0.000593408 0.0446386)
(0.00567084 -0.00039873 0.0305392)
(0.00184658 -0.00106143 0.0195787)
(-0.00081316 0.00304153 0.0268306)
(0.000170616 -0.00118692 0.0272408)
(-0.000284757 9.02479e-06 0.034782)
(0.00104096 0.00113638 0.0344317)
(0.00173763 -0.00204317 0.0287383)
(0.00155581 0.00132349 0.0390612)
(0.00220141 0.00168613 0.0272903)
(0.00178639 -0.00193598 0.0419658)
(-8.47519e-05 0.00198632 0.0219726)
(0.000202174 0.00299931 0.0391957)
(0.00040285 0.00241968 0.0394374)
(-0.00231629 0.00191922 0.0365527)
(0.001146 0.00153853 0.0253864)
(0.00275308 0.000676514 0.0268818)
(0.0011175 0.000826981 0.0481612)
(0.00121511 0.00208227 0.0276095)
(0.000444883 0.000676376 0.0271477)
(0.000666404 0.000806079 0.028975)
(-0.00181539 0.00279718 0.0490011)
(0.00161397 0.00287906 0.0155929)
(0.00384893 0.00311902 0.0384423)
(-0.000561042 -0.000281902 0.0632003)
(-0.000419145 0.00170095 0.0342472)
(0.00218004 0.005669 0.0230717)
(0.00213834 -0.00164598 0.0337934)
(0.000143425 -0.00162542 0.0355332)
(0.00274093 0.000417618 0.0336596)
(0.000392963 -0.000428999 0.0241678)
(-0.00272061 0.000630878 0.0347761)
(-0.00120569 0.00107845 0.0437339)
(0.000248421 -0.000174808 0.03178)
(-0.000497251 0.00137721 0.0328072)
(-0.0010614 -0.00231454 0.0310194)
(-0.000206046 -0.00219488 0.0337976)
(0.00102587 -0.00127939 0.0336569)
(0.0010759 -0.00220629 0.0282669)
(0.000524514 0.000308161 0.0315714)
(0.000375851 0.00232446 0.0421508)
(0.000355308 -6.12418e-05 0.034078)
(-0.000198822 0.000605508 0.0265207)
(-0.000180382 -0.000902335 0.0284985)
(0.00171344 -0.00250388 0.0524315)
(0.000304994 -0.00133941 0.0274882)
(0.00167334 -0.00276165 0.0460019)
(0.000805355 0.000389102 0.0266965)
(-0.000351734 0.00192824 0.0344562)
(-0.000309039 0.000412174 0.0300902)
(0.00132245 0.000217872 0.0363821)
(-0.000591048 0.00167822 0.037877)
(0.000395987 0.000235978 0.0178949)
(0.000301788 -0.000520621 0.024672)
(0.00289689 0.000166747 0.0433374)
(0.00437546 -0.00109985 0.0424062)
(0.000712865 -0.0013139 0.0204297)
(-0.00170009 -0.000102046 0.0378495)
(0.00120388 0.00176543 0.0341823)
(0.00110761 0.000265312 0.0171341)
(-0.00262109 0.00205228 0.0563863)
(-0.000434761 0.00102126 0.0354371)
(-3.03807e-05 0.000506019 0.0307941)
(-0.000564917 0.00051154 0.0265177)
(5.3599e-05 -0.00155559 0.0229905)
(0.00381112 0.00035761 0.0416527)
(0.00213288 0.000556991 0.053423)
(0.000851519 -0.00101119 0.0283131)
(-0.00108662 -0.000839865 0.0252559)
(-0.000353933 -0.000665754 0.0357348)
(0.001143 0.000723064 0.0148222)
(0.00122003 0.00188029 0.0478765)
(-0.000876684 0.00125732 0.025754)
(0.000295934 -0.000507337 0.0347384)
(0.00109121 0.00104311 0.0286122)
(0.000278841 -0.00180482 0.0338184)
(-0.00084799 -0.00111679 0.0320677)
(0.00128247 -0.00063345 0.0216892)
(0.00146592 0.00160373 0.0252128)
(0.000587714 0.000295083 0.0196445)
(-0.00082542 2.37075e-05 0.0346654)
(0.00073979 0.00151512 0.0294871)
(0.00296136 0.00352201 0.0303591)
(0.000649668 -0.001018 0.0314744)
(-0.00173551 -0.00270405 0.0459031)
(0.00168216 0.00274019 0.0327163)
(0.00228837 0.000508457 0.027563)
(0.00033421 0.00130491 0.0417795)
(0.000365189 0.000697204 0.0470245)
(0.00275911 0.00268745 0.0301136)
(0.00199472 0.00209518 0.0336062)
(-0.00104379 -0.00160758 0.0536183)
(0.000978185 -0.000646583 0.049892)
(0.00194919 0.00146366 0.0314405)
(-0.000541231 0.00400912 0.0594133)
(-0.000936241 -0.00105066 0.0221634)
(3.70476e-06 -0.00138891 0.0323876)
(0.00115088 0.000924732 0.0245701)
(0.00073388 0.00146805 0.0337737)
(0.000786061 -0.00110921 0.0302305)
(0.00169662 -0.00150912 0.0297523)
(0.00306814 -0.00125695 0.0340745)
(-0.00149547 -0.00196715 0.0283147)
(-0.00335333 0.000514456 0.0333789)
(0.00026841 0.00234783 0.0366319)
(0.00193512 0.00148801 0.0348448)
(0.00146288 0.00110322 0.0356651)
(-0.000382676 -0.00272748 0.0392915)
(0.000785901 -0.000732203 0.0281091)
(0.00092917 -0.00240049 0.0279162)
(0.00137223 -0.00415617 0.0307492)
(0.00176599 -6.64203e-05 0.0297996)
(0.0002212 0.00270264 0.0316911)
(0.00014615 0.000541583 0.0247571)
(-0.000722895 0.0014562 0.0292378)
(0.00261494 0.000214296 0.0362245)
(0.00145186 4.90163e-05 0.0291346)
(-0.000442617 0.000306217 0.0237382)
(0.000165855 0.000471081 0.0202131)
(0.00412127 0.00116277 0.0342351)
(0.00130656 -3.02192e-06 0.0424791)
(0.00031511 -0.000345288 0.0320519)
(0.00040085 -6.63497e-05 0.0215954)
(-0.000348873 0.00226339 0.0397579)
(0.00101427 5.05488e-05 0.028548)
(0.00197018 0.00175686 0.0400071)
(0.00177665 0.0052328 0.0474543)
(0.000551464 0.000914619 0.0339673)
(-0.00198349 -0.0018872 0.0353381)
(-0.00143085 0.000500397 0.028397)
(0.000702574 -0.0016722 0.0463724)
(0.000921688 0.00307595 0.0411041)
(0.000699337 0.000761979 0.028483)
(0.00135007 0.000166552 0.0274997)
(-0.000501433 0.000643788 0.0258382)
(-0.00160965 -0.00152593 0.0437557)
(-2.78994e-05 -0.000317356 0.0344546)
(6.47369e-05 0.000245836 0.0219533)
(-0.000808208 0.00109069 0.031972)
(0.000953091 -0.000764676 0.0276502)
(-0.00104211 -0.00178287 0.0296368)
(0.00150621 -0.00243914 0.0366009)
(0.000420994 -0.00177652 0.0417322)
(0.000134469 -0.000852888 0.027702)
(-0.00076169 -0.000926477 0.0379463)
(0.000190033 0.00125778 0.0322939)
(-8.88834e-05 0.000510735 0.0286566)
(0.00135391 -0.00371217 0.0381553)
(-0.000626257 0.0010388 0.0301593)
(0.00224531 -0.00072791 0.0303042)
(0.000581608 -0.00165074 0.0153295)
(-0.000703262 -3.18086e-05 0.0471485)
(0.00161558 0.000224262 0.0399387)
(0.000983373 0.00190951 0.0366423)
(-0.00118813 -0.00397654 0.0439787)
(-0.00122997 -0.00107429 0.0341052)
(0.000799484 -0.00143105 0.0222305)
(-8.47661e-07 -0.00178147 0.0311051)
(0.00199671 0.000685972 0.0331657)
(0.00138045 -0.00108338 0.0272081)
(-0.00128724 -0.00144164 0.0280408)
(4.93334e-05 -0.000749595 0.034973)
(0.000649019 0.0011582 0.0318502)
(0.00209721 -0.000137793 0.044451)
(0.000404 0.000321049 0.0322811)
(0.000527441 0.000265715 0.0546938)
(0.00121404 0.00509109 0.0616145)
(-0.000262732 -0.000836093 0.0158366)
(-0.00105287 -8.09003e-06 0.0297698)
(0.0017149 -9.72913e-05 0.0318756)
(0.00315937 0.000368147 0.0320359)
(9.08426e-05 -0.00141642 0.0359664)
(0.000944367 0.0013147 0.0367491)
(0.000879631 0.000719088 0.024005)
(-0.00027132 0.00189149 0.025993)
(-0.00123978 -0.00107192 0.0377628)
(-0.000493343 0.00109609 0.0343622)
(0.000268849 0.00084109 0.0351289)
(0.00161033 0.000900441 0.0361182)
(0.00231861 0.000330313 0.0286024)
(0.00193818 -0.000638714 0.0271036)
(0.000803151 -0.000622841 0.0229642)
(-0.00144838 -0.00104792 0.0245235)
(-0.00172947 0.000114267 0.0203366)
(0.000531028 0.00447304 0.0540281)
(0.00118394 0.00101168 0.0269853)
(0.00107634 -0.000103852 0.0567873)
(0.000650974 0.00113065 0.0265157)
(-0.000476447 -0.00156869 0.0390342)
(-0.000288969 -0.00305603 0.0514208)
(0.000237965 -0.00184911 0.0216286)
(0.00514614 0.00136801 0.0569131)
(0.000128059 0.000108981 0.0114661)
(-0.00278113 0.002808 0.0403383)
(0.0013724 0.00144257 0.0304676)
(0.000461984 0.00135681 0.0321531)
(-0.000117269 0.000749419 0.0224339)
(-8.72147e-05 0.0010927 0.0466028)
(8.05776e-05 0.000821207 0.0338887)
(0.000229637 0.000644944 0.03652)
(0.000888071 -0.00104605 0.0235502)
(0.00259336 0.000443675 0.0382927)
(0.000706884 0.00185033 0.0337112)
(0.00386707 0.000512032 0.0702464)
(-0.000539424 0.000148882 0.0241203)
(-0.000844495 -0.000411266 0.0336582)
(-3.97519e-05 0.000123377 0.0259886)
(-0.000235174 0.00239163 0.0290726)
(-0.000134572 0.000107549 0.0410518)
(0.000900268 -0.000736939 0.0217319)
(-0.000295884 -0.00274107 0.0371244)
(0.00177615 0.000115595 0.036095)
(-0.0003258 -0.000798271 0.0221105)
(0.000389033 -0.0012945 0.026415)
(0.00372393 -0.00146509 0.0361573)
(-2.94997e-05 -0.000398702 0.0252732)
(-0.00246768 -0.000184788 0.0307501)
(-0.00255813 4.24554e-05 0.0514082)
(-0.000836117 -0.000630615 0.0350043)
(0.00126737 -0.000652862 0.0248616)
(-0.000191887 -0.000771869 0.0260414)
(-0.000771235 -0.00364388 0.0232281)
(-0.000169523 -0.00365268 0.0211822)
(-0.000688494 -0.00380126 0.0273084)
(-0.000483724 -0.0019952 0.0212461)
(0.000392986 -0.00367062 0.0188449)
(-0.000484769 -0.000832718 0.0188256)
(0.0020663 -0.00104341 0.0263799)
(-0.00135157 -0.000769867 0.0186693)
(-0.00407191 -0.00152263 0.0243397)
(0.000272611 -0.00169225 0.0184118)
(0.000526225 -0.00334327 0.0284649)
(-1.43906e-05 -0.00146934 0.0160567)
(0.00113055 -0.00279957 0.0217109)
(0.00147472 -0.00134236 0.0223887)
(0.00158955 0.00263071 0.0248862)
(-0.000510647 -5.03204e-05 0.0162673)
(-0.00237211 0.0020111 0.0203141)
(-0.00283559 0.00175995 0.0292696)
(-0.000660264 -0.000102056 0.0201914)
(-0.000937384 -0.0014477 0.0295642)
(0.0009827 2.74947e-05 0.01735)
(0.00281308 0.000263135 0.0167097)
(0.00108924 -7.09142e-05 0.0148896)
(-0.0033011 -0.000486632 0.028539)
(-0.00338525 -0.000172581 0.0230673)
(-0.00389207 0.00181121 0.0302008)
(-0.00136192 0.000752135 0.0172619)
(0.000284803 0.000686439 0.0216134)
(0.00191252 0.00203692 0.0179968)
(0.00290666 0.00459888 0.0292775)
(0.00201989 -0.00274185 0.0311322)
(-0.000655437 -0.000274902 0.0140067)
(-0.00134999 -0.000502248 0.0210236)
(-0.00102447 0.000248034 0.0231147)
(-0.00124422 0.00115396 0.0225564)
(0.00265796 0.00574632 0.0375696)
(0.00349373 0.0021588 0.0200628)
(0.000997165 0.00109049 0.0156186)
(0.00080251 0.000690049 0.0239512)
(-0.000735383 0.000690067 0.0183308)
(-0.0011864 -0.00036465 0.0144829)
(-0.00074585 0.000567301 0.0170738)
(0.000343318 0.00329505 0.0293755)
(0.00162085 0.00215225 0.0189256)
(0.00275278 0.00250575 0.0240915)
(0.00165633 -0.00111531 0.0280162)
(0.000790175 -0.000529693 0.0374615)
(-0.00149328 -0.000680688 0.0188824)
(-0.00181396 5.34909e-05 0.0288205)
(0.00117727 0.00295267 0.0239348)
(0.000323937 0.00115135 0.0187332)
(0.0011036 0.000979737 0.0197435)
(0.00062711 0.00108366 0.0198209)
(-0.000684696 0.0001214 0.0256993)
(0.000331049 -0.00242297 0.0210891)
(2.03098e-06 -0.0016407 0.022752)
(0.000699872 -0.0006733 0.0160022)
(-0.000551807 -0.000246986 0.0108531)
(-0.00304362 -0.000214851 0.0462785)
(0.0018242 0.00034889 0.0253468)
(0.000517406 -0.00130207 0.0173363)
(0.00045518 -0.000286133 0.0158869)
(0.00111447 -0.000366259 0.0235897)
(0.000806584 -0.000503308 0.0180121)
(0.000115465 0.000509723 0.0216655)
(0.000164305 -0.00095497 0.021372)
(-6.5248e-05 0.000685507 0.0234342)
(0.000332525 8.06093e-05 0.0196957)
(-0.000264552 -0.000391387 0.0157956)
(-0.000759225 -6.56344e-05 0.0209137)
(5.58674e-05 7.42208e-06 0.020052)
(0.00105847 -0.000194071 0.0214241)
(0.000260146 4.75968e-05 0.0159256)
(0.00313693 -0.00021624 0.0250336)
(-0.00133896 1.20349e-07 0.0114611)
(-0.000411081 -0.000201914 0.0145451)
(-0.000586114 0.000346191 0.0162549)
(-0.000657584 0.000271602 0.0194682)
(-0.000111577 -0.000249554 0.0210416)
(0.00027385 -0.000153679 0.016169)
(-0.000389582 -0.000477283 0.0179844)
(-0.000205012 -8.0455e-05 0.0187451)
(-0.000256822 0.000348017 0.0185572)
(0.000781094 -0.000165106 0.0249706)
(-0.00024782 3.10746e-05 0.0131033)
(-0.00133264 -0.000216098 0.0162314)
(-0.000845523 -0.0001637 0.0158149)
(0.000205859 -9.49723e-05 0.0241375)
(-0.00131121 -0.000705511 0.0169499)
(-0.000119129 -0.000374918 0.019214)
(-4.65843e-05 -0.000320601 0.0109985)
(-6.012e-05 0.000106329 0.0208637)
(-0.000279964 -0.000617523 0.0131598)
(-0.00176997 -0.000443172 0.0311019)
(-0.000520107 0.00011357 0.0217669)
(-0.000422561 0.000147219 0.0152062)
(-0.000368087 -0.000402065 0.0234045)
(-0.000349167 -9.91551e-05 0.018343)
(-0.000201637 -0.00111897 0.029163)
(-2.66074e-05 -0.000241258 0.0176256)
(-0.000449879 -0.00117699 0.0212031)
(-0.000231501 0.000523796 0.014197)
(-0.000410266 -0.000601495 0.0167015)
(-0.000538987 -0.000467668 0.0147031)
(-0.000438269 0.000188581 0.0195515)
(-0.000306455 -0.000263368 0.0166521)
(-0.000379119 0.000130851 0.0185031)
(-0.000237002 -0.000212516 0.0159511)
(-0.000824209 0.000337159 0.0191845)
(-0.000717528 0.000355759 0.0219656)
(-0.000782334 -0.000347582 0.0469281)
(0.000984061 -0.00042813 0.0178762)
(-0.000392987 -6.12612e-05 0.0158969)
(-0.000570547 -0.000334811 0.0192885)
(-0.000135511 -8.38071e-05 0.0195316)
(0.000360663 -0.000519623 0.0192764)
(-0.000389006 0.000326745 0.0147244)
(-0.000381225 0.000551898 0.0195291)
(-0.000184283 -0.000224577 0.0203079)
(0.00154669 -0.000636276 0.0169407)
(-0.000548561 -0.000304349 0.0139638)
(-0.000989207 0.000278292 0.012546)
(-0.000236787 -0.000208732 0.0173825)
(-0.000448207 -0.00022849 0.0212488)
(0.00025996 -0.000300288 0.0204092)
(-0.000147478 0.000292756 0.01302)
(-0.000862872 -0.000821652 0.0305437)
(-0.000489353 -0.000218955 0.0275722)
(-0.00014631 -0.000295011 0.0276905)
(-0.000261607 -0.000777411 0.0290163)
(-0.000118938 -0.000688398 0.0290657)
(9.43063e-05 -0.00142875 0.0216067)
(0.000428803 -0.00138214 0.018765)
(0.00111482 -0.00137686 0.0263601)
(-0.00131369 -0.000439375 0.0262551)
(-0.000652179 -0.000258875 0.026844)
(-0.000358068 -0.00037842 0.0169568)
(-0.000347211 -0.000704358 0.029506)
(-0.000631827 -0.000903462 0.0137549)
(-0.000397669 -0.00178991 0.00924249)
(0.000354987 -0.00212163 0.0115792)
(0.000868913 -0.00162169 0.0233008)
(-0.00122003 -0.000625914 0.0266245)
(-0.00075307 -0.000500481 0.0230996)
(-0.000715394 -0.000549922 0.0200552)
(-0.000904786 -0.000560706 0.0223)
(-0.00129129 -0.000643894 0.0176567)
(-0.00121964 -0.00139522 0.0231765)
(0.00015557 -0.001077 -0.00651521)
(0.0012109 -0.00123104 0.0179531)
(-0.00164761 -0.000258885 0.026681)
(-0.000807403 -0.000107383 0.0287623)
(-0.000748348 -0.000371735 0.0223677)
(-0.00101674 -0.000212325 0.0202471)
(-0.00156715 -0.00016872 0.00193307)
(-0.00114354 0.000209593 0.0104007)
(0.000272989 0.000503054 -0.000523523)
(0.00130401 -0.000276798 0.0303324)
(-0.00135604 4.60314e-05 0.0259896)
(-0.000941336 0.000337873 0.0216588)
(-0.00089349 4.0118e-05 0.0264778)
(-0.000991973 0.000308822 0.0214659)
(-0.000966665 0.000413977 0.0299648)
(-0.000470438 0.00135301 0.0206655)
(-0.00011534 0.00138341 0.0233854)
(0.000383008 0.000531855 0.0280558)
(-0.0012667 -0.000939669 0.0250924)
(-0.000777845 -0.000151653 0.0207541)
(-0.000691707 0.000120235 0.0218231)
(-0.00065511 0.000290898 0.0185554)
(-0.000647314 0.000731777 0.021774)
(-0.00054288 0.000991517 0.017867)
(-0.000625081 0.000947645 0.024609)
(-0.000154537 0.000744184 0.0290269)
(-0.00130678 0.000386819 0.0398399)
(0.000370169 0.000442078 0.027293)
(-0.000452078 0.000464028 0.0184831)
(-0.000469495 0.000252455 0.0232602)
(-0.000408888 0.000477065 0.0255039)
(-0.000399975 0.000610041 0.0266068)
(-0.000381303 0.000665658 0.0249095)
(-0.000163338 0.00111494 0.0266152)
(-0.00111276 0.00173317 0.0283229)
(-0.000606221 0.000726442 0.024988)
(-0.000992271 0.000845537 0.0183208)
(-0.00078917 0.000862695 0.025341)
(-0.000391788 0.000743517 0.0265031)
(-0.000495567 0.000837011 0.0295026)
(-0.000106232 0.000887704 0.0306221)
(-6.54997e-05 0.00112313 0.0236794)
(0.000736762 0.00070234 0.011026)
(0.00072062 0.000791142 0.0106053)
(0.000472827 0.00092136 0.0103769)
(0.000366665 0.000448402 0.0107688)
(0.000905246 0.00154147 0.0107053)
(0.000778407 0.00139093 0.00913317)
(-0.000421661 0.00171136 0.00876105)
(-0.00077627 0.000652256 0.00983251)
(-0.000253485 0.000831614 0.00990217)
(0.000627484 0.000834331 0.0100026)
(0.000380083 0.000911592 0.00880173)
(0.000644055 0.000831965 0.0103004)
(0.00126312 0.00110775 0.00856638)
(0.000619687 0.000533036 0.00762033)
(-0.000986091 0.00131401 0.00777317)
(-0.00191834 0.000447839 0.00982117)
(-0.000168304 0.000147595 0.00969475)
(0.000587164 0.000133288 0.00939052)
(0.000404919 5.06578e-05 0.00875785)
(0.000510297 0.000625059 0.00934081)
(0.000548036 0.00054035 0.00878527)
(0.000932881 7.32472e-05 0.00933017)
(-0.000520249 0.000159799 0.00709146)
(-0.0023272 -0.000376199 0.00958243)
(-0.0004656 -8.90594e-05 0.00973545)
(0.00043144 3.62203e-05 0.0102077)
(0.000769559 -0.000438334 0.00934787)
(0.00100023 -0.000174464 0.00907885)
(0.000639378 -0.000872506 0.00759124)
(0.000153874 -0.000637232 0.00865341)
(-0.00145455 -0.00165356 0.00794133)
(-0.00189362 -0.00106888 0.0112096)
(-0.000145995 -0.000271009 0.00960342)
(0.000204873 0.000173402 0.00919154)
(0.00013534 -9.19144e-05 0.00982012)
(-2.16288e-05 -0.000390368 0.00948772)
(1.21377e-06 -0.00129214 0.0106722)
(9.77778e-05 -0.0012654 0.00982811)
(-0.000958237 -0.00182577 0.0101385)
(-0.00101406 -0.000829013 0.0111419)
(0.000141875 -0.0012211 0.00994174)
(0.00061582 -0.000694524 0.00903367)
(0.000190454 -8.35648e-05 0.00891909)
(-0.000260235 -0.000444063 0.00881529)
(-0.000335051 -0.000528917 0.00956837)
(-0.000503146 -0.000971276 0.0092438)
(-0.00108048 -0.00106095 0.0102609)
(-0.000757112 -0.000523775 0.0111926)
(2.24586e-05 -0.000436014 0.0128096)
(0.00134085 -0.000591443 0.0103872)
(0.000361224 -0.000376933 0.0088662)
(-0.000524849 -0.000754853 0.00935205)
(-0.000603109 -0.000965791 0.00999792)
(-0.000523547 -0.00122908 0.0103048)
(-0.000565867 -0.00108846 0.0104507)
(-0.000410788 -0.000415387 0.0106141)
(1.06278e-05 0.000519927 0.0105748)
(0.000639097 -0.000502932 0.00978123)
(-3.95358e-05 -0.000599952 0.00867662)
(-0.000914144 -0.000392594 0.00961707)
(-0.000871913 -0.000731258 0.0104402)
(-0.000680711 -0.000625022 0.0110388)
(-0.000245238 -0.000825112 0.0115256)
(-3.35374e-05 -0.000879103 0.0103283)
(0.000208606 0.000393141 0.0164003)
(0.000326706 0.000549994 0.0159947)
(0.000299608 0.000646519 0.0156509)
(0.00027516 0.000546907 0.0156499)
(0.000502157 0.000923445 0.0154249)
(0.000414524 0.000826411 0.0147167)
(-0.000107181 0.00081128 0.0145777)
(-0.000324656 0.000167022 0.0152178)
(-0.000104158 0.000485107 0.0155856)
(0.000312587 0.000562873 0.0153927)
(0.000285124 0.000617522 0.0148307)
(0.00037555 0.000608741 0.0150647)
(0.000575143 0.000671071 0.0142854)
(0.000262427 0.000383156 0.0137375)
(-0.000472955 0.000524198 0.0136709)
(-0.00089236 4.23699e-05 0.014908)
(1.78302e-05 0.000135723 0.015322)
(0.000349341 0.000189606 0.015024)
(0.000302625 0.000176846 0.0145593)
(0.000308059 0.000351999 0.0145504)
(0.000264016 0.000279695 0.01405)
(0.00026467 9.49387e-06 0.0139485)
(-0.000424598 -6.21927e-05 0.0131661)
(-0.00115722 -0.000307451 0.0146288)
(-3.30676e-05 -4.23869e-05 0.0152913)
(0.000313218 1.31161e-05 0.0151688)
(0.000410789 -0.000154487 0.0146809)
(0.000440983 -0.000122364 0.014284)
(0.000205615 -0.000423923 0.0136313)
(-9.43701e-05 -0.000436854 0.013596)
(-0.000784677 -0.000824421 0.0134965)
(-0.0010746 -0.000643029 0.0151173)
(9.028e-05 -0.00017505 0.0153514)
(0.000224234 -3.61863e-05 0.0149442)
(0.000142771 -0.00013924 0.014924)
(7.63722e-07 -0.000312278 0.0146424)
(-8.79716e-05 -0.000719421 0.0148538)
(-0.000169857 -0.00077058 0.0145504)
(-0.000648213 -0.000993158 0.0147132)
(-0.000732842 -0.000617078 0.015489)
(0.000145587 -0.000498948 0.0155979)
(0.000343629 -0.000379836 0.014966)
(0.000118963 -0.000211854 0.0146524)
(-0.000169751 -0.000377158 0.0145274)
(-0.000294827 -0.000511382 0.0147799)
(-0.000418131 -0.00069455 0.0147404)
(-0.000672715 -0.000742699 0.0151777)
(-0.000572446 -0.000470481 0.0157212)
(-7.02009e-07 -0.000142351 0.0166152)
(0.00049651 -0.000320611 0.0156167)
(0.000126595 -0.00032828 0.0148707)
(-0.000328941 -0.000522624 0.0149203)
(-0.000445607 -0.000688596 0.0152421)
(-0.00044438 -0.000800468 0.0154232)
(-0.000452993 -0.000731885 0.0156456)
(-0.000339655 -0.000407785 0.015827)
(-0.000204423 0.000320206 0.0160318)
(0.000138821 -0.000200547 0.0155554)
(-0.000109334 -0.000364512 0.0149696)
(-0.000556087 -0.000401934 0.015199)
(-0.000601872 -0.000589108 0.0156928)
(-0.000485452 -0.000566193 0.0160002)
(-0.000268246 -0.000581936 0.0162986)
(-5.2918e-05 -0.0005097 0.0161003)
(0.000242055 0.000406687 0.0146626)
(0.000279414 0.000412285 0.01454)
(0.000250565 0.000416767 0.0143819)
(0.000202951 0.000392106 0.0143337)
(0.000223347 0.000485576 0.0142139)
(0.000122078 0.000447044 0.0139496)
(-0.000123442 0.000431936 0.0138872)
(-0.000271782 0.000202654 0.0140741)
(8.76981e-05 0.000388049 0.0142995)
(0.000231565 0.000389397 0.014225)
(0.000226239 0.000387385 0.0140149)
(0.000217981 0.000373543 0.0140103)
(0.000219964 0.000371365 0.0137478)
(5.52702e-05 0.000266077 0.0135562)
(-0.000254232 0.000252898 0.0135543)
(-0.000430543 7.7138e-05 0.0140003)
(0.000117599 0.000174285 0.0141773)
(0.000232665 0.000187551 0.014048)
(0.000215353 0.00017403 0.0138466)
(0.000179406 0.000194241 0.0137861)
(0.000112977 0.000143349 0.0136054)
(4.91363e-06 2.73325e-05 0.0135764)
(-0.000292985 -3.85298e-05 0.0134123)
(-0.000527947 -0.000132502 0.0139715)
(0.000103223 1.80349e-05 0.0141671)
(0.000214555 2.67956e-05 0.0140592)
(0.00021959 -3.02665e-05 0.0138517)
(0.000176462 -6.00103e-05 0.0136825)
(4.54683e-05 -0.000181538 0.0134746)
(-0.000129579 -0.00024453 0.0135019)
(-0.000407131 -0.000365681 0.0135501)
(-0.000527896 -0.000336046 0.0141563)
(0.000132974 -0.000100455 0.0142199)
(0.000179508 -7.52483e-05 0.0140329)
(0.000119934 -0.000119847 0.0139489)
(1.57242e-05 -0.00020602 0.0138425)
(-8.54238e-05 -0.000365806 0.0138979)
(-0.000193386 -0.00043008 0.0138741)
(-0.00039269 -0.000509799 0.0140064)
(-0.000440138 -0.000415973 0.0143752)
(0.000132508 -0.000231843 0.0143291)
(0.000193054 -0.000219482 0.0140753)
(8.19509e-05 -0.000203545 0.0139142)
(-8.22358e-05 -0.000279925 0.0138616)
(-0.000196366 -0.000375658 0.0139696)
(-0.000293786 -0.000458775 0.0140329)
(-0.000411358 -0.000495543 0.0142484)
(-0.000392582 -0.000418185 0.0145203)
(7.78926e-05 -0.000150619 0.0146336)
(0.000202829 -0.000224279 0.0143172)
(5.14032e-05 -0.000258619 0.0140526)
(-0.000169221 -0.000345355 0.014057)
(-0.000281424 -0.000443067 0.0142123)
(-0.00033136 -0.000505146 0.0143373)
(-0.000365567 -0.000509821 0.0144979)
(-0.000326232 -0.000433974 0.0146294)
(3.77722e-06 -3.11661e-05 0.0144199)
(7.90053e-05 -0.000183185 0.0142999)
(-4.83582e-05 -0.000251969 0.0141211)
(-0.0002771 -0.000296396 0.0142082)
(-0.000367995 -0.000392223 0.014449)
(-0.000369568 -0.000418953 0.0146148)
(-0.00033635 -0.0004478 0.0147785)
(-0.000258994 -0.00046626 0.0147794)
(0.000126128 0.000251925 0.0146765)
(0.000154468 0.000258255 0.0145822)
(0.000149162 0.000259536 0.0144788)
(0.00012111 0.00025274 0.0144184)
(0.000103872 0.000267709 0.0143548)
(4.11095e-05 0.000237911 0.0142686)
(-6.18637e-05 0.000208396 0.01427)
(-0.000129773 9.59735e-05 0.014362)
(7.88534e-05 0.000231343 0.0144682)
(0.000135733 0.000234549 0.0144054)
(0.000136277 0.000230301 0.0143026)
(0.000114736 0.00021836 0.0142525)
(8.33527e-05 0.000201903 0.0141589)
(-3.16285e-06 0.000150053 0.0140989)
(-0.000131135 0.000110135 0.0141227)
(-0.000203357 2.19474e-05 0.0142939)
(9.75504e-05 0.000122147 0.0143763)
(0.000136656 0.000128241 0.0143016)
(0.000125345 0.000118893 0.0142013)
(8.99837e-05 0.00010789 0.0141442)
(3.49811e-05 7.22034e-05 0.0140743)
(-4.93689e-05 1.39454e-05 0.0140635)
(-0.000179742 -3.53602e-05 0.0140708)
(-0.000262291 -9.01727e-05 0.0142798)
(9.6114e-05 2.69843e-05 0.0143523)
(0.000127045 2.4786e-05 0.0142788)
(0.000111545 -7.1896e-07 0.0141797)
(6.49834e-05 -3.06041e-05 0.0141025)
(-1.24948e-05 -8.85049e-05 0.0140381)
(-0.000110828 -0.000137712 0.0140579)
(-0.000231102 -0.000188849 0.0141231)
(-0.000284407 -0.00020014 0.0143457)
(9.90446e-05 -4.49736e-05 0.0143798)
(0.000107657 -5.20044e-05 0.0142878)
(6.73854e-05 -8.04437e-05 0.0142177)
(-1.54619e-06 -0.00012764 0.0141684)
(-7.66034e-05 -0.000197907 0.0141781)
(-0.000154509 -0.000244015 0.0142033)
(-0.000244755 -0.000280397 0.0142905)
(-0.000271245 -0.000264087 0.0144605)
(7.93131e-05 -9.85158e-05 0.0144356)
(9.09684e-05 -0.000119085 0.0143265)
(3.36348e-05 -0.000139845 0.0142426)
(-5.68798e-05 -0.00018514 0.0142137)
(-0.000135149 -0.000241694 0.0142558)
(-0.000200454 -0.000284809 0.0143122)
(-0.000257859 -0.000305957 0.0144252)
(-0.000257661 -0.000284086 0.0145673)
(3.93678e-05 -7.95121e-05 0.0145452)
(6.49307e-05 -0.000131038 0.0144288)
(-1.36323e-06 -0.000169705 0.0143271)
(-0.000107913 -0.000218977 0.0143195)
(-0.000182335 -0.000273698 0.0143885)
(-0.000225053 -0.000307002 0.0144675)
(-0.000248579 -0.000314913 0.0145738)
(-0.00023053 -0.000290414 0.0146789)
(-1.67733e-05 -4.19728e-05 0.014519)
(1.3827e-07 -0.000115967 0.0144575)
(-5.67277e-05 -0.000164209 0.0143869)
(-0.000164351 -0.000201198 0.014411)
(-0.000227015 -0.000252202 0.0145182)
(-0.000243711 -0.000271357 0.0146165)
(-0.000238087 -0.000279689 0.0147288)
(-0.000197952 -0.000282389 0.0148114)
(6.87734e-05 0.000154183 0.0145886)
(8.47493e-05 0.0001542 0.0145441)
(8.27693e-05 0.000151861 0.0144923)
(6.54315e-05 0.000146201 0.0144539)
(4.59758e-05 0.000142569 0.0144209)
(9.27733e-06 0.000122066 0.0143891)
(-3.72147e-05 9.99121e-05 0.0143928)
(-6.98132e-05 4.80809e-05 0.0144247)
(5.23519e-05 0.000137608 0.014489)
(7.53115e-05 0.000136499 0.0144543)
(7.36161e-05 0.000130603 0.0144051)
(5.53605e-05 0.000119895 0.0143698)
(2.80143e-05 0.000104271 0.0143334)
(-1.80575e-05 7.53589e-05 0.0143145)
(-7.31074e-05 4.64351e-05 0.0143316)
(-0.000104033 2.88111e-06 0.0143956)
(5.94655e-05 8.0392e-05 0.0144383)
(7.29023e-05 7.98927e-05 0.0143984)
(6.38578e-05 7.12944e-05 0.0143497)
(3.82045e-05 5.77238e-05 0.0143157)
(1.16823e-06 3.43179e-05 0.0142885)
(-4.81259e-05 2.31277e-06 0.0142877)
(-0.000105371 -2.83403e-05 0.0143128)
(-0.000137044 -6.00168e-05 0.0143967)
(5.75758e-05 2.49586e-05 0.0144206)
(6.50353e-05 1.93687e-05 0.0143794)
(5.0362e-05 4.11806e-06 0.0143324)
(1.76808e-05 -1.68215e-05 0.0142981)
(-2.77607e-05 -4.74171e-05 0.0142793)
(-8.04236e-05 -7.77019e-05 0.014294)
(-0.000133597 -0.000105237 0.0143381)
(-0.00015599 -0.0001206 0.0144311)
(5.35666e-05 -1.84474e-05 0.0144315)
(5.19072e-05 -2.95121e-05 0.0143868)
(2.71168e-05 -4.84544e-05 0.0143482)
(-1.42202e-05 -7.54014e-05 0.0143263)