/*--------------------------------*- C++ -*----------------------------------*\
| =========                 |                                                 |
| \\      /  F ield         | OpenFOAM: The Open Source CFD Toolbox           |
|  \\    /   O peration     | Version:  2506                                  |
|   \\  /    A nd           | Website:  www.openfoam.com                      |
|    \\/     M anipulation  |                                                 |
\*---------------------------------------------------------------------------*/
FoamFile
{
    version     2.0;
    format      ascii;
    arch        "LSB;label=32;scalar=64";
    class       volVectorField;
    location    "0.07";
    object      Us;
}
// * * * * * * * * * * * * * * * * * * * * * * * * * * * * * * * * * * * * * //

dimensions      [0 1 -1 0 0 0 0];

internalField   nonuniform List<vector> 
4608
(
(-0.0004359 -0.000124738 0.000164075)
(-0.000626966 -0.0013684 0.000269254)
(-0.00118572 0.000150193 7.428e-05)
(-0.000289684 -0.000318726 0.00014598)
(-0.00011071 -0.000217133 0.000103444)
(0.000161649 0.000108207 0.000723349)
(0.000372696 -0.000252711 0.000604511)
(0.000998234 0.00042365 -0.000596217)
(-0.000375044 -0.000339394 0.000172513)
(-0.000454962 -0.000788901 0.000341349)
(-0.000317881 -0.000220689 0.000327193)
(-0.000209634 6.58601e-05 0.000237388)
(-0.000110794 -0.000215835 0.000158097)
(-0.000119823 -0.000136157 0.00024348)
(-0.00021918 -0.000128773 -0.000115925)
(-1.70173e-05 0.000262291 -0.000528092)
(-0.00101325 -0.00103898 -0.000363796)
(-0.000239631 -0.000205261 0.000323999)
(9.36308e-05 -7.38789e-05 8.38128e-06)
(-7.67008e-05 0.000145089 1.68639e-05)
(-0.000132121 0.000610219 -0.000623659)
(0.000902625 -0.000162417 -0.000171244)
(0.00084261 0.000589129 -0.000368127)
(0.000160902 0.00069456 -5.81235e-05)
(-0.000346987 -0.000299793 0.000143395)
(-0.000397714 -8.29661e-05 -6.36375e-05)
(0.000262451 0.000560311 6.12009e-05)
(3.30287e-05 0.00062107 -0.000350009)
(3.52759e-05 0.000953807 -0.000156259)
(0.000594229 0.00084456 -0.000444578)
(0.000833549 0.00224058 -0.000749681)
(0.00131675 0.000592028 0.000196021)
(-0.000524818 -0.000235704 -0.000131549)
(0.00022153 -0.00129014 -4.08558e-05)
(0.000430147 0.000625083 -0.000135809)
(0.000118037 0.000859168 -0.00028595)
(0.000325715 0.00137202 5.67022e-05)
(0.000109601 0.000324705 -0.000143944)
(-0.00039299 0.00169095 5.61002e-06)
(0.00020292 0.00141559 -0.000930597)
(0.000679644 0.000101538 -0.000996568)
(0.000605522 -0.000462115 -0.00101068)
(-0.000477049 0.000381089 -2.88339e-06)
(-0.00051287 0.00171581 0.000102226)
(0.000224425 0.00103359 0.000568945)
(0.000129671 0.000335621 6.7339e-06)
(0.000276338 0.000338037 -0.000210792)
(0.000498735 0.000532048 0.000527959)
(-0.000231055 0.00106914 -0.00045005)
(6.65679e-06 0.00110597 -0.000713291)
(-0.000584658 0.000424445 3.59429e-05)
(-0.00121599 0.00164313 -0.000778809)
(0.000915174 0.000963163 7.38875e-05)
(0.00158988 0.00100233 0.000294908)
(0.000530229 -0.000361715 -2.35178e-05)
(0.00032336 0.000382046 0.000470514)
(-0.00102296 0.000206076 -3.31278e-05)
(-2.10807e-05 0.000835082 -0.000591469)
(0.000681301 0.00145947 -0.00092622)
(0.000944014 0.000801073 -0.000823248)
(0.000868266 0.000424467 -0.000416114)
(0.000169526 0.000462882 0.000142495)
(6.35933e-06 -0.000278105 3.89423e-05)
(0.000323448 0.000436805 0.000141563)
(-0.000843727 -0.00128318 0.00616821)
(0.000653267 -0.00209508 0.00655777)
(-0.000226774 -0.000960334 0.00590429)
(-0.000517823 -0.000963472 0.00640486)
(0.000114627 -3.75961e-05 0.00424664)
(0.00047013 0.000303435 0.0059911)
(0.000193288 -0.000798897 0.00601329)
(0.000677088 0.000105247 0.00480208)
(-0.000912851 -0.00214577 0.00642864)
(-0.000686192 -0.00107891 0.00537249)
(7.21726e-05 -0.000330982 0.00622005)
(3.28365e-05 0.000403716 0.00622176)
(0.00054948 0.00080444 0.00695349)
(0.00096297 0.000942371 0.00681157)
(0.000458357 -0.000545486 0.00591247)
(0.000445379 4.56458e-05 0.00629913)
(-0.000336866 -0.00188916 0.00767211)
(4.88708e-05 -0.00111513 0.00674403)
(0.000290162 -0.000532366 0.0056771)
(0.000748086 -0.000802503 0.00614647)
(-0.00116288 0.00108934 0.00657545)
(0.000847782 6.97608e-05 0.00670452)
(0.00160949 -0.00058706 0.00604118)
(0.00142663 0.000354028 0.00611849)
(-0.00123811 -0.000792117 0.00699347)
(-0.000645568 -0.000207806 0.00606563)
(0.00122249 6.10858e-05 0.00613485)
(0.000603555 -0.00107717 0.00636058)
(0.000599594 0.000602148 0.00714992)
(0.0015272 -0.000283643 0.0066357)
(0.00159783 -0.00010228 0.0080439)
(0.000182905 0.0015944 0.00722217)
(0.000735394 -1.43303e-05 0.00603899)
(0.00114783 0.000640419 0.00531512)
(-0.000207858 0.000955213 0.0065506)
(-0.000435709 -0.000334166 0.00647819)
(0.000119148 -0.000253533 0.00643115)
(0.000827363 0.000255978 0.00696104)
(0.00255246 0.000189646 0.00636621)
(0.000848969 -0.000628088 0.0058357)
(-0.00063158 0.00228327 0.00650118)
(0.000466979 7.16313e-05 0.00607519)
(0.000120601 0.000895338 0.00747551)
(0.000913638 0.000556524 0.00656374)
(0.00121571 -0.00121735 0.00720925)
(0.000862186 -0.000390911 0.00787115)
(0.00180267 0.00044493 0.00709146)
(0.00143108 0.000534836 0.00840445)
(-0.000119741 0.00148046 0.00498394)
(-0.000132868 0.00108156 0.00677025)
(0.000428341 0.00105887 0.00655247)
(-0.000664571 0.00155248 0.00738116)
(0.000939547 0.000652426 0.00659239)
(0.000972904 -0.000254424 0.00520598)
(0.00117778 0.000262371 0.0073305)
(0.000616668 0.00198407 0.0062976)
(-3.73173e-05 0.000400696 0.00549723)
(0.000760556 0.000759889 0.00626539)
(0.000782872 0.00167551 0.00646492)
(0.00148871 0.00229786 0.004351)
(0.0021882 0.00140758 0.00726164)
(0.000135224 -0.000669526 0.00678421)
(7.39737e-05 0.000567026 0.00726787)
(0.000992366 0.00291168 0.00532025)
(0.000592998 -0.000728614 0.00609797)
(0.00049276 -0.000565939 0.00659746)
(0.000597842 4.18069e-05 0.00592497)
(0.000597475 0.000206477 0.0057025)
(0.000490176 0.000195249 0.00568334)
(9.20221e-05 0.000909574 0.0056093)
(2.17625e-05 -0.000532808 0.00701572)
(0.000766363 0.000246614 0.00621245)
(2.86914e-05 -0.000615427 0.0063917)
(-0.000173551 -0.000760391 0.00705715)
(0.000715427 -0.000257468 0.00655831)
(0.000803967 2.33528e-05 0.0066321)
(0.000492504 0.000565944 0.00636785)
(0.000259499 0.000738824 0.00627789)
(0.000335125 -4.54815e-05 0.00653261)
(0.000657617 0.000378565 0.0068012)
(0.000567806 -0.000480172 0.00664084)
(0.000857938 -0.000141523 0.00621835)
(-0.000105963 -7.9753e-05 0.00717355)
(0.000943682 -0.000349205 0.00772297)
(4.59569e-05 0.000478115 0.00688179)
(0.000279817 0.000558418 0.00698589)
(0.000208126 0.000902017 0.00685279)
(0.000564071 0.00058986 0.00667356)
(0.000416404 -0.000524387 0.00598898)
(0.000893353 -0.000156201 0.00590627)
(0.000322166 -0.000243936 0.00637039)
(0.000216848 0.000396363 0.00651267)
(0.000294625 0.000199052 0.00695606)
(0.000878445 -0.000249284 0.00647399)
(0.000331235 -0.00017725 0.00646121)
(0.000305126 0.000954276 0.00679779)
(0.00101583 -0.000484672 0.00530283)
(0.000917023 -0.000690834 0.00653795)
(0.000156148 0.000159213 0.00704873)
(2.88693e-05 0.000336421 0.00692398)
(7.61978e-05 0.000477676 0.00655615)
(-0.000176003 -0.000323857 0.00678794)
(0.000845427 0.000806484 0.00682571)
(0.000545485 0.000736796 0.00663632)
(0.000370895 -0.000390483 0.00537999)
(0.000425405 -0.000123753 0.00605073)
(0.000892602 -0.000326707 0.00662883)
(0.000803014 0.000513877 0.00622151)
(0.000104037 0.000734159 0.00631062)
(-0.000350237 0.000155998 0.00644503)
(-4.58779e-05 7.80275e-05 0.00678152)
(0.000158922 0.00103267 0.00686105)
(0.000619011 -0.000630255 0.00504056)
(0.000452527 -0.000412363 0.00606593)
(0.000626901 -0.000570057 0.0058499)
(0.000732246 0.000681473 0.00562786)
(0.000623274 0.000284162 0.00588818)
(0.000178445 0.000232233 0.00604426)
(3.82179e-05 0.000476856 0.00708612)
(-9.24685e-06 0.00126857 0.006081)
(1.00033e-06 -0.000622037 0.00548957)
(-2.66796e-05 -0.000147996 0.0055394)
(0.000826277 0.000550626 0.00566902)
(0.00124972 0.000356216 0.00523701)
(0.00136401 0.000326958 0.00629209)
(-0.00038136 0.000319012 0.00618427)
(0.000163126 0.000595909 0.0066457)
(0.000328428 0.000914236 0.00635734)
(0.000165887 -0.000243586 0.00777226)
(0.00065331 -0.000229981 0.00663619)
(0.000733283 -0.000246938 0.00649777)
(0.000265311 -0.000755116 0.00710041)
(0.000360004 0.000184114 0.00554431)
(0.000467938 0.000334681 0.00570745)
(0.000574896 0.000431283 0.00575554)
(0.000281275 0.000134837 0.00558942)
(0.000616665 -0.000241094 0.00629609)
(0.00036761 -4.88517e-05 0.00612822)
(0.000278547 -0.000310064 0.00619639)
(0.000246576 -0.000222407 0.00603722)
(0.000171557 5.71903e-05 0.00579011)
(0.000250607 0.000262677 0.00621491)
(0.000479384 0.000480391 0.00610632)
(0.000392741 0.000410254 0.00589869)
(0.00033619 -0.000554766 0.00659207)
(0.000579412 -0.000307692 0.00576602)
(0.000246405 -0.000460133 0.00602062)
(0.000505124 -0.000204635 0.00650798)
(0.000249085 0.000232934 0.00609598)
(0.000224086 0.000267411 0.00628592)
(0.000362797 0.000399325 0.00620726)
(0.000424107 0.000447693 0.00629998)
(0.000900572 -0.000426044 0.00579542)
(0.000721909 -0.00025619 0.00569866)
(0.000351915 -0.000236902 0.0060484)
(0.000168788 -2.50716e-06 0.00651892)
(0.000301123 4.46014e-05 0.00620387)
(0.000529997 0.000390337 0.00634058)
(0.000334494 0.000324492 0.00637109)
(7.04463e-05 0.000497494 0.00688941)
(0.000673686 -0.000285928 0.00553618)
(0.000516754 -0.000242926 0.00596079)
(0.000116903 -0.000135317 0.00641972)
(2.19939e-05 0.000224519 0.0066144)
(0.000154073 7.93772e-05 0.00636819)
(-0.000334902 -0.000507363 0.00766026)
(-0.000587606 0.000151121 0.00690414)
(-0.000199422 0.00031739 0.00645508)
(0.000601166 -0.000195285 0.00554395)
(0.000314778 -0.00013762 0.00600335)
(0.000101786 2.35049e-05 0.0064924)
(-3.7429e-05 0.000196774 0.00708413)
(3.87405e-06 -0.000309238 0.00640448)
(-0.000190933 -0.000209326 0.00688378)
(-1.49473e-05 0.00015363 0.00654337)
(-0.000553945 4.53492e-05 0.00702322)
(0.000633996 -0.000542657 0.00550975)
(0.00034863 -0.000514471 0.00586857)
(0.000322964 -0.00037648 0.00590403)
(0.000310713 -0.000138936 0.00601558)
(0.000433199 -0.000426901 0.00622349)
(5.49486e-05 -7.94971e-05 0.00665682)
(-1.49138e-05 0.000581265 0.00654144)
(-6.37271e-06 0.000647132 0.00714415)
(0.00100421 -0.0014018 0.00594007)
(0.000339016 -2.2043e-05 0.00635351)
(0.000542188 0.0001759 0.0057578)
(0.000356725 -0.000432571 0.00564657)
(0.000249844 -0.000213111 0.00607153)
(-0.000101797 -0.000217913 0.00640974)
(0.000173302 0.000144953 0.00663088)
(0.000288343 -0.000205938 0.00730469)
(0.000441856 -0.000187443 0.00650879)
(0.00043403 -0.000739671 0.00618931)
(0.000533485 -0.000358846 0.00710889)
(0.000489937 1.92977e-05 0.00610551)
(0.000436219 9.51397e-05 0.00577255)
(0.000204682 7.11286e-05 0.00567581)
(0.000141754 0.000380708 0.0058157)
(-0.000227796 0.000499752 0.00617568)
(0.000574639 -0.000397312 0.00595354)
(0.000267477 -0.000122013 0.00592938)
(0.000408253 -0.00015811 0.00632671)
(0.000407464 -1.39879e-05 0.00586252)
(0.000263839 -0.000120823 0.00570497)
(1.68145e-05 9.37452e-05 0.00589263)
(7.29427e-05 0.000274173 0.00594037)
(-0.00015219 0.0002268 0.00584796)
(0.000539954 -0.000423243 0.00565059)
(0.000226206 -0.00021192 0.00589567)
(0.000167913 -0.000262928 0.00596895)
(0.000139437 -0.000148964 0.00594699)
(0.000134792 8.33787e-05 0.00596645)
(-3.87217e-05 2.08481e-05 0.00619306)
(6.72445e-05 0.000312672 0.00618519)
(0.000216143 0.00040822 0.00648609)
(0.000619488 -0.000117705 0.00581252)
(7.25106e-05 -0.000532629 0.00594327)
(-1.20563e-05 -0.0002075 0.00610302)
(-0.000118227 -0.000113935 0.0062627)
(-3.79325e-05 -8.37435e-05 0.00615561)
(0.000164161 7.83384e-05 0.00633134)
(0.000293032 9.50664e-05 0.0064462)
(0.000187058 0.000489888 0.00647553)
(0.000430683 -4.21416e-05 0.00583689)
(0.000193443 -0.000186575 0.00614513)
(6.97237e-05 -0.000231419 0.0061721)
(-4.38426e-05 -0.000324192 0.00632057)
(-1.30691e-06 -0.000132325 0.00636372)
(5.23162e-05 -3.76279e-05 0.00640994)
(0.000124446 0.000167264 0.00646036)
(3.24358e-05 0.000164533 0.00650936)
(0.000348744 4.78275e-05 0.00593539)
(0.000269817 1.31861e-05 0.00609679)
(0.000126431 -0.00022072 0.00616317)
(-0.000283608 5.83677e-05 0.00646005)
(-0.000130371 -0.000119848 0.00651674)
(-0.000112408 3.01867e-05 0.00636998)
(0.000332061 0.000117223 0.00678525)
(-9.10529e-06 8.25099e-05 0.00694656)
(0.000342479 -0.000199586 0.00571575)
(0.000145193 -0.000236944 0.00603705)
(-3.07256e-05 -0.000246135 0.00595516)
(-0.000266415 -0.000427027 0.00599104)
(-0.000344033 -0.00011514 0.0063605)
(-0.000148055 -0.000803903 0.00689148)
(0.000245199 -3.96813e-05 0.00656758)
(0.000152702 0.000341318 0.0071705)
(0.000236302 -0.00016955 0.00552986)
(0.000309984 -0.000446104 0.00561693)
(0.000387807 -0.000504893 0.00564151)
(4.7869e-05 -0.000819509 0.0060437)
(-0.0002305 -0.000683914 0.00632178)
(-0.000123974 -0.000554122 0.00652268)
(0.0001485 -0.000731617 0.00658482)
(5.57766e-05 -0.00010423 0.00743362)
(0.000389121 -6.35068e-05 0.0060415)
(0.000402701 -8.74285e-05 0.00606749)
(0.000393963 5.08938e-05 0.00609971)
(0.000558406 -8.07617e-05 0.00584626)
(0.000166363 -0.000135824 0.00571146)
(-9.42697e-05 -0.000439719 0.00573732)
(-0.000318253 -0.000239156 0.00562414)
(-0.000201897 0.000151141 0.00572215)
(0.000359316 -0.000135017 0.00606855)
(0.00040492 -0.00026315 0.00593301)
(0.000228643 1.58117e-05 0.00600477)
(0.000113841 -5.26051e-05 0.0061386)
(5.23435e-05 7.4733e-05 0.00589645)
(-0.000141253 -0.000136611 0.00595601)
(-0.000382613 -0.000386233 0.00589518)
(-0.000300426 5.30607e-05 0.00595153)
(0.000392449 -4.6998e-05 0.00575343)
(0.00019899 -0.000173145 0.0059903)
(-1.41832e-05 -0.000139193 0.00601568)
(-4.78802e-05 -0.00012561 0.0060566)
(-5.15723e-05 -6.78143e-06 0.00598975)
(-0.000113365 -1.47316e-05 0.00610966)
(-0.000208951 -1.95386e-05 0.00620355)
(-0.000282641 0.000130302 0.00647266)
(8.86623e-05 -5.85556e-05 0.00585483)
(-0.000100196 -0.000252825 0.00609044)
(-0.000305094 -0.000205669 0.00620066)
(9.23702e-06 -0.000115057 0.006173)
(-8.42367e-05 4.11878e-05 0.00610602)
(-8.80982e-05 -3.92861e-05 0.00617361)
(-7.19446e-05 -1.06963e-05 0.00628076)
(-8.22878e-05 -4.49799e-05 0.00639246)
(4.64297e-05 -0.000193077 0.00582905)
(-0.000130574 -0.000193746 0.00600756)
(-0.000158439 -0.000219202 0.00624825)
(-0.000188559 -0.00025329 0.0062697)
(-0.000180045 -1.91039e-05 0.00626702)
(-2.70548e-05 -0.000181526 0.00639942)
(-9.86888e-05 -0.000163172 0.00655148)
(-2.40017e-05 -0.000153731 0.0067299)
(-3.09809e-05 -0.000235936 0.00585593)
(-8.10233e-05 -0.000210771 0.00610085)
(-0.000124559 -0.000395176 0.00617784)
(-0.000198478 -0.000279502 0.00625589)
(-0.000196675 -0.000139388 0.006468)
(0.000125615 -0.000222478 0.00658644)
(2.48115e-05 -5.38916e-05 0.00669819)
(-0.000176803 -0.000125765 0.00680647)
(0.000203795 -0.000150351 0.00560754)
(4.5895e-05 -0.000347809 0.00595475)
(-3.53949e-05 -0.000462053 0.00624274)
(-0.000514407 -0.000382963 0.00618513)
(-0.00027112 -0.00013267 0.00641841)
(0.000251293 -0.000485128 0.00656097)
(0.000249681 9.19366e-05 0.00635776)
(9.7988e-05 4.49708e-05 0.00671247)
(0.000229543 -0.000431905 0.00550423)
(0.000364857 -0.000594705 0.005651)
(-0.000145946 -0.000591806 0.0055274)
(-0.000687099 -0.000447344 0.00603533)
(-0.00048856 -0.000638953 0.00634681)
(8.27668e-06 -0.000133714 0.00610891)
(9.92147e-05 -0.000260232 0.00638824)
(9.21449e-05 0.000126385 0.00704865)
(0.000946722 -0.000387499 0.00566867)
(0.000758785 -0.000722825 0.00594739)
(0.000168337 -8.48698e-05 0.00583345)
(0.000255977 -0.00050421 0.00548427)
(-0.000174803 -0.000101251 0.00570902)
(7.57833e-05 -0.000201003 0.00573821)
(-0.000176732 -0.000617758 0.00570111)
(-0.000952137 -0.000211201 0.0048676)
(8.70319e-05 -3.77606e-05 0.00578928)
(0.000438361 -0.000480007 0.00598199)
(0.000335464 -9.35045e-06 0.00585271)
(0.00318245 -0.0003615 0.00419255)
(-0.00157508 -8.47675e-05 0.00469889)
(-0.000345244 -9.13846e-05 0.00599444)
(-0.000389304 -0.000244235 0.00585282)
(-0.000310759 3.16833e-05 0.00593435)
(-8.59553e-05 -0.00010657 0.00554079)
(0.000164679 -8.87807e-05 0.00612317)
(-0.000383037 -0.000300389 0.0057381)
(-0.000269535 -0.000282593 0.00582613)
(-6.64022e-05 6.49567e-05 0.00599615)
(-0.000179494 -6.57291e-05 0.00609051)
(-0.00036681 -0.000193243 0.00618804)
(-0.000400693 -1.46211e-06 0.00635957)
(-0.00026623 -7.12831e-05 0.00581213)
(-0.00016345 -0.000237212 0.00619695)
(-0.00150993 -0.000587135 0.00559105)
(-0.000754656 -0.000428665 0.00589183)
(-0.00010733 -0.000233087 0.00613769)
(-0.000124789 -0.000121011 0.00625424)
(-5.52192e-05 -0.000159669 0.00613345)
(-0.000164129 1.34768e-05 0.00638502)
(-0.000303272 -5.33358e-05 0.00558034)
(-0.000416436 -0.000103147 0.00584652)
(-0.000387059 -0.000317582 0.0060728)
(-0.000202179 -0.000278181 0.00628699)
(-0.000211831 -0.000215852 0.00630025)
(-0.000174079 -0.000237786 0.006347)
(-0.000184367 -8.11752e-05 0.00640373)
(-7.80921e-05 -0.000154053 0.00666723)
(-0.000420738 -0.000342889 0.00552712)
(-0.000469419 -0.000273868 0.00605568)
(-0.000594237 -0.00015809 0.00603865)
(-0.000429038 -0.000206374 0.0062077)
(-0.000417485 -5.27472e-05 0.00617375)
(-0.000145738 -0.000114205 0.00652844)
(-0.000313978 0.000146604 0.00641962)
(-0.00045054 -2.535e-06 0.00660718)
(-9.13077e-05 -0.000170957 0.00514142)
(-0.000504347 -0.000371518 0.00577693)
(-0.000473654 -0.000244669 0.00630386)
(-0.000206169 8.93293e-05 0.00623676)
(7.78303e-06 7.20781e-05 0.00629546)
(0.000215376 0.000106724 0.00613501)
(-0.000450052 0.000554349 0.00662234)
(-0.000275413 9.18584e-05 0.00674743)
(-0.000156595 -0.000692949 0.00552401)
(0.0012586 -0.000388725 0.0053037)
(-0.000468309 -6.17182e-05 0.00580958)
(-0.000546283 -0.000100006 0.00583721)
(-0.000223624 -0.000127588 0.00627511)
(-0.000102777 -0.000294529 0.00616264)
(-0.000185873 0.000104926 0.00659495)
(-0.000172715 0.00028115 0.0064446)
(0 0 0)
(0 0 0)
(0 0 0)
(0 0 0)
(0 0 0)
(0 0 0)
(0 0 0)
(0 0 0)
(0 0 0)
(0 0 0)
(0 0 0)
(0 0 0)
(0 0 0)
(0 0 0)
(0 0 0)
(0 0 0)
(0 0 0)
(0 0 0)
(0 0 0)
(0 0 0)
(0 0 0)
(0 0 0)
(-0.000362403 -0.00032733 0.00626028)
(0 0 0)
(0 0 0)
(0 0 0)
(0 0 0)
(0 0 0)
(0 0 0)
(-0.000287113 -0.000178397 0.00621848)
(0.000135318 -0.000181805 0.00612728)
(0 0 0)
(0 0 0)
(0 0 0)
(0 0 0)
(0 0 0)
(0 0 0)
(0 0 0)
(0 0 0)
(0 0 0)
(0 0 0)
(0 0 0)
(0 0 0)
(0 0 0)
(0 0 0)
(0 0 0)
(0 0 0)
(0 0 0)
(0 0 0)
(0 0 0)
(0 0 0)
(0 0 0)
(0 0 0)
(0 0 0)
(0 0 0)
(0 0 0)
(0 0 0)
(0 0 0)
(0 0 0)
(0 0 0)
(0 0 0)
(0 0 0)
(0 0 0)
(0 0 0)
(0 0 0)
(0 0 0)
(0 0 0)
(0 0 0)
(0 0 0)
(0 0 0)
(0 0 0)
(0 0 0)
(0 0 0)
(0 0 0)
(0 0 0)
(0 0 0)
(0 0 0)
(0 0 0)
(0 0 0)
(0 0 0)
(0 0 0)
(0 0 0)
(0 0 0)
(0 0 0)
(0 0 0)
(0 0 0)
(0 0 0)
(0 0 0)
(0 0 0)
(0 0 0)
(0 0 0)
(0 0 0)
(0 0 0)
(0 0 0)
(0 0 0)
(0 0 0)
(0 0 0)
(0 0 0)
(0 0 0)
(0 0 0)
(0 0 0)
(0 0 0)
(0 0 0)
(0 0 0)
(0 0 0)
(0 0 0)
(0 0 0)
(0 0 0)
(0 0 0)
(0 0 0)
(0 0 0)
(0 0 0)
(0 0 0)
(0 0 0)
(0 0 0)
(0 0 0)
(0 0 0)
(0 0 0)
(0 0 0)
(0 0 0)
(0 0 0)
(0 0 0)
(0 0 0)
(0 0 0)
(0 0 0)
(0 0 0)
(0 0 0)
(0 0 0)
(0 0 0)
(0 0 0)
(0 0 0)
(0 0 0)
(0 0 0)
(0 0 0)
(0 0 0)
(0 0 0)
(0 0 0)
(0 0 0)
(0 0 0)
(0 0 0)
(0 0 0)
(0 0 0)
(0 0 0)
(0 0 0)
(0 0 0)
(0 0 0)
(0 0 0)
(0 0 0)
(0 0 0)
(0 0 0)
(0 0 0)
(0 0 0)
(0 0 0)
(0 0 0)
(0 0 0)
(0 0 0)
(0 0 0)
(0 0 0)
(0 0 0)
(0 0 0)
(0 0 0)
(0 0 0)
(0 0 0)
(0 0 0)
(0 0 0)
(0 0 0)
(0 0 0)
(0 0 0)
(0 0 0)
(0 0 0)
(0 0 0)
(0 0 0)
(0 0 0)
(0 0 0)
(0 0 0)
(0 0 0)
(0 0 0)
(0 0 0)
(0 0 0)
(0 0 0)
(0 0 0)
(0 0 0)
(0 0 0)
(0 0 0)
(0 0 0)
(0 0 0)
(0 0 0)
(0 0 0)
(0 0 0)
(0 0 0)
(0 0 0)
(0 0 0)
(0 0 0)
(0 0 0)
(0 0 0)
(0 0 0)
(0 0 0)
(0 0 0)
(0 0 0)
(0 0 0)
(0 0 0)
(0 0 0)
(0 0 0)
(0 0 0)
(0 0 0)
(0 0 0)
(0 0 0)
(0 0 0)
(0 0 0)
(0 0 0)
(0 0 0)
(0 0 0)
(0 0 0)
(0 0 0)
(0 0 0)
(0 0 0)
(0 0 0)
(0 0 0)
(0 0 0)
(0 0 0)
(0 0 0)
(0 0 0)
(0 0 0)
(0 0 0)
(0 0 0)
(0 0 0)
(0 0 0)
(0 0 0)
(0 0 0)
(0 0 0)
(0 0 0)
(0 0 0)
(0 0 0)
(0 0 0)
(0 0 0)
(0 0 0)
(0 0 0)
(0 0 0)
(0 0 0)
(0 0 0)
(0 0 0)
(0 0 0)
(0 0 0)
(0 0 0)
(0 0 0)
(0 0 0)
(0 0 0)
(0 0 0)
(0 0 0)
(0 0 0)
(0 0 0)
(0 0 0)
(0 0 0)
(0 0 0)
(0 0 0)
(0 0 0)
(0 0 0)
(0 0 0)
(0 0 0)
(0 0 0)
(0 0 0)
(0 0 0)
(0 0 0)
(0 0 0)
(0 0 0)
(0 0 0)
(0 0 0)
(0 0 0)
(0 0 0)
(0 0 0)
(0 0 0)
(0 0 0)
(0 0 0)
(0 0 0)
(0 0 0)
(0 0 0)
(0 0 0)
(0 0 0)
(0 0 0)
(0 0 0)
(0 0 0)
(0 0 0)
(0 0 0)
(0 0 0)
(0 0 0)
(0 0 0)
(0 0 0)
(0 0 0)
(0 0 0)
(0 0 0)
(0 0 0)
(0 0 0)
(0 0 0)
(0 0 0)
(0 0 0)
(0 0 0)
(0 0 0)
(0 0 0)
(0 0 0)
(0 0 0)
(0 0 0)
(0 0 0)
(0 0 0)
(0 0 0)
(0 0 0)
(0 0 0)
(0 0 0)
(0 0 0)
(0 0 0)
(0 0 0)
(0 0 0)
(0 0 0)
(0 0 0)
(0 0 0)
(0 0 0)
(0 0 0)
(0 0 0)
(0 0 0)
(0 0 0)
(0 0 0)
(0 0 0)
(0 0 0)
(0 0 0)
(0 0 0)
(0 0 0)
(0 0 0)
(0 0 0)
(0 0 0)
(0 0 0)
(0 0 0)
(0 0 0)
(0 0 0)
(0 0 0)
(0 0 0)
(0 0 0)
(0 0 0)
(0 0 0)
(0 0 0)
(0 0 0)
(0 0 0)
(0 0 0)
(0 0 0)
(0 0 0)
(0 0 0)
(0 0 0)
(0 0 0)
(0 0 0)
(0 0 0)
(0 0 0)
(0 0 0)
(0 0 0)
(0 0 0)
(0 0 0)
(0 0 0)
(0 0 0)
(0 0 0)
(0 0 0)
(0 0 0)
(0 0 0)
(0 0 0)
(0 0 0)
(0 0 0)
(0 0 0)
(0 0 0)
(0 0 0)
(0 0 0)
(0 0 0)
(0 0 0)
(0 0 0)
(0 0 0)
(0 0 0)
(0 0 0)
(0 0 0)
(0 0 0)
(0 0 0)
(0 0 0)
(0 0 0)
(0 0 0)
(0 0 0)
(0 0 0)
(0 0 0)
(0 0 0)
(0 0 0)
(0 0 0)
(0 0 0)
(0 0 0)
(0 0 0)
(0 0 0)
(0 0 0)
(0 0 0)
(0 0 0)
(0 0 0)
(0 0 0)
(0 0 0)
(0 0 0)
(0 0 0)
(0 0 0)
(0 0 0)
(0 0 0)
(0 0 0)
(0 0 0)
(0 0 0)
(0 0 0)
(0 0 0)
(0 0 0)
(0 0 0)
(0 0 0)
(0 0 0)
(0 0 0)
(0 0 0)
(0 0 0)
(0 0 0)
(0 0 0)
(0 0 0)
(0 0 0)
(0 0 0)
(0 0 0)
(0 0 0)
(0 0 0)
(0 0 0)
(0 0 0)
(0 0 0)
(0 0 0)
(0 0 0)
(0 0 0)
(0 0 0)
(0 0 0)
(0 0 0)
(0 0 0)
(0 0 0)
(0 0 0)
(0 0 0)
(0 0 0)
(0 0 0)
(0 0 0)
(0 0 0)
(0 0 0)
(0 0 0)
(0 0 0)
(0 0 0)
(0 0 0)
(0 0 0)
(0 0 0)
(0 0 0)
(0 0 0)
(0 0 0)
(0 0 0)
(0 0 0)
(0 0 0)
(0 0 0)
(0 0 0)
(0 0 0)
(0 0 0)
(0 0 0)
(0 0 0)
(0 0 0)
(0 0 0)
(0 0 0)
(0 0 0)
(0 0 0)
(0 0 0)
(0 0 0)
(0 0 0)
(0 0 0)
(0 0 0)
(0 0 0)
(0 0 0)
(0 0 0)
(0 0 0)
(0 0 0)
(0 0 0)
(0 0 0)
(0 0 0)
(0 0 0)
(0 0 0)
(0 0 0)
(0 0 0)
(0 0 0)
(0 0 0)
(0 0 0)
(0 0 0)
(0 0 0)
(0 0 0)
(0 0 0)
(0 0 0)
(0 0 0)
(0 0 0)
(0 0 0)
(0 0 0)
(0 0 0)
(0 0 0)
(0 0 0)
(0 0 0)
(0 0 0)
(0 0 0)
(0 0 0)
(0 0 0)
(0 0 0)
(0 0 0)
(0 0 0)
(0 0 0)
(0 0 0)
(0 0 0)
(0 0 0)
(0 0 0)
(0 0 0)
(0 0 0)
(0 0 0)
(0 0 0)
(0 0 0)
(0 0 0)
(0 0 0)
(0 0 0)
(0 0 0)
(0 0 0)
(0 0 0)
(0 0 0)
(0 0 0)
(0 0 0)
(0 0 0)
(0 0 0)
(0 0 0)
(0 0 0)
(0 0 0)
(0 0 0)
(0 0 0)
(0 0 0)
(0 0 0)
(0 0 0)
(0 0 0)
(0 0 0)
(0 0 0)
(0 0 0)
(0 0 0)
(0 0 0)
(0 0 0)
(0 0 0)
(0 0 0)
(0 0 0)
(0 0 0)
(0 0 0)
(0 0 0)
(0 0 0)
(0 0 0)
(0 0 0)
(0 0 0)
(0 0 0)
(0 0 0)
(0 0 0)
(0 0 0)
(0 0 0)
(0 0 0)
(0 0 0)
(0 0 0)
(0 0 0)
(0 0 0)
(0 0 0)
(0 0 0)
(0 0 0)
(0 0 0)
(0 0 0)
(0 0 0)
(0 0 0)
(0 0 0)
(0 0 0)
(0 0 0)
(0 0 0)
(0 0 0)
(0 0 0)
(0 0 0)
(0 0 0)
(0 0 0)
(0 0 0)
(0 0 0)
(0 0 0)
(0 0 0)
(0 0 0)
(0 0 0)
(0 0 0)
(0 0 0)
(0 0 0)
(0 0 0)
(0 0 0)
(0 0 0)
(0 0 0)
(0 0 0)
(0 0 0)
(0 0 0)
(0 0 0)
(0 0 0)
(0 0 0)
(0 0 0)
(0 0 0)
(0 0 0)
(0 0 0)
(0 0 0)
(0 0 0)
(0 0 0)
(0 0 0)
(0 0 0)
(0 0 0)
(0 0 0)
(0 0 0)
(0 0 0)
(0 0 0)
(0 0 0)
(0 0 0)
(0 0 0)
(0 0 0)
(0 0 0)
(0 0 0)
(0 0 0)
(0 0 0)
(0 0 0)
(0 0 0)
(0 0 0)
(0 0 0)
(0 0 0)
(0 0 0)
(0 0 0)
(0 0 0)
(0 0 0)
(0 0 0)
(0 0 0)
(0 0 0)
(0 0 0)
(0 0 0)
(0 0 0)
(0 0 0)
(0 0 0)
(0 0 0)
(0 0 0)
(0 0 0)
(0 0 0)
(0 0 0)
(0 0 0)
(0 0 0)
(0 0 0)
(0 0 0)
(0 0 0)
(0 0 0)
(0 0 0)
(0 0 0)
(0 0 0)
(0 0 0)
(0 0 0)
(0 0 0)
(0 0 0)
(0 0 0)
(0 0 0)
(0 0 0)
(0 0 0)
(0 0 0)
(0 0 0)
(0 0 0)
(0 0 0)
(0 0 0)
(0 0 0)
(0 0 0)
(0 0 0)
(0 0 0)
(0 0 0)
(0 0 0)
(0 0 0)
(0 0 0)
(0 0 0)
(0 0 0)
(0 0 0)
(0 0 0)
(0 0 0)
(0 0 0)
(0 0 0)
(0 0 0)
(0 0 0)
(0 0 0)
(0 0 0)
(0 0 0)
(0 0 0)
(0 0 0)
(0 0 0)
(0 0 0)
(0 0 0)
(0 0 0)
(0 0 0)
(0 0 0)
(0 0 0)
(0 0 0)
(0 0 0)
(0 0 0)
(0 0 0)
(0 0 0)
(0 0 0)
(0 0 0)
(0 0 0)
(0 0 0)
(0 0 0)
(0 0 0)
(0 0 0)
(0 0 0)
(0 0 0)
(0 0 0)
(0 0 0)
(0 0 0)
(0 0 0)
(0 0 0)
(0 0 0)
(0 0 0)
(0 0 0)
(0 0 0)
(0 0 0)
(0 0 0)
(0 0 0)
(0 0 0)
(0 0 0)
(0 0 0)
(0 0 0)
(0 0 0)
(0 0 0)
(0 0 0)
(0 0 0)
(0 0 0)
(0 0 0)
(0 0 0)
(0 0 0)
(0 0 0)
(0 0 0)
(0 0 0)
(0 0 0)
(0 0 0)
(0 0 0)
(0 0 0)
(0 0 0)
(0 0 0)
(0 0 0)
(0 0 0)
(0 0 0)
(0 0 0)
(0 0 0)
(0 0 0)
(0 0 0)
(0 0 0)
(0 0 0)
(0 0 0)
(0 0 0)
(0 0 0)
(0 0 0)
(0 0 0)
(0 0 0)
(0 0 0)
(0 0 0)
(0 0 0)
(0 0 0)
(0 0 0)
(0 0 0)
(0 0 0)
(0 0 0)
(0 0 0)
(0 0 0)
(0 0 0)
(0 0 0)
(0 0 0)
(0 0 0)
(0 0 0)
(0 0 0)
(0 0 0)
(0 0 0)
(0 0 0)
(0 0 0)
(0 0 0)
(0 0 0)
(0 0 0)
(0 0 0)
(0 0 0)
(0 0 0)
(0 0 0)
(0 0 0)
(0 0 0)
(0 0 0)
(0 0 0)
(0 0 0)
(0 0 0)
(0 0 0)
(0 0 0)
(0 0 0)
(0 0 0)
(0 0 0)
(0 0 0)
(0 0 0)
(0 0 0)
(0 0 0)
(0 0 0)
(0 0 0)
(0 0 0)
(0 0 0)
(0 0 0)
(0 0 0)
(0 0 0)
(0 0 0)
(0 0 0)
(0 0 0)
(0 0 0)
(0 0 0)
(0 0 0)
(0 0 0)
(0 0 0)
(0 0 0)
(0 0 0)
(0 0 0)
(0 0 0)
(0 0 0)
(0 0 0)
(0 0 0)
(0 0 0)
(0 0 0)
(0 0 0)
(0 0 0)
(0 0 0)
(0 0 0)
(0 0 0)
(0 0 0)
(0 0 0)
(0 0 0)
(0 0 0)
(0 0 0)
(0 0 0)
(0 0 0)
(0 0 0)
(0 0 0)
(0 0 0)
(0 0 0)
(0 0 0)
(0 0 0)
(0 0 0)
(0 0 0)
(0 0 0)
(0 0 0)
(0 0 0)
(0 0 0)
(0 0 0)
(0 0 0)
(0 0 0)
(0 0 0)
(0 0 0)
(0 0 0)
(0 0 0)
(0 0 0)
(0 0 0)
(0 0 0)
(0 0 0)
(0 0 0)
(0 0 0)
(0 0 0)
(0 0 0)
(0 0 0)
(0 0 0)
(0 0 0)
(0 0 0)
(0 0 0)
(0 0 0)
(0 0 0)
(0 0 0)
(0 0 0)
(0 0 0)
(0 0 0)
(0 0 0)
(0 0 0)
(0 0 0)
(0 0 0)
(0 0 0)
(0 0 0)
(0 0 0)
(0 0 0)
(0 0 0)
(0 0 0)
(0 0 0)
(0 0 0)
(0 0 0)
(0 0 0)
(0 0 0)
(0 0 0)
(0 0 0)
(0 0 0)
(0 0 0)
(0 0 0)
(0 0 0)
(0 0 0)
(0 0 0)
(0 0 0)
(0 0 0)
(0 0 0)
(0 0 0)
(0 0 0)
(0 0 0)
(0 0 0)
(0 0 0)
(0 0 0)
(0 0 0)
(0 0 0)
(0 0 0)
(0 0 0)
(0 0 0)
(0 0 0)
(0 0 0)
(0 0 0)
(0 0 0)
(0 0 0)
(0 0 0)
(0 0 0)
(0 0 0)
(0 0 0)
(0 0 0)
(0 0 0)
(0 0 0)
(0 0 0)
(0 0 0)
(0 0 0)
(0 0 0)
(0 0 0)
(0 0 0)
(0 0 0)
(0 0 0)
(0 0 0)
(0 0 0)
(0 0 0)
(0 0 0)
(0 0 0)
(0 0 0)
(0 0 0)
(0 0 0)
(0 0 0)
(0 0 0)
(0 0 0)
(0 0 0)
(0 0 0)
(0 0 0)
(0 0 0)
(0 0 0)
(0 0 0)
(0 0 0)
(0 0 0)
(0 0 0)
(0 0 0)
(0 0 0)
(0 0 0)
(0 0 0)
(0 0 0)
(0 0 0)
(0 0 0)
(0 0 0)
(0 0 0)
(0 0 0)
(0 0 0)
(0 0 0)
(0 0 0)
(0 0 0)
(0 0 0)
(0 0 0)
(0 0 0)
(0 0 0)
(0 0 0)
(0 0 0)
(0 0 0)
(0 0 0)
(0 0 0)
(0 0 0)
(0 0 0)
(0 0 0)
(0 0 0)
(0 0 0)
(0 0 0)
(0 0 0)
(0 0 0)
(0 0 0)
(0 0 0)
(0 0 0)
(0 0 0)
(0 0 0)
(0 0 0)
(0 0 0)
(0 0 0)
(0 0 0)
(0 0 0)
(0 0 0)
(0 0 0)
(0 0 0)
(0 0 0)
(0 0 0)
(0 0 0)
(0 0 0)
(0 0 0)
(0 0 0)
(0 0 0)
(0 0 0)
(0 0 0)
(0 0 0)
(0 0 0)
(0 0 0)
(0 0 0)
(0 0 0)
(0 0 0)
(0 0 0)
(0 0 0)
(0 0 0)
(0 0 0)
(0 0 0)
(0 0 0)
(0 0 0)
(0 0 0)
(0 0 0)
(0 0 0)
(0 0 0)
(0 0 0)
(0 0 0)
(0 0 0)
(0 0 0)
(0 0 0)
(0 0 0)
(0 0 0)
(0 0 0)
(0 0 0)
(0 0 0)
(0 0 0)
(0 0 0)
(0 0 0)
(0 0 0)
(0 0 0)
(0 0 0)
(0 0 0)
(0 0 0)
(0 0 0)
(0 0 0)
(0 0 0)
(0 0 0)
(0 0 0)
(0 0 0)
(0 0 0)
(0 0 0)
(0 0 0)
(0 0 0)
(0 0 0)
(0 0 0)
(0 0 0)
(0 0 0)
(0 0 0)
(0 0 0)
(0 0 0)
(0 0 0)
(0 0 0)
(0 0 0)
(0 0 0)
(0 0 0)
(0 0 0)
(0 0 0)
(0 0 0)
(0 0 0)
(0 0 0)
(0 0 0)
(0 0 0)
(0 0 0)
(0 0 0)
(0 0 0)
(0 0 0)
(0 0 0)
(0 0 0)
(0 0 0)
(0 0 0)
(0 0 0)
(0 0 0)
(0 0 0)
(0 0 0)
(0 0 0)
(0 0 0)
(0 0 0)
(0 0 0)
(0 0 0)
(0 0 0)
(0 0 0)
(0 0 0)
(0 0 0)
(0 0 0)
(0 0 0)
(0 0 0)
(0 0 0)
(0 0 0)
(0 0 0)
(0 0 0)
(0 0 0)
(0 0 0)
(-0.000507813 -0.00037852 0.000281538)
(-0.000342662 0.000270544 -0.000234324)
(0.00017546 0.00028984 -6.04563e-05)
(0.000291741 0.00035585 0.000206555)
(7.23678e-05 0.000806158 0.0002652)
(0.00027462 0.000395958 -4.75494e-05)
(0.00126527 0.000310758 -0.000358464)
(0.000561558 1.8e-05 -0.000445584)
(-0.000701118 7.45016e-05 -8.91283e-05)
(-0.000432651 -0.000489498 -0.00046131)
(-9.59562e-05 -0.000254858 0.000205989)
(-0.000376104 -0.000151604 -2.45166e-05)
(0.000256519 0.00103425 -0.00156938)
(9.24901e-06 0.000158426 -0.000174955)
(0.00010538 -7.46721e-05 -4.05504e-05)
(-0.000119065 0.00046359 -0.000137446)
(-0.000231787 0.000209123 7.73464e-05)
(-0.000152848 0.000193391 -0.000195611)
(0.000183209 -0.000109816 8.80837e-05)
(-0.000456318 -0.000195799 0.000313362)
(-0.000288977 -0.000248633 -0.000130423)
(-4.99649e-06 -9.8458e-05 -3.21343e-05)
(-0.000149202 0.000398233 -6.61877e-05)
(-4.10978e-05 0.000459211 -0.000142898)
(5.46338e-05 -6.32791e-05 0.000236362)
(-0.000106225 -0.00010248 -0.000136501)
(0.00027335 -2.90381e-06 -0.000255018)
(0.000246021 0.000886443 -0.00069592)
(-0.000238232 -0.000320573 0.000172179)
(-2.01711e-05 -3.70947e-05 -0.000314416)
(-3.20095e-05 0.000392909 -0.00100141)
(0.000203053 -0.000126843 0.000252639)
(0.000271272 -0.000745554 0.00594203)
(0.00201347 0.00119747 0.00878434)
(0.000850999 0.000944768 0.00568164)
(0.000880616 0.00228179 0.00574946)
(0.00107336 0.000679078 0.00596102)
(0.00169897 0.00121874 0.00489474)
(0.00172695 0.00163539 0.00665527)
(0.0014603 0.00174907 0.00543915)
(3.82251e-05 -0.000949263 0.00514766)
(0.000738031 -0.000519753 0.00524261)
(0.00134744 -1.38605e-05 0.00554866)
(0.00082271 -0.000207748 0.0063971)
(0.000767688 -6.88301e-05 0.00610589)
(0.000480831 0.000729334 0.00421439)
(0.000507981 0.000803739 0.00538194)
(0.00120103 0.000933644 0.00541983)
(0.00014209 -0.000152597 0.00410691)
(0.00127963 -0.000123711 0.00516405)
(0.000667855 -4.50898e-05 0.00627332)
(0.000238732 -0.000539924 0.00666584)
(0.000447788 0.00019352 0.00501552)
(-0.000898122 5.94633e-05 0.00460907)
(-0.000183274 -0.000169021 0.00397933)
(-0.000137759 0.000889526 0.00487693)
(-0.000259856 -0.000323773 0.00512719)
(0.00191235 4.01027e-05 0.00498957)
(0.000582653 0.000234091 0.00527504)
(0.000603471 0.000235277 0.00483437)
(0.00130256 0.000120688 0.00487041)
(-0.000210294 -0.000750121 0.00477961)
(0.000628074 -0.000100476 0.00408043)
(0.000352208 0.000474027 0.00466199)
(0.000673052 -0.000915899 0.00600402)
(0.000551102 -0.000275576 0.00599785)
(0.000538475 0.000462644 0.00607214)
(0.000896157 -0.000429489 0.00607217)
(0.0010192 0.000277857 0.00622512)
(0.00041746 7.1831e-06 0.00507148)
(-2.03892e-05 0.000774608 0.00547625)
(0.000205141 0.00106436 0.00526474)
(0.00134538 -0.000638417 0.00489101)
(0.000882675 7.97914e-05 0.00509892)
(0.000775496 0.000685302 0.00671947)
(0.000632463 -0.000695715 0.00732172)
(0.000881259 -0.00112234 0.00600761)
(0.000599998 -0.00041315 0.00482635)
(3.9604e-06 0.000673584 0.0055037)
(0.000415836 0.00107994 0.005545)
(0.00141444 -0.00030919 0.00505041)
(0.000470729 -0.000676011 0.00467562)
(0.000667556 -0.000557418 0.00547553)
(0.00116705 -4.36896e-05 0.0062502)
(0.000986076 0.000348429 0.00544266)
(0.00104264 -3.75365e-05 0.00448328)
(0.000865835 0.000304889 0.00525312)
(0.000652526 0.0007821 0.00651912)
(0.000777967 0.000493092 0.00481299)
(0.000394573 8.74252e-05 0.0039913)