# Probe 0 (0 0 0.0001)
# Probe 1 (0 0 0.0026)
# Probe 2 (0 0 0.0051)
# Probe 3 (0 0 0.0076)
# Probe 4 (0 0 0.0101)
# Probe 5 (0 0 0.0126)
# Probe 6 (0 0 0.0151)
# Probe 7 (0 0 0.0176)
# Probe 8 (0 0 0.0201)
# Probe 9 (0 0 0.0226)
# Probe 10 (0 0 0.0251)
# Probe 11 (0 0 0.0276)
# Probe 12 (0 0 0.0301)
# Probe 13 (0 0 0.0326)
# Probe 14 (0 0 0.0351)
# Probe 15 (0 0 0.0375)
# Probe 16 (0 0 0.0401)
# Probe 17 (0 0 0.0426)
# Probe 18 (0 0 0.0451)
# Probe 19 (0 0 0.0476)
# Probe 20 (0 0 0.0529)
# Time        0             1             2             3             4             5             6             7             8             9             10            11            12            13            14            15            16            17            18            19            20           
0.051         100016        100013        100010        100007        100003        100001        100000        100000        100000        100000        100000        100000        100000        100000        100000        100000        100000        100000        100000        100000        100000       
0.052         100016        100014        100010        100007        100003        100001        100000        100000        100000        100000        100000        100000        100000        100000        100000        100000        100000        100000        100000        100000        100000       
0.053         100016        100014        100010        100007        100003        100001        100000        100000        100000        100000        100000        100000        100000        100000        100000        100000        100000        100000        100000        100000        100000       
0.054         100016        100014        100011        100007        100003        100001        100000        100000        100000        100000        100000        100000        100000        100000        100000        100000        100000        100000        100000        100000        100000       
0.055         100017        100014        100011        100008        100003        100001        100000        100000        100000        100000        100000        100000        100000        100000        100000        100000        100000        100000        100000        100000        100000       
0.056         100017        100014        100011        100008        100004        100001        100000        100000        100000        100000        100000        100000        100000        100000        100000        100000        100000        100000        100000        100000        100000       
0.057         100017        100014        100011        100008        100004        100001        100000        100000        100000        100000        100000        100000        100000        100000        100000        100000        100000        100000        100000        100000        100000       
0.058         100017        100014        100011        100008        100004        100001        100000        100000        100000        100000        100000        100000        100000        100000        100000        100000        100000        100000        100000        100000        100000       
0.059         100017        100014        100011        100008        100004        100001        100000        100000        100000        100000        100000        100000        100000        100000        100000        100000        100000        100000        100000        100000        100000       
0.06          100017        100014        100011        100008        100004        100001        100000        100000        100000        100000        100000        100000        100000        100000        100000        100000        100000        100000        100000        100000        100000       
0.061         100017        100015        100011        100008        100004        100001        100000        100000        100000        100000        100000        100000        100000        100000        100000        100000        100000        100000        100000        100000        100000       
0.062         100017        100015        100011        100008        100004        100001        100000        100000        100000        100000        100000        100000        100000        100000        100000        100000        100000        100000        100000        100000        100000       
0.063         100017        100015        100011        100008        100004        100001        100000        100000        100000        100000        100000        100000        100000        100000        100000        100000        100000        100000        100000        100000        100000       
0.064         100017        100015        100011        100008        100004        100001        100000        100000        100000        100000        100000        100000        100000        100000        100000        100000        100000        100000        100000        100000        100000       
0.065         100017        100015        100011        100008        100004        100001        100000        100000        100000        100000        100000        100000        100000        100000        100000        100000        100000        100000        100000        100000        100000       
0.066         100017        100015        100011        100008        100004        100001        100000        100000        100000        100000        100000        100000        100000        100000        100000        100000        100000        100000        100000        100000        100000       
0.067         100017        100015        100011        100008        100004        100001        100000        100000        100000        100000        100000        100000        100000        100000        100000        100000        100000        100000        100000        100000        100000       
0.068         100017        100015        100012        100008        100004        100001        100000        100000        100000        100000        100000        100000        100000        100000        100000        100000        100000        100000        100000        100000        100000       
0.069         100017        100015        100012        100008        100004        100001        100000        100000        100000        100000        100000        100000        100000        100000        100000        100000        100000        100000        100000        100000        100000       
0.07          100017        100015        100012        100008        100004        100001        100000        100000        100000        100000        100000        100000        100000        100000        100000        100000        100000        100000        100000        100000        100000       
0.071         100017        100015        100012        100008        100004        100001        100000        100000        100000        100000        100000        100000        100000        100000        100000        100000        100000        100000        100000        100000        100000       
0.072         100018        100015        100012        100008        100004        100001        100000        100000        100000        100000        100000        100000        100000        100000        100000        100000        100000        100000        100000        100000        100000       
0.073         100018        100015        100012        100008        100004        100001        100000        100000        100000        100000        100000        100000        100000        100000        100000        100000        100000        100000        100000        100000        100000       
0.074         100017        100015        100012        100008        100004        100001        100000        100000        100000        100000        100000        100000        100000        100000        100000        100000        100000        100000        100000        100000        100000       
0.075         100017        100015        100012        100008        100004        100001        100000        100000        100000        100000        100000        100000        100000        100000        100000        100000        100000        100000        100000        100000        100000       
0.076         100017        100015        100012        100008        100004        100001        100000        100000        100000        100000        100000        100000        100000        100000        100000        100000        100000        100000        100000        100000        100000       
0.077         100017        100015        100012        100008        100004        100001        100000        100000        100000        100000        100000        100000        100000        100000        100000        100000        100000        100000        100000        100000        100000       
0.078         100017        100015        100012        100008        100004        100001        100000        100000        100000        100000        100000        100000        100000        100000        100000        100000        100000        100000        100000        100000        100000       
0.079         100017        100015        100012        100008        100004        100001        100000        100000        100000        100000        100000        100000        100000        100000        100000        100000        100000        100000        100000        100000        100000       
0.08          100017        100015        100012        100008        100004        100001        100000        100000        100000        100000        100000        100000        100000        100000        100000        100000        100000        100000        100000        100000        100000       
0.081         100017        100015        100012        100009        100004        100001        100000        100000        100000        100000        100000        100000        100000        100000        100000        100000        100000        100000        100000        100000        100000       
0.082         100017        100015        100012        100009        100004        100001        100000        100000        100000        100000        100000        100000        100000        100000        100000        100000        100000        100000        100000        100000        100000       
0.083         100017        100015        100012        100009        100004        100001        100000        100000        100000        100000        100000        100000        100000        100000        100000        100000        100000        100000        100000        100000        100000       
0.084         100017        100015        100012        100009        100004        100001        100000        100000        100000        100000        100000        100000        100000        100000        100000        100000        100000        100000        100000        100000        100000       
0.085         100017        100015        100012        100009        100004        100001        100000        100000        100000        100000        100000        100000        100000        100000        100000        100000        100000        100000        100000        100000        100000       
0.086         100017        100015        100012        100009        100004        100001        100000        100000        100000        100000        100000        100000        100000        100000        100000        100000        100000        100000        100000        100000        100000       
0.087         100017        100015        100012        100009        100004        100001        100000        100000        100000        100000        100000        100000        100000        100000        100000        100000        100000        100000        100000        100000        100000       
0.088         100017        100015        100012        100009        100004        100001        100000        100000        100000        100000        100000        100000        100000        100000        100000        100000        100000        100000        100000        100000        100000       
0.089         100017        100015        100012        100009        100004        100001        100000        100000        100000        100000        100000        100000        100000        100000        100000        100000        100000        100000        100000        100000        100000       
0.09          100017        100015        100012        100009        100004        100001        100000        100000        100000        100000        100000        100000        100000        100000        100000        100000        100000        100000        100000        100000        100000       
0.091         100017        100015        100012        100009        100004        100001        100000        100000        100000        100000        100000        100000        100000        100000        100000        100000        100000        100000        100000        100000        100000       
0.092         100017        100015        100012        100009        100004        100001        100000        100000        100000        100000        100000        100000        100000        100000        100000        100000        100000        100000        100000        100000        100000       
0.093         100017        100015        100012        100009        100004        100001        100000        100000        100000        100000        100000        100000        100000        100000        100000        100000        100000        100000        100000        100000        100000       
0.094         100017        100015        100013        100009        100004        100001        100000        100000        100000        100000        100000        100000        100000        100000        100000        100000        100000        100000        100000        100000        100000       
0.095         100017        100015        100013        100009        100004        100001        100000        100000        100000        100000        100000        100000        100000        100000        100000        100000        100000        100000        100000        100000        100000       
0.096         100017        100015        100013        100009        100004        100001        100000        100000        100000        100000        100000        100000        100000        100000        100000        100000        100000        100000        100000        100000        100000       
0.097         100017        100015        100013        100009        100004        100001        100000        100000        100000        100000        100000        100000        100000        100000        100000        100000        100000        100000        100000        100000        100000       
0.098         100017        100015        100013        100009        100004        100001        100000        100000        100000        100000        100000        100000        100000        100000        100000        100000        100000        100000        100000        100000        100000       
0.099         100017        100015        100013        100009        100004        100001        100000        100000        100000        100000        100000        100000        100000        100000        100000        100000        100000        100000        100000        100000        100000       
0.1           100017        100015        100013        100009        100004        100001        100000        100000        100000        100000        100000        100000        100000        100000        100000        100000        100000        100000        100000        100000        100000       
