# Probe 0 (0 0 0.0001)
# Probe 1 (0 0 0.0026)
# Probe 2 (0 0 0.0051)
# Probe 3 (0 0 0.0076)
# Probe 4 (0 0 0.0101)
# Probe 5 (0 0 0.0126)
# Probe 6 (0 0 0.0151)
# Probe 7 (0 0 0.0176)
# Probe 8 (0 0 0.0201)
# Probe 9 (0 0 0.0226)
# Probe 10 (0 0 0.0251)
# Probe 11 (0 0 0.0276)
# Probe 12 (0 0 0.0301)
# Probe 13 (0 0 0.0326)
# Probe 14 (0 0 0.0351)
# Probe 15 (0 0 0.0375)
# Probe 16 (0 0 0.0401)
# Probe 17 (0 0 0.0426)
# Probe 18 (0 0 0.0451)
# Probe 19 (0 0 0.0476)
# Probe 20 (0 0 0.0529)
# Time        0             1             2             3             4             5             6             7             8             9             10            11            12            13            14            15            16            17            18            19            20           
0.051         (-0.00090208 0.00211465 0.0272409) (0.00103984 -0.00179412 0.0254716) (0.00217434 -0.000990755 0.0448481) (0.000270872 0.000762008 0.0105903) (-0.0015341 -0.00100292 0.0266859) (-0.0041879 0.00228646 0.0256688) (-0.000373234 -0.000170676 0.014335) (0.000115201 -0.000334873 0.0192038) (0.000636741 -9.29218e-05 0.00556552) (0.000223644 -7.00469e-05 0.0116393) (9.01595e-05 -1.76802e-05 0.0104636) (3.10627e-05 -3.77084e-06 0.010955) (-3.06469e-06 4.12182e-08 0.0111547) (-6.16891e-06 -4.55637e-07 0.0111964) (-6.58699e-06 -8.892e-07 0.0112193) (-5.99115e-06 -1.17405e-06 0.0112319) (-5.04208e-06 -1.26867e-06 0.0112387) (-4.01493e-06 -1.17728e-06 0.0112425) (-3.03885e-06 -9.82183e-07 0.0112447) (-2.1758e-06 -7.56337e-07 0.0112461) (-8.96422e-07 -3.41288e-07 0.0112471)
0.052         (-0.000942898 0.00258775 0.0274069) (0.00104661 -0.00179785 0.0260175) (0.00221228 -0.00143492 0.0453983) (0.00041697 0.000664559 0.0107015) (-0.00178397 -0.00080728 0.0274573) (-0.00411302 0.00247523 0.0256815) (-0.000339721 -0.000155433 0.0144429) (8.57294e-05 -0.000373419 0.0206294) (0.000624965 -9.8238e-05 0.00598846) (0.000226304 -7.2647e-05 0.0117784) (9.04654e-05 -2.00967e-05 0.0106556) (3.0717e-05 -5.48536e-06 0.0111352) (-3.40678e-06 -5.35035e-07 0.011335) (-6.51706e-06 -8.78798e-07 0.0113765) (-6.82183e-06 -1.10976e-06 0.0113991) (-5.95005e-06 -1.06532e-06 0.0114113) (-4.77702e-06 -8.98427e-07 0.0114182) (-3.69216e-06 -7.35081e-07 0.0114221) (-2.78089e-06 -6.11342e-07 0.0114243) (-2.01449e-06 -4.91959e-07 0.0114258) (-8.44267e-07 -2.25551e-07 0.011427)
0.053         (-0.0010615 0.00257944 0.0277727) (0.00119868 -0.00198121 0.0263776) (0.00213734 -0.00142576 0.0460339) (0.000286514 0.00070583 0.0108542) (-0.00195542 -0.00081179 0.0279802) (-0.00419108 0.00256861 0.0260751) (-0.000196894 -3.23967e-05 0.0148213) (-1.05853e-05 -0.000428292 0.0215174) (0.000587853 -0.000119434 0.00624344) (0.000214897 -8.15883e-05 0.0119435) (8.27618e-05 -2.50441e-05 0.0108815) (2.52371e-05 -8.2778e-06 0.011351) (-6.55275e-06 -1.78396e-06 0.0115542) (-8.84257e-06 -1.70619e-06 0.0115966) (-8.56865e-06 -1.70433e-06 0.0116199) (-7.3404e-06 -1.5776e-06 0.0116328) (-5.91303e-06 -1.36507e-06 0.0116399) (-4.59431e-06 -1.12388e-06 0.0116439) (-3.46254e-06 -8.87376e-07 0.0116462) (-2.50622e-06 -6.66249e-07 0.0116476) (-1.04969e-06 -2.83004e-07 0.0116489)
0.054         (-0.001071 0.00265147 0.027957) (0.00105881 -0.00206667 0.0265845) (0.00198729 -0.00142798 0.0464123) (0.000218841 0.000735942 0.0110488) (-0.0020283 -0.000752338 0.0283168) (-0.00427959 0.0026985 0.0263467) (-0.000202935 -0.000218906 0.0149755) (3.04898e-05 -0.000435215 0.0220268) (0.000610754 -0.000118678 0.00632098) (0.000235237 -7.83324e-05 0.0120498) (9.59154e-05 -2.38958e-05 0.0110502) (3.41786e-05 -7.70068e-06 0.0115114) (-2.10298e-06 -1.58738e-06 0.0117201) (-5.81296e-06 -1.68739e-06 0.0117636) (-6.56639e-06 -1.80528e-06 0.0117875) (-6.01695e-06 -1.7055e-06 0.0118005) (-4.99774e-06 -1.44818e-06 0.0118078) (-3.92886e-06 -1.14193e-06 0.011812) (-2.97927e-06 -8.66452e-07 0.0118141) (-2.17568e-06 -6.44244e-07 0.0118152) (-9.44611e-07 -2.93795e-07 0.0118158)
0.055         (-0.00103287 0.00277317 0.0281721) (0.000892158 -0.00233634 0.0268417) (0.00168008 -0.0012322 0.0467599) (0.000169091 0.000499797 0.0111629) (-0.00191464 -0.000843105 0.0286564) (-0.0043406 0.00280276 0.0266678) (-0.00028755 -0.000227286 0.0150855) (9.07374e-06 -0.000477106 0.0224265) (0.000603031 -0.000137916 0.00637043) (0.000229885 -8.86559e-05 0.012163) (8.99867e-05 -3.07034e-05 0.0112123) (2.93997e-05 -1.21497e-05 0.0116647) (-4.73268e-06 -3.71357e-06 0.0118785) (-7.61411e-06 -3.14093e-06 0.0119229) (-7.75052e-06 -2.80371e-06 0.0119474) (-6.79235e-06 -2.42893e-06 0.0119609) (-5.52946e-06 -2.02426e-06 0.0119685) (-4.3035e-06 -1.62595e-06 0.0119729) (-3.22462e-06 -1.25661e-06 0.0119753) (-2.311e-06 -9.27088e-07 0.0119766) (-9.66809e-07 -3.9249e-07 0.0119775)
0.056         (-0.00115638 0.00272275 0.0282923) (0.000912963 -0.00258109 0.0271091) (0.00163597 -0.00137292 0.0474112) (0.000100475 0.000507071 0.0111913) (-0.00213726 -0.000876286 0.0309116) (-0.00424597 0.00272581 0.0257139) (-0.000360088 -0.000320739 0.0152531) (-2.05108e-05 -0.00051941 0.0225029) (0.000604624 -0.000153302 0.00639506) (0.000233253 -0.000104471 0.0122703) (9.10588e-05 -4.41412e-05 0.0113569) (2.98263e-05 -2.23352e-05 0.0118008) (-4.84925e-06 -9.48257e-06 0.0120188) (-7.73899e-06 -7.46324e-06 0.0120635) (-7.82777e-06 -6.01646e-06 0.0120881) (-6.8403e-06 -4.80875e-06 0.0121016) (-5.56887e-06 -3.77232e-06 0.0121091) (-4.33881e-06 -2.89089e-06 0.0121134) (-3.25822e-06 -2.14964e-06 0.0121158) (-2.34279e-06 -1.53633e-06 0.0121172) (-9.92103e-07 -6.15121e-07 0.0121184)
0.057         (-0.00123782 0.0027896 0.0282758) (0.000891356 -0.00288225 0.0272853) (0.00172971 -0.00150889 0.047975) (0.000209278 0.000464143 0.0112379) (-0.00219327 -0.000781948 0.0316781) (-0.00440657 0.00275726 0.0257197) (-0.000408239 -0.000280357 0.0156172) (-6.58449e-05 -0.000533187 0.0225856) (0.00060639 -0.00013836 0.00642563) (0.000242154 -9.44148e-05 0.0123618) (9.88179e-05 -3.71931e-05 0.0114756) (3.57708e-05 -1.73415e-05 0.0119119) (-1.87924e-06 -7.12171e-06 0.0121356) (-5.68386e-06 -5.87293e-06 0.0121815) (-6.43434e-06 -4.97633e-06 0.0122067) (-5.90961e-06 -4.15023e-06 0.0122206) (-4.94333e-06 -3.36267e-06 0.0122282) (-3.90711e-06 -2.63457e-06 0.0122326) (-2.94739e-06 -1.98424e-06 0.012235) (-2.11143e-06 -1.4253e-06 0.0122364) (-8.91787e-07 -5.75829e-07 0.0122374)
0.058         (-0.000768182 0.00297992 0.0285009) (0.000777395 -0.00304068 0.0276265) (0.00141259 -0.0012447 0.0482881) (0.000144766 0.000633362 0.0114329) (-0.00226602 -0.000711571 0.0319498) (-0.00437488 0.00292272 0.0258899) (-0.000520756 -0.000266625 0.0158437) (-5.92626e-05 -0.000577217 0.0228661) (0.000627322 -0.00016069 0.00650002) (0.000257212 -0.000107738 0.0124693) (0.000106914 -4.62341e-05 0.0115961) (4.06828e-05 -2.34163e-05 0.0120225) (3.23771e-07 -1.00266e-05 0.0122496) (-4.12438e-06 -7.90392e-06 0.0122962) (-5.30907e-06 -6.40684e-06 0.0123219) (-5.09904e-06 -5.17985e-06 0.0123359) (-4.36816e-06 -4.12706e-06 0.0123437) (-3.51177e-06 -3.21748e-06 0.012348) (-2.69079e-06 -2.43552e-06 0.0123504) (-1.95884e-06 -1.7715e-06 0.0123517) (-8.52575e-07 -7.2721e-07 0.0123528)
0.059         (-0.00113309 0.00321023 0.0275409) (0.000902027 -0.00329509 0.0319007) (0.00139414 -0.000734684 0.0416171) (-6.25031e-05 0.000717103 0.0116379) (-0.00232593 -0.000619845 0.0315288) (-0.00397346 0.00258451 0.0263556) (-0.000687765 -0.000191508 0.015974) (-4.50823e-05 -0.000586868 0.0231712) (0.000655973 -0.000169708 0.0065592) (0.000273583 -0.000115221 0.0125552) (0.000115357 -5.13646e-05 0.0116893) (4.56203e-05 -2.66165e-05 0.0121063) (2.01227e-06 -1.16273e-05 0.0123372) (-3.10149e-06 -8.99851e-06 0.0123844) (-4.59299e-06 -7.01381e-06 0.0124104) (-4.57756e-06 -5.43859e-06 0.0124248) (-4.01661e-06 -4.19523e-06 0.012433) (-3.29252e-06 -3.18706e-06 0.0124377) (-2.55453e-06 -2.34748e-06 0.0124403) (-1.87122e-06 -1.6557e-06 0.0124417) (-8.26329e-07 -6.50326e-07 0.0124428)
0.06          (-0.00110663 0.00349582 0.027532) (0.00107668 -0.0031975 0.0331702) (0.00162215 -0.00100751 0.0412008) (3.29321e-05 0.000672723 0.0120337) (-0.00237629 -0.000677637 0.0317858) (-0.0037113 0.00255115 0.0252257) (-0.000793803 4.80464e-05 0.016164) (-7.07035e-05 -0.000556426 0.0230606) (0.000689173 -0.000163843 0.0066615) (0.000297581 -0.000115279 0.0127023) (0.000130075 -5.16434e-05 0.0118434) (5.52441e-05 -2.66926e-05 0.0122545) (6.66122e-06 -1.15299e-05 0.0124901) (2.92042e-07 -8.92582e-06 0.0125382) (-2.11627e-06 -7.08539e-06 0.0125648) (-2.68008e-06 -5.54299e-06 0.0125794) (-2.43791e-06 -4.20415e-06 0.0125874) (-1.93656e-06 -3.08909e-06 0.0125918) (-1.43227e-06 -2.20943e-06 0.0125942) (-1.00617e-06 -1.53351e-06 0.0125956) (-4.6274e-07 -5.96198e-07 0.0125967)
0.061         (-0.000796018 0.00346526 0.027808) (0.000964417 -0.00307391 0.0337701) (0.00161949 -0.000900408 0.0411552) (5.87209e-05 0.000617176 0.0122908) (-0.002266 -0.000563601 0.0324211) (-0.00371298 0.00249873 0.0252492) (-0.000830722 0.000120217 0.0164283) (-0.000123145 -0.000549426 0.0234594) (0.000713097 -0.000186012 0.00685322) (0.000311997 -0.00013115 0.0129045) (0.000137209 -6.11599e-05 0.012056) (5.87558e-05 -3.27129e-05 0.0124637) (7.49853e-06 -1.41393e-05 0.0127057) (6.88617e-07 -1.06892e-05 0.0127549) (-2.02502e-06 -8.35497e-06 0.0127821) (-2.89349e-06 -6.62201e-06 0.012797) (-2.89394e-06 -5.24247e-06 0.0128054) (-2.46998e-06 -4.05697e-06 0.0128103) (-1.87996e-06 -3.01017e-06 0.0128131) (-1.29977e-06 -2.10144e-06 0.0128145) (-5.37003e-07 -7.67858e-07 0.0128151)
0.062         (-0.000661817 0.00359078 0.0277012) (0.00112029 -0.00309195 0.0342102) (0.00211341 -0.000882922 0.0413595) (0.00010622 0.000543092 0.0126883) (-0.00232549 -0.000504711 0.0331225) (-0.00364763 0.00255432 0.0254426) (-0.000862347 0.000176966 0.0167535) (-0.00015994 -0.000512153 0.0233651) (0.000743249 -0.000190827 0.00696541) (0.000326787 -0.000139166 0.0130557) (0.000143961 -6.56528e-05 0.0122203) (6.21892e-05 -3.46391e-05 0.0126259) (8.71433e-06 -1.41138e-05 0.012874) (1.49957e-06 -1.05383e-05 0.0129242) (-1.4171e-06 -8.21996e-06 0.012952) (-2.36611e-06 -6.5137e-06 0.0129673) (-2.43194e-06 -5.15232e-06 0.0129757) (-2.13283e-06 -4.01742e-06 0.0129804) (-1.71533e-06 -3.0619e-06 0.0129829) (-1.29266e-06 -2.25299e-06 0.0129843) (-6.34487e-07 -9.51598e-07 0.0129853)
0.063         (-0.000738977 0.00332287 0.027781) (0.00109525 -0.00245229 0.0345633) (0.00252563 -0.000658456 0.0418697) (0.000136038 0.000490525 0.0130093) (-0.00260351 -0.000686864 0.0334544) (-0.00347199 0.00231216 0.0257581) (-0.000605319 0.000138432 0.0171466) (-0.000233329 -0.000464169 0.0231723) (0.000760784 -0.000192552 0.00712902) (0.000336812 -0.000140133 0.0132022) (0.000148771 -6.52162e-05 0.0123731) (6.48682e-05 -3.34117e-05 0.0127746) (9.60586e-06 -1.28305e-05 0.0130261) (1.94468e-06 -9.54643e-06 0.0130769) (-1.22521e-06 -7.46791e-06 0.013105) (-2.29266e-06 -5.91439e-06 0.0131205) (-2.40766e-06 -4.63684e-06 0.013129) (-2.12577e-06 -3.56341e-06 0.0131337) (-1.70969e-06 -2.67021e-06 0.0131363) (-1.28793e-06 -1.939e-06 0.0131379) (-6.35847e-07 -8.13711e-07 0.0131395)
0.064         (-0.000952589 0.00325618 0.0279804) (0.00158597 -0.00294718 0.03465) (0.00282097 -3.16153e-05 0.0423894) (0.000111974 0.000519401 0.0137052) (-0.003012 -0.00120406 0.0340773) (-0.00369435 0.00256673 0.0279013) (-0.000599126 -2.14645e-05 0.0168597) (-0.000354671 -0.000418644 0.0229598) (0.000753789 -0.000195431 0.00737569) (0.000332682 -0.000136253 0.0134076) (0.000144558 -6.15074e-05 0.0125906) (6.06333e-05 -3.05827e-05 0.0129896) (6.6669e-06 -1.10296e-05 0.0132449) (-3.03362e-07 -8.01484e-06 0.0132963) (-2.98883e-06 -6.2166e-06 0.0133248) (-3.71711e-06 -4.9317e-06 0.0133405) (-3.57051e-06 -3.87082e-06 0.0133492) (-3.07682e-06 -2.94043e-06 0.0133541) (-2.4831e-06 -2.15238e-06 0.0133569) (-1.8883e-06 -1.52803e-06 0.0133585) (-8.78147e-07 -6.48646e-07 0.0133598)
0.065         (-0.000760355 0.0035734 0.0280199) (0.0015496 -0.00300589 0.0351726) (0.00298433 -0.000103813 0.0431509) (-3.47695e-05 0.000421049 0.0140751) (-0.00307726 -0.00139329 0.0345866) (-0.00383635 0.00234426 0.0288319) (-0.000697927 -0.000304764 0.0167098) (-0.000424231 -0.000367335 0.0225176) (0.000769897 -0.000185066 0.00763663) (0.00033688 -0.000129667 0.0136043) (0.000142021 -5.83733e-05 0.0128019) (5.6273e-05 -2.8258e-05 0.0131978) (2.74603e-06 -9.76045e-06 0.0134564) (-3.47383e-06 -7.21764e-06 0.0135079) (-5.38031e-06 -5.70486e-06 0.0135365) (-5.44808e-06 -4.57112e-06 0.0135522) (-4.77667e-06 -3.6131e-06 0.0135611) (-3.87489e-06 -2.7815e-06 0.0135661) (-2.97049e-06 -2.06932e-06 0.0135688) (-2.16009e-06 -1.4726e-06 0.0135703) (-9.52028e-07 -5.98091e-07 0.0135713)
0.066         (-0.00106971 0.00377926 0.0277598) (0.0012888 -0.00286484 0.0354809) (0.00289394 -0.000105433 0.0428397) (-3.25623e-05 0.000338871 0.0140902) (-0.00222584 -0.00114508 0.0273182) (-0.00366277 0.00187189 0.028392) (-0.00029023 -0.000136738 0.0172966) (-0.000520667 -0.000287322 0.0218235) (0.000803701 -0.00015751 0.00786888) (0.000363719 -0.000114226 0.0137607) (0.000157761 -4.92669e-05 0.0129897) (6.56462e-05 -2.17473e-05 0.0133887) (6.44884e-06 -5.89833e-06 0.0136536) (-1.01395e-06 -4.23693e-06 0.0137062) (-3.71005e-06 -3.41958e-06 0.0137352) (-4.31274e-06 -2.83976e-06 0.013751) (-4.04435e-06 -2.32603e-06 0.0137598) (-3.46475e-06 -1.8561e-06 0.0137648) (-2.80473e-06 -1.43804e-06 0.0137675) (-2.14905e-06 -1.0729e-06 0.0137691) (-1.01519e-06 -4.90208e-07 0.0137702)
0.067         (-0.00102478 0.00351523 0.0284912) (0.00143533 -0.00278139 0.036422) (0.00301281 -0.000264593 0.0440649) (0.00026465 0.000381327 0.0153635) (-0.0029291 -0.00154608 0.0341649) (-0.00376029 0.00202622 0.0297901) (-0.000209556 -7.42454e-06 0.0186859) (-0.000663482 -0.000271325 0.0217378) (0.000814652 -0.00015607 0.00818571) (0.000375161 -0.000110318 0.013917) (0.000163001 -4.65689e-05 0.0131733) (6.76043e-05 -1.94345e-05 0.0135723) (6.05663e-06 -4.63793e-06 0.0138411) (-1.51822e-06 -3.3306e-06 0.0138941) (-4.1251e-06 -2.75036e-06 0.0139236) (-4.63097e-06 -2.3854e-06 0.0139399) (-4.28164e-06 -2.0637e-06 0.0139489) (-3.62244e-06 -1.73587e-06 0.0139538) (-2.89538e-06 -1.40986e-06 0.0139566) (-2.19605e-06 -1.09505e-06 0.0139581) (-1.02965e-06 -5.24942e-07 0.0139592)
0.068         (-0.00125276 0.00363639 0.0280944) (0.00105371 -0.00228942 0.0372872) (0.00332865 -0.000192433 0.0437426) (0.000683006 0.000467583 0.0178581) (-0.00279631 -0.00135455 0.0309424) (-0.00365927 0.00172084 0.0300476) (-6.82438e-05 -0.000190887 0.0188456) (-0.000723659 -0.000284864 0.0214293) (0.000865197 -0.000191088 0.00845868) (0.000398265 -0.00013662 0.014058) (0.000172674 -6.69248e-05 0.0133646) (7.15675e-05 -3.44554e-05 0.0137728) (6.65893e-06 -1.2559e-05 0.0140534) (-1.38651e-06 -9.18725e-06 0.0141085) (-4.18456e-06 -7.08657e-06 0.0141392) (-4.69252e-06 -5.52562e-06 0.0141562) (-4.28179e-06 -4.28157e-06 0.0141658) (-3.56858e-06 -3.26634e-06 0.0141713) (-2.80355e-06 -2.4249e-06 0.0141744) (-2.08366e-06 -1.72184e-06 0.0141762) (-9.5421e-07 -6.90038e-07 0.0141776)
0.069         (-0.00138158 0.00342619 0.0279635) (0.0011724 -0.00216996 0.0376216) (0.00331627 0.000130821 0.0433463) (0.000592443 0.000614785 0.018838) (-0.00175636 -0.00104665 0.0244428) (-0.00367243 0.00158358 0.0296246) (-9.64355e-05 -0.000273066 0.0187) (-0.000870677 -0.000270572 0.0207764) (0.000905431 -0.000189882 0.00873357) (0.00040567 -0.00013515 0.014161) (0.000167337 -6.7891e-05 0.0135109) (6.40216e-05 -3.57629e-05 0.0139242) (8.22622e-07 -1.32389e-05 0.0142124) (-5.93753e-06 -9.56675e-06 0.0142689) (-7.65617e-06 -7.27927e-06 0.0143002) (-7.35482e-06 -5.62923e-06 0.0143175) (-6.33571e-06 -4.32716e-06 0.0143272) (-5.1376e-06 -3.24341e-06 0.0143327) (-3.974e-06 -2.34726e-06 0.0143357) (-2.92919e-06 -1.6291e-06 0.0143375) (-1.29277e-06 -6.47792e-07 0.0143389)
0.07          (-0.00142789 0.00349734 0.0280086) (0.00170027 -0.0018754 0.039014) (0.00289689 0.000166747 0.0433374) (0.000165855 0.000471081 0.0202131) (-0.00144838 -0.00104792 0.0245235) (-0.00389207 0.00181121 0.0302008) (-0.000119129 -0.000374918 0.019214) (-0.00101674 -0.000212325 0.0202471) (0.00100023 -0.000174464 0.00907885) (0.000440983 -0.000122364 0.014284) (0.000176462 -6.00103e-05 0.0136825) (6.49834e-05 -3.06041e-05 0.0141025) (-1.59104e-06 -1.10956e-05 0.0144003) (-8.38307e-06 -8.40265e-06 0.0144584) (-9.76429e-06 -6.71669e-06 0.0144908) (-8.9494e-06 -5.37875e-06 0.0145088) (-7.43829e-06 -4.25476e-06 0.014519) (-5.88814e-06 -3.30896e-06 0.0145248) (-4.50954e-06 -2.50954e-06 0.0145279) (-3.32018e-06 -1.82482e-06 0.0145297) (-1.44388e-06 -7.6277e-07 0.0145312)
0.071         (-0.00170083 0.00357741 0.0280276) (0.00168156 -0.00157608 0.0395757) (0.00299497 -0.000105818 0.0436583) (0.000343133 0.000434446 0.0209235) (-0.00134814 -0.00106679 0.0250236) (-0.00405442 0.00183014 0.0309997) (-0.000190538 -0.000417504 0.0196202) (-0.00121649 -0.000195793 0.0198455) (0.00113937 -0.000187139 0.00946728) (0.000498335 -0.000123 0.0144295) (0.000197913 -5.86921e-05 0.0138896) (7.38328e-05 -2.89035e-05 0.0143186) (-7.50969e-08 -9.74605e-06 0.0146271) (-7.57357e-06 -7.20514e-06 0.0146873) (-9.31451e-06 -5.73299e-06 0.0147207) (-8.77494e-06 -4.69863e-06 0.0147392) (-7.44315e-06 -3.7974e-06 0.0147495) (-5.95487e-06 -2.97617e-06 0.0147552) (-4.57381e-06 -2.2555e-06 0.0147585) (-3.38137e-06 -1.65247e-06 0.0147604) (-1.51865e-06 -7.41932e-07 0.0147625)
0.072         (-0.00174076 0.0032125 0.0284424) (0.00189606 -0.00165169 0.0397852) (0.00308836 -6.15578e-05 0.0437784) (0.000254442 0.000528747 0.0215716) (-0.001237 -0.00111219 0.0255879) (-0.00405252 0.00198328 0.0317303) (-0.000110066 -0.000377567 0.0204216) (-0.00143081 -0.000197349 0.0189932) (0.00130934 -0.000213087 0.00987768) (0.00056593 -0.000135812 0.0145576) (0.000226185 -6.69817e-05 0.0140827) (8.75011e-05 -3.43812e-05 0.0145223) (3.80305e-06 -1.21986e-05 0.014843) (-5.26163e-06 -8.7992e-06 0.0149053) (-7.78182e-06 -6.75636e-06 0.0149398) (-7.63601e-06 -5.29096e-06 0.0149587) (-6.55341e-06 -4.12879e-06 0.0149692) (-5.26687e-06 -3.17406e-06 0.0149751) (-4.04365e-06 -2.3893e-06 0.0149785) (-2.96225e-06 -1.73649e-06 0.0149804) (-1.29868e-06 -7.37446e-07 0.0149821)
0.073         (-0.00185377 0.00320832 0.0285105) (0.00234215 -0.00159276 0.0398837) (0.00311908 1.52861e-05 0.0425038) (0.000218818 0.000585487 0.022129) (-0.00116184 -0.00119037 0.0261531) (-0.00424125 0.00226621 0.0323854) (-8.67583e-06 -0.000572996 0.0209845) (-0.00160928 -0.000217336 0.0185682) (0.0014529 -0.000243339 0.0102794) (0.000619003 -0.000143855 0.0146449) (0.000247422 -6.81107e-05 0.0142382) (9.73671e-05 -3.31798e-05 0.0146867) (6.44914e-06 -1.04029e-05 0.0150182) (-3.77119e-06 -7.32573e-06 0.0150825) (-6.93219e-06 -5.63112e-06 0.0151181) (-7.15273e-06 -4.46461e-06 0.0151377) (-6.26117e-06 -3.52772e-06 0.0151484) (-5.06975e-06 -2.7253e-06 0.0151544) (-3.90633e-06 -2.03591e-06 0.0151578) (-2.87065e-06 -1.45309e-06 0.0151598) (-1.26461e-06 -6.08292e-07 0.0151615)
0.074         (-0.00171203 0.00361754 0.0287999) (0.00222501 -0.00160665 0.0420231) (0.00312192 -0.0002557 0.0432195) (0.000387088 0.000466614 0.0230659) (-0.00136016 -0.00107713 0.0267129) (-0.00472537 0.00282384 0.035291) (0.000366106 -0.000411348 0.0219139) (-0.00178897 -0.000227891 0.0188524) (0.0015759 -0.000285207 0.0107072) (0.000664864 -0.000159952 0.0147499) (0.000262956 -7.4442e-05 0.0144133) (0.000102746 -3.63732e-05 0.0148703) (6.06896e-06 -1.18981e-05 0.0152135) (-4.50952e-06 -8.46507e-06 0.0152798) (-7.70275e-06 -6.53912e-06 0.0153166) (-7.9554e-06 -5.27831e-06 0.0153369) (-7.07993e-06 -4.28239e-06 0.0153483) (-5.79321e-06 -3.3582e-06 0.0153547) (-4.44766e-06 -2.50125e-06 0.0153583) (-3.26118e-06 -1.79263e-06 0.0153602) (-1.45101e-06 -7.71943e-07 0.0153619)
0.075         (-0.00140954 0.00360242 0.0288064) (0.00177819 -0.00159406 0.0425632) (0.00296016 -0.00019945 0.0443704) (0.000450791 0.000558086 0.0234206) (-0.00155674 -0.00106358 0.0271284) (-0.00464595 0.00265563 0.035855) (0.000445631 -0.000442393 0.0221643) (-0.00185943 -0.000222499 0.0187012) (0.00170033 -0.000357709 0.0110398) (0.000715196 -0.000198632 0.0148109) (0.000283075 -9.47754e-05 0.0145499) (0.000111654 -4.854e-05 0.0150153) (7.96021e-06 -1.72081e-05 0.0153689) (-3.6518e-06 -1.22701e-05 0.0154375) (-7.30044e-06 -9.29151e-06 0.0154755) (-7.64846e-06 -7.17556e-06 0.0154964) (-6.74712e-06 -5.52061e-06 0.0155078) (-5.48845e-06 -4.17294e-06 0.0155142) (-4.23968e-06 -3.06971e-06 0.0155177) (-3.12824e-06 -2.17315e-06 0.0155198) (-1.3984e-06 -8.87193e-07 0.0155218)
0.076         (-0.0013561 0.00335494 0.0288005) (0.00199075 -0.00213313 0.0430835) (0.0031617 0.00020174 0.0447078) (0.000548521 0.000608614 0.0233345) (-0.00173909 -0.00106529 0.02955) (-0.00455963 0.00264692 0.0350477) (0.000402077 -0.000240286 0.0225603) (-0.00190483 -0.000198186 0.0182684) (0.00174031 -0.000419353 0.0114211) (0.000739597 -0.000221288 0.0149327) (0.000293141 -9.95972e-05 0.0147351) (0.000115557 -4.74084e-05 0.0152048) (8.27214e-06 -1.41708e-05 0.0155666) (-3.73506e-06 -9.55383e-06 0.0156369) (-7.47997e-06 -6.99563e-06 0.015676) (-7.80701e-06 -5.30892e-06 0.0156976) (-6.85402e-06 -4.04944e-06 0.0157097) (-5.53104e-06 -3.03331e-06 0.0157166) (-4.21051e-06 -2.19839e-06 0.0157204) (-3.04185e-06 -1.53218e-06 0.0157226) (-1.3178e-06 -6.46692e-07 0.0157243)
0.077         (0.000291876 0.00307028 0.0284095) (0.00108414 -0.00222109 0.0436014) (0.00328042 0.000450192 0.0457778) (0.000528367 0.00108767 0.0243068) (-0.00195026 -0.00101745 0.0310226) (-0.00434232 0.00287962 0.0339332) (0.000702026 -7.44471e-05 0.0228376) (-0.00201642 -0.000128509 0.0178318) (0.00176984 -0.000481141 0.0117905) (0.000769364 -0.000252582 0.015057) (0.000308745 -0.000114126 0.014923) (0.000124252 -5.47756e-05 0.0153989) (1.11185e-05 -1.67724e-05 0.015771) (-2.02869e-06 -1.1406e-05 0.0158433) (-6.47508e-06 -8.42036e-06 0.0158833) (-7.24477e-06 -6.43202e-06 0.0159053) (-6.56934e-06 -4.94497e-06 0.0159176) (-5.42969e-06 -3.76594e-06 0.0159245) (-4.23256e-06 -2.81097e-06 0.0159284) (-3.13217e-06 -2.02961e-06 0.0159306) (-1.39958e-06 -8.7113e-07 0.0159326)
0.078         (0.000171504 0.00381508 0.0285895) (0.00099382 -0.00223864 0.043813) (0.00292265 0.000255928 0.0465179) (0.000469968 0.000949956 0.0245054) (-0.00189101 -0.000762816 0.0315058) (-0.00415515 0.00308044 0.0376062) (0.000826905 0.00020079 0.0241864) (-0.00205592 -0.000184937 0.0184573) (0.00189227 -0.000579689 0.0122838) (0.00082059 -0.000299738 0.015214) (0.000324897 -0.000136703 0.015124) (0.000129837 -6.67445e-05 0.0155995) (1.14081e-05 -2.12871e-05 0.015977) (-2.15142e-06 -1.45198e-05 0.0160506) (-6.64987e-06 -1.06388e-05 0.0160914) (-7.35896e-06 -8.03971e-06 0.016114) (-6.60381e-06 -6.11552e-06 0.0161266) (-5.39286e-06 -4.60646e-06 0.0161338) (-4.14471e-06 -3.39652e-06 0.016138) (-3.02507e-06 -2.42159e-06 0.0161402) (-1.34686e-06 -1.01003e-06 0.0161421)
0.079         (-5.45951e-05 0.0041404 0.0285191) (0.0010232 -0.00206585 0.0440072) (0.00284037 0.000374371 0.0470105) (0.00035926 0.00118132 0.0245214) (-0.00186444 -0.000718597 0.0337171) (-0.00411662 0.0030982 0.0372937) (0.000999173 0.000111275 0.0247634) (-0.00229605 -0.000101089 0.0185317) (0.00196945 -0.000633516 0.0126728) (0.000852574 -0.000330341 0.0153125) (0.000328761 -0.000149918 0.015279) (0.000127175 -7.29329e-05 0.0157619) (7.19973e-06 -2.3117e-05 0.0161504) (-5.71875e-06 -1.57504e-05 0.0162269) (-9.54038e-06 -1.1618e-05 0.0162694) (-9.61286e-06 -8.858e-06 0.016293) (-8.31142e-06 -6.80992e-06 0.0163062) (-6.66976e-06 -5.21827e-06 0.0163136) (-5.09358e-06 -3.94953e-06 0.0163178) (-3.70551e-06 -2.89977e-06 0.0163202) (-1.59586e-06 -1.24609e-06 0.0163221)
0.08          (-0.000299128 0.00411417 0.02826) (0.000701149 -0.00171728 0.0438741) (0.00310057 -9.53231e-05 0.0482316) (0.000368741 0.000815441 0.0244799) (-0.00176744 -0.000603776 0.0344543) (-0.00425319 0.00242232 0.0376137) (0.000826092 -5.62494e-05 0.0258437) (-0.00255793 5.70854e-05 0.0185722) (0.00210957 -0.000667371 0.0131285) (0.00091971 -0.000357309 0.0154372) (0.000356413 -0.000165595 0.0154538) (0.000141486 -8.27708e-05 0.0159425) (1.20906e-05 -2.77716e-05 0.0163405) (-2.631e-06 -1.91783e-05 0.0164191) (-7.44383e-06 -1.40903e-05 0.0164627) (-8.15e-06 -1.06243e-05 0.0164869) (-7.34338e-06 -8.09757e-06 0.0165004) (-6.07916e-06 -6.1702e-06 0.016508) (-4.74195e-06 -4.63363e-06 0.0165124) (-3.49137e-06 -3.3723e-06 0.0165149) (-1.53533e-06 -1.43328e-06 0.0165169)
0.081         (-7.66394e-05 0.00406347 0.0287667) (0.000802354 -0.00207093 0.0442207) (0.00318072 -0.000196235 0.0543681) (0.000465911 0.000797568 0.023081) (-0.00166293 -0.00059003 0.0352853) (-0.00457712 0.00238341 0.0383472) (0.000968612 -6.62666e-05 0.0267792) (-0.00280947 0.000188896 0.0185577) (0.00231256 -0.000684327 0.0135781) (0.00100724 -0.000369147 0.0155281) (0.000394766 -0.000170303 0.0156002) (0.000161366 -8.49649e-05 0.0160966) (1.94903e-05 -2.84578e-05 0.0165032) (2.38596e-06 -1.95331e-05 0.0165839) (-3.90984e-06 -1.42495e-05 0.0166288) (-5.59797e-06 -1.06637e-05 0.0166538) (-5.43311e-06 -8.02293e-06 0.0166679) (-4.60904e-06 -5.98751e-06 0.0166759) (-3.62853e-06 -4.38394e-06 0.0166804) (-2.68457e-06 -3.09802e-06 0.0166829) (-1.21496e-06 -1.24983e-06 0.0166847)
0.082         (0.00011581 0.00380906 0.0289164) (0.000537529 -0.00152444 0.0436383) (0.00357941 -0.000323354 0.0574779) (0.000651172 0.000754918 0.0230279) (-0.0019972 -0.000437405 0.0344698) (-0.00461517 0.00254262 0.0385443) (0.000882697 -0.000131117 0.0271369) (-0.00291102 0.000191121 0.0183496) (0.00250016 -0.00075673 0.0139895) (0.0010687 -0.000409969 0.0156158) (0.000412665 -0.000192764 0.0157547) (0.000165506 -9.92034e-05 0.0162624) (1.77483e-05 -3.55283e-05 0.0166819) (4.02129e-07 -2.47433e-05 0.0167659) (-5.81554e-06 -1.82027e-05 0.0168129) (-7.30468e-06 -1.37099e-05 0.016839) (-6.87444e-06 -1.03686e-05 0.0168535) (-5.77976e-06 -7.78959e-06 0.0168616) (-4.55121e-06 -5.76456e-06 0.0168661) (-3.38765e-06 -4.14107e-06 0.0168686) (-1.51674e-06 -1.69819e-06 0.0168708)
0.083         (0.000110225 0.00376556 0.0282669) (-3.46274e-05 -0.00147802 0.0431425) (0.0028095 -0.00110847 0.058562) (0.000829792 0.000802983 0.023971) (-0.00157348 -0.000330803 0.0352694) (-0.00459981 0.00273802 0.0391208) (0.000897127 -0.00017608 0.0275593) (-0.00311481 0.000340749 0.0178548) (0.00264087 -0.000778702 0.014402) (0.00114556 -0.000427787 0.0157282) (0.000449484 -0.000202214 0.0159241) (0.000185546 -0.000105426 0.0164394) (2.48508e-05 -3.88803e-05 0.0168694) (4.94117e-06 -2.73201e-05 0.0169557) (-2.80617e-06 -2.01425e-05 0.0170039) (-5.32714e-06 -1.51667e-05 0.0170307) (-5.6133e-06 -1.14473e-05 0.0170456) (-4.99587e-06 -8.5642e-06 0.0170539) (-4.07739e-06 -6.30246e-06 0.0170586) (-3.12027e-06 -4.50687e-06 0.0170613) (-1.4721e-06 -1.84753e-06 0.0170637)
0.084         (0.000217436 0.00407904 0.0277966) (0.000337662 -0.00146072 0.0433684) (0.00318688 -0.00170024 0.0592007) (0.000921661 0.00103821 0.0245582) (-0.00133903 -0.000121737 0.0359068) (-0.00529918 0.00284459 0.0395544) (0.00101204 -0.000149643 0.0282766) (-0.00331918 0.000353725 0.0175752) (0.00265323 -0.000848886 0.0147974) (0.00116165 -0.000450305 0.0158377) (0.000458452 -0.000203218 0.016095) (0.000189666 -0.000100592 0.0166183) (2.53178e-05 -3.39761e-05 0.0170573) (4.79909e-06 -2.35006e-05 0.017146) (-3.14728e-06 -1.73105e-05 0.0171954) (-5.57208e-06 -1.30734e-05 0.0172228) (-5.68962e-06 -9.93356e-06 0.0172381) (-4.94237e-06 -7.51538e-06 0.0172467) (-3.94241e-06 -5.59923e-06 0.0172516) (-2.9433e-06 -4.04377e-06 0.0172544) (-1.34606e-06 -1.68878e-06 0.0172569)
0.085         (0.000452481 0.0040885 0.0280842) (0.000393403 -0.00111222 0.0433602) (0.00281192 -0.00182393 0.0595028) (0.000927949 0.000853497 0.02525) (-0.00147782 0.00018967 0.0370199) (-0.00533801 0.00198521 0.0391423) (0.00112462 -0.000114279 0.0288376) (-0.00336755 0.000369171 0.0169376) (0.00271746 -0.000938043 0.0151016) (0.00119631 -0.000494069 0.015916) (0.000476084 -0.000221268 0.0162404) (0.000199461 -0.00010901 0.0167758) (2.88416e-05 -3.68268e-05 0.0172269) (7.1899e-06 -2.53622e-05 0.017318) (-1.43375e-06 -1.86158e-05 0.0173684) (-4.34398e-06 -1.40607e-05 0.0173962) (-4.79825e-06 -1.06766e-05 0.0174119) (-4.28152e-06 -8.04396e-06 0.0174209) (-3.44985e-06 -5.93716e-06 0.0174261) (-2.5903e-06 -4.22215e-06 0.017429) (-1.24884e-06 -1.72172e-06 0.017431)
0.086         (0.00032824 0.00368922 0.0274109) (0.000454745 -0.00127332 0.0462085) (0.00248912 -0.00173628 0.0544611) (0.000825449 0.000900693 0.026192) (-0.00150508 4.81902e-05 0.0365569) (-0.00464798 0.00198539 0.0392508) (0.00111003 -0.000174461 0.0293041) (-0.00378669 0.0005165 0.0164251) (0.00283499 -0.00099104 0.0154899) (0.001242 -0.000525446 0.0160229) (0.000485748 -0.000236384 0.0164069) (0.000198832 -0.000116907 0.0169605) (2.5155e-05 -3.95972e-05 0.0174293) (3.80756e-06 -2.72694e-05 0.0175242) (-4.21856e-06 -1.99024e-05 0.0175771) (-6.46094e-06 -1.48485e-05 0.0176065) (-6.33338e-06 -1.11082e-05 0.017623) (-5.37848e-06 -8.27071e-06 0.0176324) (-4.24241e-06 -6.09267e-06 0.0176377) (-3.15519e-06 -4.37863e-06 0.0176407) (-1.42968e-06 -1.82591e-06 0.0176433)
0.087         (0.000591744 0.00349708 0.0266726) (0.000304897 -0.000338078 0.0502305) (0.00234426 -0.00137279 0.0538136) (0.0010648 0.00038673 0.0266843) (-0.000918012 -1.19397e-06 0.0372714) (-0.00465853 0.0019771 0.0377361) (0.00123183 -6.43282e-05 0.0297091) (-0.00376773 0.000568329 0.0152508) (0.00268805 -0.00108569 0.0157018) (0.00119431 -0.00057981 0.0161132) (0.000468391 -0.00026563 0.0165702) (0.000190245 -0.000134626 0.0171356) (2.0939e-05 -4.78974e-05 0.0176165) (6.10565e-07 -3.30498e-05 0.0177143) (-6.70301e-06 -2.40821e-05 0.0177685) (-8.44422e-06 -1.79756e-05 0.0177986) (-7.94252e-06 -1.34286e-05 0.0178157) (-6.67781e-06 -9.94923e-06 0.0178256) (-5.23705e-06 -7.27236e-06 0.0178311) (-3.86118e-06 -5.17732e-06 0.0178342) (-1.73614e-06 -2.13336e-06 0.0178368)