# Probe 0 (0 0 0.0001)
# Probe 1 (0 0 0.0026)
# Probe 2 (0 0 0.0051)
# Probe 3 (0 0 0.0076)
# Probe 4 (0 0 0.0101)
# Probe 5 (0 0 0.0126)
# Probe 6 (0 0 0.0151)
# Probe 7 (0 0 0.0176)
# Probe 8 (0 0 0.0201)
# Probe 9 (0 0 0.0226)
# Probe 10 (0 0 0.0251)
# Probe 11 (0 0 0.0276)
# Probe 12 (0 0 0.0301)
# Probe 13 (0 0 0.0326)
# Probe 14 (0 0 0.0351)
# Probe 15 (0 0 0.0375)
# Probe 16 (0 0 0.0401)
# Probe 17 (0 0 0.0426)
# Probe 18 (0 0 0.0451)
# Probe 19 (0 0 0.0476)
# Probe 20 (0 0 0.0529)
# Time        0             1             2             3             4             5             6             7             8             9             10            11            12            13            14            15            16            17            18            19            20           
0.051         0.53653       0.420663      0.47333       0.302162      0.404863      0.491764      0.628698      1             1             1             1             1             1             1             1             1             1             1             1             1             1            
0.052         0.53653       0.420663      0.47333       0.302162      0.407496      0.48913       0.628698      1             1             1             1             1             1             1             1             1             1             1             1             1             1            
0.053         0.53653       0.420663      0.47333       0.302162      0.407496      0.48913       0.628698      1             1             1             1             1             1             1             1             1             1             1             1             1             1            
0.054         0.53653       0.420663      0.47333       0.302162      0.407496      0.48913       0.628698      1             1             1             1             1             1             1             1             1             1             1             1             1             1            
0.055         0.53653       0.420663      0.47333       0.302162      0.407496      0.48913       0.628698      1             1             1             1             1             1             1             1             1             1             1             1             1             1            
0.056         0.53653       0.420663      0.47333       0.302162      0.41803       0.478597      0.628698      1             1             1             1             1             1             1             1             1             1             1             1             1             1            
0.057         0.53653       0.420663      0.47333       0.302162      0.41803       0.478597      0.628698      1             1             1             1             1             1             1             1             1             1             1             1             1             1            
0.058         0.53653       0.420663      0.47333       0.302162      0.41803       0.478597      0.628698      1             1             1             1             1             1             1             1             1             1             1             1             1             1            
0.059         0.53653       0.444363      0.44963       0.302162      0.41803       0.478597      0.628698      1             1             1             1             1             1             1             1             1             1             1             1             1             1            
0.06          0.53653       0.444363      0.44963       0.302162      0.41803       0.468063      0.628698      1             1             1             1             1             1             1             1             1             1             1             1             1             1            
0.061         0.53653       0.444363      0.44963       0.302162      0.41803       0.468063      0.628698      1             1             1             1             1             1             1             1             1             1             1             1             1             1            
0.062         0.53653       0.444363      0.44963       0.302162      0.41803       0.468063      0.628698      1             1             1             1             1             1             1             1             1             1             1             1             1             1            
0.063         0.53653       0.444363      0.44963       0.302162      0.41803       0.468063      0.628698      1             1             1             1             1             1             1             1             1             1             1             1             1             1            
0.064         0.53653       0.444363      0.44963       0.302162      0.41803       0.478597      0.618164      1             1             1             1             1             1             1             1             1             1             1             1             1             1            
0.065         0.53653       0.444363      0.44963       0.302162      0.41803       0.478597      0.618164      1             1             1             1             1             1             1             1             1             1             1             1             1             1            
0.066         0.53653       0.444363      0.44963       0.296896      0.378529      0.478597      0.636598      1             1             1             1             1             1             1             1             1             1             1             1             1             1            
0.067         0.53653       0.444363      0.44963       0.302162      0.41803       0.478597      0.636598      1             1             1             1             1             1             1             1             1             1             1             1             1             1            
0.068         0.53653       0.446997      0.446997      0.328496      0.39433       0.478597      0.636598      1             1             1             1             1             1             1             1             1             1             1             1             1             1            
0.069         0.53653       0.446997      0.446997      0.323229      0.354829      0.478597      0.636598      1             1             1             1             1             1             1             1             1             1             1             1             1             1            
0.07          0.53653       0.452263      0.446997      0.323229      0.354829      0.478597      0.636598      1             1             1             1             1             1             1             1             1             1             1             1             1             1            
0.071         0.53653       0.452263      0.446997      0.320596      0.354829      0.478597      0.636598      1             1             1             1             1             1             1             1             1             1             1             1             1             1            
0.072         0.53653       0.452263      0.446997      0.320596      0.354829      0.478597      0.636598      1             1             1             1             1             1             1             1             1             1             1             1             1             1            
0.073         0.53653       0.452263      0.44173       0.320596      0.354829      0.478597      0.636598      1             1             1             1             1             1             1             1             1             1             1             1             1             1            
0.074         0.539164      0.460163      0.44173       0.320596      0.354829      0.491764      0.623431      1             1             1             1             1             1             1             1             1             1             1             1             1             1            
0.075         0.539164      0.460163      0.444363      0.317962      0.354829      0.491764      0.623431      1             1             1             1             1             1             1             1             1             1             1             1             1             1            
0.076         0.539164      0.460163      0.444363      0.317962      0.367996      0.478597      0.623431      1             1             1             1             1             1             1             1             1             1             1             1             1             1            
0.077         0.539164      0.460163      0.444363      0.323229      0.373263      0.468063      0.623431      1             1             1             1             1             1             1             1             1             1             1             1             1             1            
0.078         0.539164      0.460163      0.446997      0.320596      0.373263      0.486497      0.604998      1             1             1             1             1             1             1             1             1             1             1             1             1             1            
0.079         0.539164      0.460163      0.446997      0.320596      0.383796      0.475963      0.604998      1             1             1             1             1             1             1             1             1             1             1             1             1             1            
0.08          0.539164      0.460163      0.44963       0.317962      0.383796      0.475963      0.604998      1             1             1             1             1             1             1             1             1             1             1             1             1             1            
0.081         0.539164      0.460163      0.47333       0.296896      0.381163      0.475963      0.604998      1             1             1             1             1             1             1             1             1             1             1             1             1             1            
0.082         0.539164      0.460163      0.483863      0.296896      0.370629      0.475963      0.604998      1             1             1             1             1             1             1             1             1             1             1             1             1             1            
0.083         0.539164      0.460163      0.483863      0.296896      0.370629      0.475963      0.604998      1             1             1             1             1             1             1             1             1             1             1             1             1             1            
0.084         0.539164      0.460163      0.483863      0.296896      0.370629      0.475963      0.604998      1             1             1             1             1             1             1             1             1             1             1             1             1             1            
0.085         0.539164      0.460163      0.483863      0.299529      0.373263      0.470697      0.604998      1             1             1             1             1             1             1             1             1             1             1             1             1             1            
0.086         0.539164      0.478597      0.46543       0.304796      0.370629      0.468063      0.604998      1             1             1             1             1             1             1             1             1             1             1             1             1             1            
0.087         0.539164      0.491764      0.462797      0.304796      0.373263      0.454897      0.604998      1             1             1             1             1             1             1             1             1             1             1             1             1             1            
0.088         0.539164      0.491764      0.46543       0.302162      0.373263      0.452263      0.604998      1             1             1             1             1             1             1             1             1             1             1             1             1             1            
0.089         0.539164      0.491764      0.46543       0.315329      0.360096      0.478597      0.578664      1             1             1             1             1             1             1             1             1             1             1             1             1             1            
0.09          0.539164      0.491764      0.46543       0.315329      0.360096      0.478597      0.578664      1             1             1             1             1             1             1             1             1             1             1             1             1             1            
0.091         0.539164      0.49703       0.468063      0.323229      0.344296      0.478597      0.578664      1             1             1             1             1             1             1             1             1             1             1             1             1             1            
0.092         0.539164      0.49703       0.46543       0.339029      0.328496      0.483863      0.573397      1             1             1             1             1             1             1             1             1             1             1             1             1             1            
0.093         0.539164      0.475963      0.462797      0.339029      0.352196      0.460163      0.576031      0.997367      1             1             1             1             1             1             1             1             1             1             1             1             1            
0.094         0.539164      0.486497      0.462797      0.328496      0.352196      0.470697      0.565497      0.997367      1             1             1             1             1             1             1             1             1             1             1             1             1            
0.095         0.539164      0.486497      0.462797      0.331129      0.362729      0.45753       0.565497      0.997367      1             1             1             1             1             1             1             1             1             1             1             1             1            
0.096         0.539164      0.486497      0.452263      0.331129      0.365363      0.454897      0.565497      0.997367      1             1             1             1             1             1             1             1             1             1             1             1             1            
0.097         0.539164      0.486497      0.47333       0.320596      0.354829      0.470697      0.549697      0.997367      1             1             1             1             1             1             1             1             1             1             1             1             1            
0.098         0.539164      0.50493       0.45753       0.325862      0.349563      0.475963      0.544431      0.997367      1             1             1             1             1             1             1             1             1             1             1             1             1            
0.099         0.539164      0.50493       0.45753       0.328496      0.346929      0.478597      0.541797      0.997367      1             1             1             1             1             1             1             1             1             1             1             1             1            
0.1           0.539164      0.50493       0.45753       0.331129      0.357463      0.470697      0.541797      0.9921        1             1             1             1             1             1             1             1             1             1             1             1             1            
