/*--------------------------------*- C++ -*----------------------------------*\
| =========                 |                                                 |
| \\      /  F ield         | OpenFOAM: The Open Source CFD Toolbox           |
|  \\    /   O peration     | Version:  2506                                  |
|   \\  /    A nd           | Website:  www.openfoam.com                      |
|    \\/     M anipulation  |                                                 |
\*---------------------------------------------------------------------------*/
FoamFile
{
    version     2.0;
    format      ascii;
    arch        "LSB;label=32;scalar=64";
    class       surfaceScalarField;
    location    "0.05";
    object      phi;
}
// * * * * * * * * * * * * * * * * * * * * * * * * * * * * * * * * * * * * * //

dimensions      [0 3 -1 0 0 0 0];

oriented        oriented;

internalField   nonuniform List<scalar> 
3120
(
-1.03871e-08
-2.09522e-08
8.07648e-08
5.26151e-09
-3.62682e-09
1.74194e-08
-4.49273e-09
-1.15563e-08
3.67514e-08
-2.78943e-09
1.6777e-08
2.68369e-09
-6.52742e-09
-1.92957e-08
5.25129e-08
4.16845e-10
-1.89885e-09
2.4318e-08
-5.29383e-10
-3.4108e-09
2.62824e-08
-1.78547e-09
2.98495e-08
1.70252e-09
2.77977e-09
1.43442e-10
7.77081e-09
-6.81427e-10
-4.23162e-09
3.90102e-08
1.65122e-09
3.48598e-09
2.43355e-08
3.66673e-09
3.03085e-08
-1.3534e-09
-1.07034e-09
3.47696e-08
1.08444e-09
5.85717e-09
2.145e-08
5.13543e-10
4.66453e-10
4.07662e-08
1.26625e-09
3.23194e-08
2.48687e-09
2.59152e-09
4.52378e-09
-1.3313e-08
3.87862e-08
7.40434e-09
-1.11749e-09
1.74727e-08
7.23888e-09
-7.2326e-09
2.67408e-08
-9.90661e-09
4.8158e-08
-8.32789e-09
7.69431e-09
1.5482e-09
2.04717e-08
1.83738e-09
3.50105e-10
2.87074e-08
2.83064e-10
-1.45307e-09
2.20571e-08
-2.31113e-09
2.05712e-08
1.96586e-09
2.57933e-09
-1.10399e-08
2.50163e-08
6.43957e-11
7.79615e-11
4.17973e-08
7.31179e-10
1.38331e-09
2.08323e-08
-2.44881e-09
2.48909e-08
6.28638e-09
-1.2517e-09
3.73094e-08
-5.77167e-09
8.71034e-10
1.89864e-08
4.18741e-10
8.12228e-10
4.70193e-08
-4.81107e-09
3.57613e-08
-4.24328e-09
-8.35205e-10
5.97295e-09
6.03213e-09
1.50689e-08
-7.21747e-11
1.46508e-09
2.38342e-08
1.12003e-08
2.74301e-09
3.43595e-08
1.76604e-09
5.00646e-08
1.01641e-08
8.79868e-10
2.23628e-09
2.62482e-08
3.02239e-09
-5.54178e-10
2.85841e-08
1.17114e-09
8.3258e-10
2.58188e-08
1.59544e-09
1.89155e-08
2.99743e-09
-1.57992e-09
1.00696e-09
2.93316e-08
3.44242e-09
3.07818e-09
3.31426e-08
2.53761e-09
-2.21627e-09
2.4786e-08
-3.71249e-09
3.30429e-08
-3.06435e-10
9.42109e-10
3.89916e-08
-1.33647e-09
-1.99691e-09
2.20971e-08
2.9065e-09
5.36849e-09
3.61135e-08
1.32409e-09
5.05999e-08
-1.39956e-08
8.12991e-10
4.74945e-09
1.69269e-09
9.10379e-09
-7.45241e-09
-5.4545e-09
4.83895e-08
-7.9602e-09
4.95398e-09
3.40921e-08
5.58958e-09
2.43196e-08
7.79277e-09
5.1627e-10
4.68373e-10
3.13409e-08
4.57307e-09
6.8067e-10
1.83921e-08
-9.25255e-10
-2.6137e-09
3.88848e-08
7.77178e-10
2.54854e-08
-2.68278e-09
4.41896e-10
4.02349e-09
2.39761e-08
2.60198e-09
1.43812e-09
3.0225e-08
2.34972e-09
-2.3199e-09
2.47444e-08
-3.46306e-09
4.32291e-08
-3.59622e-09
-6.4763e-10
4.17808e-08
4.43657e-09
-5.35413e-10
1.85326e-08
4.89042e-09
1.38347e-09
3.0662e-08
1.2127e-09
5.4897e-08
-4.26873e-09
-2.10807e-09
-1.58085e-08
-3.67123e-09
5.25858e-08
-5.2572e-09
1.93127e-10
4.81412e-08
-8.98035e-11
5.18053e-10
2.67413e-08
-2.11795e-09
2.79961e-08
-1.11886e-09
-7.23845e-10
-4.72432e-09
3.86799e-08
-5.92278e-10
-3.89299e-09
2.23466e-08
1.8407e-09
-2.50394e-09
3.94738e-08
-4.83639e-09
2.86841e-08
1.36042e-09
7.24288e-11
4.25587e-09
1.63785e-08
2.67102e-09
9.05422e-10
2.2828e-08
2.68259e-11
5.49899e-11
2.48297e-08
-4.0828e-09
4.36231e-08
-1.1208e-09
-2.60204e-09
4.30949e-08
7.76372e-09
5.46812e-10
1.18697e-08
4.41952e-09
-2.73684e-09
3.26005e-08
1.40017e-09
5.14168e-08
-2.42408e-09
-9.15366e-10
2.48619e-09
1.1511e-08
2.69046e-08
5.81996e-09
8.49641e-09
3.15923e-08
5.68461e-09
5.11557e-09
1.36961e-08
4.54975e-09
2.77826e-08
-6.97639e-10
8.69606e-09
3.82357e-09
3.61671e-08
2.21554e-09
-8.85674e-10
3.82092e-08
2.42806e-09
-1.49725e-09
4.58741e-08
-3.25739e-09
4.11425e-08
-2.22323e-09
1.79862e-10
-2.92108e-09
2.39355e-08
1.11982e-09
1.67196e-09
1.93304e-08
2.26701e-09
-4.65044e-09
2.68357e-08
-6.68009e-09
4.79568e-08
1.35602e-09
9.38858e-09
1.53507e-08
6.67035e-09
-7.05674e-09
3.22171e-08
-2.23017e-09
-6.43794e-10
1.80779e-08
3.45918e-09
3.96403e-08
4.48702e-09
-3.43574e-11
1.4346e-09
-2.86462e-09
2.93144e-08
1.32174e-09
-5.72205e-10
2.67021e-08
-2.00588e-09
-9.95699e-10
1.85778e-08
-8.79115e-10
2.85767e-08
-1.18558e-09
-1.21199e-09
2.02373e-10
3.29339e-08
-1.98823e-09
1.31653e-09
3.70967e-08
9.36179e-10
4.9106e-10
4.1463e-08
-1.47564e-09
4.13654e-08
1.30996e-09
-8.97539e-10
1.66059e-09
2.4136e-08
-1.93058e-09
-1.23369e-09
2.29137e-08
-4.19525e-10
-6.33407e-09
3.21497e-08
1.08908e-10
4.3662e-08
2.29084e-09
-4.27292e-09
2.02073e-08
5.50931e-10
-4.4957e-10
2.76089e-08
-4.4881e-10
-3.46957e-10
1.69197e-08
-5.27844e-09
3.76234e-08
5.17594e-10
1.26148e-09
2.03141e-10
8.86897e-10
2.66486e-08
-3.49778e-09
-7.24504e-10
3.08243e-08
-4.50017e-09
9.47759e-10
2.30609e-08
-5.47263e-10
3.02144e-08
-3.6741e-09
-3.65141e-09
-1.06794e-09
3.76413e-08
-5.56589e-09
-3.05621e-10
3.8592e-08
-4.03282e-09
3.24987e-09
3.76273e-08
2.10901e-09
3.58706e-08
-1.19431e-09
-1.96873e-09
-2.88417e-09
2.7829e-08
-4.18981e-09
-1.33971e-09
2.61685e-08
-5.18025e-09
3.75407e-09
3.26355e-08
3.30223e-09
3.92922e-08
-2.00424e-09
7.2495e-10
1.2842e-08
5.27798e-10
2.10657e-09
2.43485e-08
5.38614e-10
-4.38551e-09
2.8142e-08
-9.76539e-10
3.83621e-08
7.83272e-10
-2.60583e-09
-7.19873e-10
-2.21909e-09
3.16459e-08
-6.4933e-10
-6.53916e-10
3.26197e-08
-3.73674e-09
-1.77138e-09
3.06812e-08
-2.4402e-09
3.24826e-08
-3.70382e-09
-3.11042e-09
2.14461e-09
3.38268e-08
-2.38261e-09
2.41668e-09
3.47935e-08
-1.55032e-09
-4.08417e-11
3.50642e-08
-2.00752e-09
3.49759e-08
-1.08855e-09
-2.12735e-09
2.39761e-09
3.01994e-08
-4.63576e-09
6.20027e-10
3.04733e-08
-5.24722e-09
3.32144e-10
3.28736e-08
-1.09109e-09
3.57417e-08
-2.61331e-09
-4.29727e-09
2.60409e-08
-5.64672e-09
-5.23423e-09
2.90577e-08
-3.15255e-09
-5.89431e-09
3.07677e-08
-1.634e-09
3.4544e-08
-8.2544e-10
-2.34248e-09
-5.38216e-10
1.3426e-10
3.27681e-08
-7.04637e-10
2.68346e-10
3.31448e-08
-1.6832e-09
-2.38487e-10
3.26126e-08
-5.6886e-10
3.30682e-08
-1.91176e-09
-1.6191e-09
1.24195e-09
3.30722e-08
-1.58422e-09
1.41371e-09
3.36131e-08
-1.37518e-09
8.14147e-10
3.38024e-08
9.16312e-11
3.39423e-08
-1.00199e-09
-1.31432e-09
6.98208e-10
3.18149e-08
-2.22673e-09
5.95249e-10
3.2204e-08
-2.44858e-09
9.09919e-10
3.29994e-08
7.02882e-10
3.39478e-08
-1.26585e-09
-1.56297e-09
3.05905e-08
-2.2974e-09
-2.01776e-09
3.14832e-08
-1.37553e-09
-2.11855e-09
3.21887e-08
-4.10748e-10
3.33037e-08
3.49452e-10
-5.25145e-10
-3.4335e-10
1.54796e-10
3.31141e-08
-4.10547e-10
1.36631e-10
3.32859e-08
-7.30742e-10
-1.41911e-10
3.31755e-08
-3.05096e-10
3.33163e-08
-8.40813e-10
-7.51335e-10
3.45655e-10
3.31037e-08
-7.6885e-10
3.98994e-10
3.33684e-08
-7.66943e-10
1.65696e-10
3.34928e-08
-8.7146e-11
3.35876e-08
-6.30052e-10
-6.7128e-10
-6.07563e-11
3.26972e-08
-1.01213e-09
3.0353e-11
3.29135e-08
-1.14913e-09
1.03309e-10
3.31987e-08
-2.80447e-11
3.34917e-08
-7.51927e-10
-6.48816e-10
3.23624e-08
-1.18847e-09
-9.38638e-10
3.26388e-08
-8.35472e-10
-1.06171e-09
3.28692e-08
-4.54332e-10
3.31019e-08
-3.3357e-10
-5.54524e-10
-1.86726e-10
7.72712e-11
3.32531e-08
-2.13694e-10
6.01323e-11
3.33308e-08
-3.22799e-10
-2.13666e-11
3.33176e-08
-4.59286e-11
3.33643e-08
-3.84354e-10
-3.07237e-10
5.71686e-11
3.32178e-08
-3.18258e-10
1.06386e-10
3.33334e-08
-3.28201e-10
9.62446e-11
3.33852e-08
9.09252e-11
3.34202e-08
-2.97475e-10
-2.451e-10
-1.7515e-10
3.30887e-08
-3.38582e-10
-6.55961e-11
3.31791e-08
-3.53388e-10
5.10145e-11
3.32588e-08
1.31137e-10
3.33174e-08
-2.18976e-10
-1.46115e-10
3.29994e-08
-6.31285e-10
-2.11106e-10
3.30753e-08
-4.37065e-10
-1.79646e-10
3.30924e-08
-2.03699e-10
3.30839e-08
-5.07676e-11
2.01558e-11
-9.33694e-11
1.84653e-11
3.33341e-08
-1.12972e-10
1.00947e-11
3.33661e-08
-1.56716e-10
-5.38692e-12
3.33683e-08
1.23663e-12
3.33721e-08
-1.80504e-10
-1.18757e-10
-3.03778e-11
3.33123e-08
-1.34607e-10
2.6397e-12
3.33569e-08
-1.48388e-10
2.17557e-11
3.3372e-08
4.5748e-11
3.33677e-08
-1.40188e-10
-8.21747e-11
-1.48259e-10
3.32696e-08
-1.13301e-10
-8.55218e-11
3.32986e-08
-1.20734e-10
-1.86574e-11
3.33068e-08
3.55122e-11
3.32866e-08
-7.94631e-11
-1.7732e-11
3.32404e-08
-3.29523e-10
-2.7519e-11
3.32445e-08
-2.44819e-10
-3.36767e-11
3.32094e-08
-1.29479e-10
3.31322e-08
-6.81301e-11
2.17593e-11
-4.05202e-11
-7.63908e-12
3.33834e-08
-5.48674e-11
-5.56478e-12
3.33938e-08
-7.51515e-11
-2.92802e-12
3.33911e-08
9.39062e-12
3.33735e-08
-8.63644e-11
-4.22697e-11
-4.15874e-11
3.33715e-08
-5.34193e-11
-2.11375e-11
3.33838e-08
-6.40908e-11
-6.61221e-13
3.33806e-08
2.44391e-11
3.33541e-08
-6.54135e-11
-1.86827e-11
-9.99957e-11
3.33525e-08
-2.98378e-11
-6.5898e-11
3.33547e-08
-3.62484e-11
-2.48463e-11
3.33376e-08
1.27519e-11
3.32886e-08
-2.63991e-11
2.03227e-11
3.33297e-08
-1.73004e-10
1.9256e-11
3.33131e-08
-1.33329e-10
1.65998e-11
3.32642e-08
-7.69572e-11
3.31695e-08
-3.73303e-11
2.93538e-11
-1.49925e-11
-1.33387e-11
3.34125e-08
-2.54458e-11
-9.36254e-12
3.34136e-08
-3.63833e-11
-4.03635e-12
3.34046e-08
5.27853e-12
3.33762e-08
-4.26155e-11
-1.177e-11
-3.43169e-11
3.34054e-08
-2.02759e-11
-2.19737e-11
3.34052e-08
-2.77774e-11
-7.76776e-12
3.3392e-08
8.5745e-12
3.33544e-08
-3.1251e-11
2.08306e-12
-6.36979e-11
3.3392e-08
-4.3725e-12
-4.44859e-11
3.33838e-08
-9.3602e-12
-2.22544e-11
3.33572e-08
-5.54794e-13
3.32983e-08
-9.70248e-12
2.26478e-11
3.33645e-08
-9.32668e-11
2.17691e-11
3.3343e-08
-7.33989e-11
1.8315e-11
3.32917e-08
-4.62792e-11
3.31946e-08
-2.45997e-11
1.73594e-11
-3.74142e-12
-1.26042e-11
3.34296e-08
-1.05204e-11
-9.20087e-12
3.34265e-08
-1.6852e-11
-4.80383e-12
3.34135e-08
1.32599e-12
3.33791e-08
-2.05785e-11
-5.55831e-13
-2.42852e-11
3.34243e-08
-6.1298e-12
-1.72499e-11
3.3419e-08
-1.10959e-11
-8.69782e-12
3.34009e-08
9.37393e-13
3.33579e-08
-1.4048e-11
7.22413e-12
-3.83164e-11
3.3411e-08
3.20291e-12
-2.8575e-11
3.33993e-08
-4.12639e-13
-1.69127e-11
3.33691e-08
-4.83065e-12
3.33066e-08
-2.68446e-12
1.80806e-11
3.3379e-08
-5.11598e-11
1.68976e-11
3.33567e-08
-4.11129e-11
1.38896e-11
3.33058e-08
-2.8023e-11
3.32092e-08
-1.59094e-11
1.05584e-11
7.67922e-13
-1.01902e-11
3.34395e-08
-3.37403e-12
-7.80175e-12
3.34345e-08
-7.12431e-12
-4.79996e-12
3.34191e-08
-1.04002e-12
3.33817e-08
-9.46987e-12
3.10289e-12
-1.64437e-11
3.34346e-08
-3.88038e-13
-1.24728e-11
3.34273e-08
-3.56541e-12
-7.57574e-12
3.3407e-08
-2.13414e-12
3.33613e-08
-5.74657e-12
7.34458e-12
-2.3108e-11
3.34204e-08
4.85546e-12
-1.81947e-11
3.34076e-08
2.39658e-12
-1.20822e-11
3.33762e-08
-5.55247e-12
3.33122e-08
3.26956e-13
1.31015e-11
3.33853e-08
-2.86605e-11
1.20622e-11
3.33633e-08
-2.37724e-11
9.73762e-12
3.33132e-08
-1.7173e-11
3.32173e-08
-1.05061e-11
6.64314e-12
2.37661e-12
-7.63435e-12
3.34451e-08
-1.59598e-13
-6.13462e-12
3.34392e-08
-2.44594e-12
-4.23729e-12
3.34227e-08
-1.97966e-12
3.33837e-08
-3.92799e-12
3.85044e-12
-1.09449e-11
3.34402e-08
1.72384e-12
-8.73542e-12
3.34321e-08
-2.83554e-13
-5.96866e-12
3.34108e-08
-2.93347e-12
3.33638e-08
-1.77325e-12
6.16665e-12
-1.41367e-11
3.34251e-08
4.62594e-12
-1.15986e-11
3.3412e-08
2.98178e-12
-8.37332e-12
3.33803e-08
-4.87695e-12
3.33157e-08
1.4853e-12
9.20177e-12
3.3388e-08
-1.64509e-11
8.45525e-12
3.33666e-08
-1.41123e-11
6.80996e-12
3.33171e-08
-1.07143e-11
3.32217e-08
-6.9744e-12
4.4287e-12
2.7169e-12
-5.38221e-12
3.34483e-08
1.09798e-12
-4.55864e-12
3.34421e-08
-3.49286e-13
-3.42485e-12
3.3425e-08
-2.08935e-12
3.33852e-08
-1.35787e-12
3.52297e-12
-7.17828e-12
3.34432e-08
2.20944e-12
-5.98831e-12
3.34349e-08
9.45438e-13
-4.46047e-12
3.34132e-08
-2.78106e-12
3.33656e-08
-4.50652e-14
4.74908e-12
-8.721e-12
3.34275e-08
3.79697e-12
-7.41771e-12
3.34144e-08
2.71889e-12
-5.72381e-12
3.33826e-08
-3.87272e-12
3.33179e-08
1.70987e-12
6.35015e-12
3.33892e-08
-9.64404e-12
5.83526e-12
3.33682e-08
-8.53325e-12
4.71548e-12
3.33191e-08
-6.78698e-12
3.32241e-08
-4.66055e-12
3.00702e-12
2.44363e-12
-3.65791e-12
3.34502e-08
1.37765e-12
-3.25639e-12
3.34438e-08
4.65517e-13
-2.60996e-12
3.34265e-08
-1.84268e-12
3.33863e-08
-1.95266e-13
2.83115e-12
-4.64125e-12
3.34448e-08
2.00826e-12
-4.03093e-12
3.34364e-08
1.21932e-12
-3.20535e-12
3.34146e-08
-2.29213e-12
3.33667e-08
5.75909e-13
3.44508e-12
-5.38133e-12
3.34286e-08
2.85764e-12
-4.73645e-12
3.34157e-08
2.17491e-12
-3.86011e-12
3.33839e-08
-2.87547e-12
3.33191e-08
1.52805e-12
4.27291e-12
3.33895e-08
-5.74097e-12
3.93808e-12
3.33689e-08
-5.21958e-12
3.20518e-12
3.33202e-08
-4.32325e-12
3.32254e-08
-3.09299e-12
2.04701e-12
1.90179e-12
-2.44878e-12
3.34512e-08
1.22919e-12
-2.24948e-12
3.34448e-08
6.72975e-13
-1.89123e-12
3.34273e-08
-1.44846e-12
3.3387e-08
2.44516e-13
2.08585e-12
-2.95321e-12
3.34456e-08
1.57962e-12
-2.64954e-12
3.34372e-08
1.08785e-12
-2.20935e-12
3.34154e-08
-1.71828e-12
3.33674e-08
6.94045e-13
2.38659e-12
-3.28526e-12
3.34291e-08
2.02614e-12
-2.98043e-12
3.34163e-08
1.60879e-12
-2.53552e-12
3.33846e-08
-2.01697e-12
3.33199e-08
1.21341e-12
2.80347e-12
3.33895e-08
-3.4029e-12
2.59424e-12
3.33692e-08
-3.17645e-12
2.13402e-12
3.33207e-08
-2.71941e-12
3.32261e-08
-2.00197e-12
1.3858e-12
1.37175e-12
-1.56984e-12
3.34517e-08
9.81307e-13
-1.44877e-12
3.34453e-08
6.48106e-13
-1.24216e-12
3.34278e-08
-9.91975e-13
3.33874e-08
3.88215e-13
1.48078e-12
-1.79214e-12
3.3446e-08
1.18057e-12
-1.63711e-12
3.34377e-08
8.89665e-13
-1.40421e-12
3.34159e-08
-1.14369e-12
3.33679e-08
6.40809e-13
1.63608e-12
-1.91952e-12
3.34292e-08
1.4162e-12
-1.77947e-12
3.34166e-08
1.16413e-12
-1.56065e-12
3.3385e-08
-1.29269e-12
3.33203e-08
9.24663e-13
1.84235e-12
3.33895e-08
-1.9366e-12
1.70824e-12
3.33693e-08
-1.85048e-12
1.42388e-12
3.3321e-08
-1.62719e-12
3.32265e-08
-1.22331e-12
9.56219e-13
1.12826e-12
-8.42283e-13
3.34518e-08
9.24225e-13
-7.64522e-13
3.34455e-08
7.21182e-13
-6.5075e-13
3.34281e-08
-5.16051e-13
3.33877e-08
5.35151e-13
1.20521e-12
-9.23027e-13
3.34461e-08
1.03242e-12
-8.49331e-13
3.34379e-08
8.48081e-13
-7.39489e-13
3.34161e-08
-6.14974e-13
3.33681e-08
6.69217e-13
1.27998e-12
-9.67639e-13
3.34293e-08
1.14472e-12
-9.15318e-13
3.34167e-08
9.79582e-13
-8.24955e-13
3.33852e-08
-7.06477e-13
3.33206e-08
8.09915e-13
1.36837e-12
3.33894e-08
-9.65458e-13
1.27503e-12
3.33693e-08
-9.52641e-13
1.09042e-12
3.33211e-08
-8.65138e-13
3.32268e-08
-6.66513e-13
7.94969e-13
1.50009e-12
-3.94793e-13
1.3738e-12
-3.71008e-13
1.20077e-12
-3.33547e-13
-2.87403e-13
9.93421e-13
1.52253e-12
-4.33086e-13
1.40798e-12
-4.2857e-13
1.24262e-12
-4.10563e-13
-3.86272e-13
1.03532e-12
1.52772e-12
-4.57955e-13
1.42626e-12
-4.79506e-13
1.27042e-12
-4.85804e-13
-4.79082e-13
1.06443e-12
1.52403e-12
-4.59474e-13
1.43893e-12
-5.08959e-13
1.27352e-12
-5.24564e-13
-4.7542e-13
9.87344e-13
-1.71398e-09
-3.361e-09
4.46605e-08
1.06173e-08
-7.23374e-10
2.08123e-08
1.0729e-09
-3.89871e-09
4.11816e-08
3.55519e-09
1.9908e-08
-1.03637e-10
3.03575e-11
6.39485e-09
3.0562e-08
4.37369e-09
7.26422e-09
2.43293e-08
2.43486e-09
7.7248e-09
2.16681e-08
1.14297e-08
1.99838e-08
-1.4997e-09
2.18799e-09
-2.71864e-09
5.50293e-08
5.0351e-09
-6.80531e-10
4.63487e-08
3.92169e-09
-3.48367e-10
4.51016e-08
5.77701e-09
4.0142e-08
-2.38607e-09
2.21861e-10
4.58635e-08
3.23891e-09
4.17908e-08
4.66699e-09
3.85122e-08
4.45425e-08
-1.32538e-09
3.01407e-09
3.88986e-09
2.70238e-08
-2.72857e-09
3.19411e-09
2.37795e-08
5.23199e-09
2.02636e-09
2.63836e-08
3.08602e-09
1.6856e-08
9.54648e-10
4.41e-09
-2.43135e-09
2.96128e-08
-1.51537e-09
-5.11245e-09
3.85613e-08
2.26838e-09
4.85656e-09
1.50541e-08
-5.71808e-09
3.1747e-08
-6.90814e-10
2.26684e-09
1.00648e-08
4.07147e-08
2.96882e-09
8.30461e-09
3.22296e-08
2.82075e-10
-4.42666e-09
5.70716e-08
5.09054e-09
3.08224e-08
-1.20701e-09
2.97149e-09
5.73003e-08
-2.38078e-09
5.55655e-08
2.68045e-09
2.91068e-08
5.45966e-08
-1.74244e-09
3.82178e-09
6.70059e-10
1.49321e-08
-4.31976e-09
-3.43946e-09
3.8267e-08
2.93901e-09
4.84474e-09
1.56041e-08
-1.18378e-08
1.39147e-08
3.72257e-09
1.61222e-09
2.41953e-09
2.36176e-08
1.59652e-09
-1.77704e-09
3.69145e-08
1.76941e-09
-8.19391e-09
2.79199e-08
-1.53088e-08
3.76799e-08
-6.92518e-10
-1.56042e-09
-1.03381e-08
5.54881e-08
-7.73385e-10
-5.9457e-09
3.56112e-08
-3.42884e-10
-1.88417e-09
5.03313e-08
-4.47926e-09
1.92504e-08
3.99532e-10
1.22034e-09
4.01907e-08
2.43579e-09
4.76952e-08
-1.26525e-09
3.1298e-08
4.88791e-08
1.96372e-10
-1.52516e-09
4.5243e-09
2.41772e-08
-3.19425e-09
-3.29355e-09
4.812e-08
-1.61747e-09
-1.36965e-09
1.66097e-08
-1.97453e-09
9.39614e-09
6.06883e-10
-6.05348e-09
-1.5407e-09
4.51254e-08
-1.58684e-09
7.7297e-09
2.14246e-08
-3.04348e-09
3.16058e-10
2.76908e-08
-1.68311e-09
3.03188e-08
4.02622e-09
-3.08389e-09
-7.73949e-09
6.71728e-08
-5.71483e-09
-1.10194e-08
5.69913e-08
-2.10816e-09
-2.57396e-09
4.96146e-08
-2.57153e-09
1.66131e-08
1.41754e-09
-4.35544e-09
3.54992e-08
-1.0466e-09
3.33871e-08
-2.39994e-09
3.02872e-08
4.27558e-08
1.40183e-09
-1.04054e-08
-1.39831e-09
5.26469e-08
-3.51907e-10
5.54515e-09
3.69409e-08
-2.18319e-09
-2.68562e-09
2.25268e-08
-7.95407e-10
4.6661e-09
9.18167e-10
-2.9406e-09
-2.87401e-09
4.67336e-08
-2.66184e-09
-1.53534e-09
2.82264e-08
-1.89383e-09
4.26685e-09
1.99703e-08
1.76198e-09
2.41505e-08
1.71707e-09
4.90451e-09
-4.48393e-09
6.79746e-08
-2.59101e-09
4.1144e-09
5.8837e-08
-2.82809e-09
3.63027e-09
5.04883e-08
-2.23101e-09
1.72615e-08
5.16539e-10
-1.75838e-09
3.02784e-08
-1.17473e-09
3.65067e-08
-3.86329e-09
3.66918e-08
3.56759e-08
1.15905e-09
1.92574e-09
2.30191e-08
2.35438e-08
4.15288e-10
3.46121e-09
3.276e-08
1.61343e-09
1.70901e-09
2.30787e-08
-2.51789e-09
1.43712e-08
-1.08672e-09
-4.41254e-09
8.71795e-10
7.371e-08
-6.16255e-10
4.19289e-09
2.36984e-08
-3.01073e-10
6.68726e-10
2.06954e-08
3.65021e-09
1.95684e-08
-1.88718e-09
5.746e-10
5.84607e-09
5.98936e-08
-1.91319e-09
2.48293e-09
6.30348e-08
6.49299e-10
3.44382e-09
4.51507e-08
-2.35094e-09
2.56636e-08
-1.75164e-09
-6.46913e-10
3.57927e-08
-1.91585e-09
4.02424e-08
-1.0968e-09
3.93094e-08
3.53363e-08
-2.95461e-09
-3.36507e-10
-8.26375e-10
2.58596e-08
1.27886e-09
1.48473e-09
2.9211e-08
6.24461e-10
-1.28431e-09
1.97391e-08
-3.55344e-09
1.8719e-08
3.4801e-10
2.18215e-09
7.71968e-09
5.90932e-08
1.15316e-09
-2.0748e-09
2.82869e-08
7.66819e-10
-2.24934e-09
2.20468e-08
-3.91326e-09
2.0641e-08
5.42696e-11
-1.57322e-09
5.6803e-09
5.81087e-08
-4.33294e-10
3.14032e-09
5.66797e-08
3.73942e-12
1.07155e-09
4.13928e-08
-4.40373e-09
2.65315e-08
-3.73454e-10
-1.46566e-09
3.89053e-08
-6.73655e-10
4.30082e-08
-7.28146e-10
4.06828e-08
3.4643e-08
8.05701e-11
1.39359e-10
2.13549e-11
2.39775e-08
9.35958e-10
1.12947e-09
2.78232e-08
-1.83146e-09
-1.2113e-09
2.27408e-08
-6.51814e-10
1.95465e-08
-1.22434e-09
8.21833e-10
1.56524e-09
5.2259e-08
1.38435e-09
-4.21274e-09
3.30663e-08
-1.383e-09
-4.93764e-09
2.85399e-08
-2.64503e-09
2.22544e-08
-1.00378e-09
-3.86101e-09
2.3742e-09
5.56928e-08
1.45442e-09
-4.89506e-10
4.76408e-08
4.88252e-10
-1.29227e-09
3.8713e-08
-1.52718e-09
2.623e-08
-3.28267e-10
-1.40137e-10
4.07034e-08
1.15516e-09
4.12232e-08
5.24309e-10
4.00211e-08
3.33735e-08
2.66743e-10
-3.59397e-10
-1.0398e-08
3.11659e-08
-1.48902e-09
-4.27852e-09
3.00786e-08
-2.04239e-09
-3.61559e-09
2.52753e-08
-2.00364e-09
1.9201e-08
-5.19521e-10
3.43179e-09
-3.67917e-09
4.41434e-08
3.90935e-10
-4.70493e-09
3.65334e-08
-7.95253e-10
-4.32685e-09
3.04368e-08
-2.85962e-09
2.28037e-08
-4.89156e-10
3.44858e-09
4.37596e-09
4.98859e-08
1.07979e-09
6.61081e-10
4.46433e-08
1.66789e-10
-1.14342e-09
3.6442e-08
-2.94313e-09
2.67361e-08
-2.55962e-10
2.77243e-09
4.78808e-08
-2.98675e-10
4.49553e-08
-3.38491e-10
3.89172e-08
3.02495e-08
-1.57534e-10
2.01317e-11
-4.35751e-09
3.3558e-08
-2.27961e-10
-2.45724e-09
3.14085e-08
-3.58448e-10
-1.58984e-09
2.65845e-08
-3.03579e-10
1.98096e-08
-3.14678e-10
1.38627e-09
-2.17659e-09
4.08732e-08
9.70372e-10
-2.31874e-09
3.68107e-08
4.3564e-10
-1.61802e-09
3.09996e-08
-4.44047e-10
2.35309e-08
-1.51492e-10
1.57478e-09
1.05653e-09
4.61626e-08
1.5339e-09
1.84472e-10
4.21808e-08
9.57168e-10
2.33726e-12
3.5398e-08
3.85272e-11
2.71365e-08
7.42179e-11
1.77451e-09
4.8884e-08
1.32792e-09
4.55863e-08
9.99743e-10
3.92475e-08
3.11085e-08
1.79436e-10
-2.91876e-11
-1.97487e-09
3.45658e-08
-2.20981e-10
-1.28623e-09
3.20511e-08
-2.54267e-10
-7.78075e-10
2.69414e-08
-4.08866e-10
1.96835e-08
-5.35562e-11
5.05368e-10
-1.3603e-09
4.01318e-08
2.73978e-10
-1.1955e-09
3.69513e-08
4.15944e-11
-7.79157e-10
3.1233e-08
-4.52093e-10
2.35809e-08
3.44582e-11
7.7487e-10
-2.71458e-10
4.50393e-08
6.07832e-10
-4.772e-10
4.16293e-08
3.33495e-10
-4.80811e-10
3.53736e-08
-4.70334e-10
2.73656e-08
1.22434e-10
8.87463e-10
4.86775e-08
6.28569e-10
4.5368e-08
4.01728e-10
3.89932e-08
3.08715e-08
1.68565e-10
1.50053e-10
-9.44877e-10
3.48672e-08
1.60751e-10
-6.52536e-10
3.22561e-08
1.0732e-10
-3.22972e-10
2.71141e-08
-7.90177e-11
1.97877e-08
3.05648e-11
3.85705e-10
-7.21444e-10
3.97721e-08
4.04237e-10
-5.5641e-10
3.68367e-08
2.78592e-10
-2.63388e-10
3.12991e-08
-3.09388e-11
2.37265e-08
8.44594e-11
5.30528e-10
-1.79956e-10
4.43627e-08
5.57372e-10
-1.75958e-10
4.12219e-08
3.78694e-10
-4.21347e-11
3.53307e-08
5.88773e-11
2.75354e-08
1.1899e-10
6.07151e-10
4.83767e-08
6.11126e-10
4.51879e-08
4.43412e-10
3.91185e-08
3.12316e-08
1.42257e-10
1.19979e-10
-4.47812e-10
3.49683e-08
1.28445e-10
-3.27476e-10
3.23305e-08
8.67236e-11
-1.56359e-10
2.71827e-08
-5.77319e-11
1.98249e-08
3.8498e-11
2.21787e-10
-3.77805e-10
3.96257e-08
2.33471e-10
-2.85442e-10
3.6783e-08
1.57476e-10
-1.28409e-10
3.13471e-08
-3.62218e-11
2.37963e-08
6.58429e-11
2.89336e-10
-1.59066e-10
4.4067e-08
3.06073e-10
-1.39346e-10
4.1059e-08
2.09323e-10
-6.24415e-11
3.53612e-08
-2.22137e-11
2.76488e-08
8.1842e-11
3.26887e-10
4.81403e-08
3.35714e-10
4.50397e-08
2.32507e-10
3.91591e-08
3.13497e-08
9.23023e-11
8.55229e-11
-2.18706e-10
3.49958e-08
9.42862e-11
-1.66051e-10
3.23546e-08
6.55521e-11
-7.7011e-11
2.72115e-08
-2.65783e-11
1.98515e-08
2.79189e-11
1.33901e-10
-1.90689e-10
3.95557e-08
1.39389e-10
-1.42168e-10
3.67536e-08
9.74555e-11
-5.76637e-11
3.13699e-08
-1.24667e-11
2.38381e-08
4.14975e-11
1.60308e-10
-9.83818e-11
4.39254e-08
1.74086e-10
-7.75595e-11
4.09805e-08
1.24706e-10
-2.77801e-11
3.53807e-08
2.14449e-12
2.77105e-08
4.85738e-11
1.80969e-10
4.79932e-08
1.93533e-10
4.49496e-08
1.36416e-10
3.91884e-08
3.14341e-08
5.43801e-11
5.4473e-11
-1.12139e-10
3.50025e-08
5.79337e-11
-8.60198e-11
3.2364e-08
4.05074e-11
-4.43459e-11
2.7227e-08
-1.72839e-11
1.9867e-08
1.75539e-11
7.38371e-11
-9.6801e-11
3.95223e-08
7.82359e-11
-7.50818e-11
3.67384e-08
5.46521e-11
-3.3191e-11
3.13827e-08
-9.51306e-12
2.38607e-08
2.43082e-11
9.12601e-11
-5.37859e-11
4.38564e-08
9.42864e-11
-4.18488e-11
4.09443e-08
6.42092e-11
-1.54966e-11
3.53933e-08
-4.0992e-12
2.77422e-08
2.72233e-11
9.86597e-11
4.79102e-08
1.05435e-10
4.4901e-08
7.56584e-11
3.92027e-08
3.14749e-08
3.0916e-11
3.39517e-11
-5.9235e-11
3.50033e-08
3.47147e-11
-4.55437e-11
3.23678e-08
2.47484e-11
-2.59845e-11
2.72351e-08
-1.10818e-11
1.98756e-08
1.10618e-11
4.26953e-11
-5.148e-11
3.95047e-08
4.42967e-11
-3.96058e-11
3.67311e-08
3.12674e-11
-1.92472e-11
3.13894e-08
-6.46652e-12
2.38727e-08
1.4697e-11
4.93625e-11
-2.87775e-11
4.38225e-08
5.1868e-11
-2.36241e-11
4.09259e-08
3.5741e-11
-9.52064e-12
3.53999e-08
-2.55456e-12
2.77583e-08
1.58918e-11
5.71587e-11
4.7866e-08
5.84732e-11
4.48761e-08
4.09389e-11
3.92107e-08
3.14951e-08
1.82105e-11
2.13512e-11
-3.21923e-11
3.50026e-08
2.08367e-11
-2.44811e-11
3.23691e-08
1.52201e-11
-1.55972e-11
2.72392e-08
-7.39255e-12
1.98802e-08
7.17391e-12
2.50606e-11
-2.78607e-11
3.94953e-08
2.56395e-11
-2.13825e-11
3.67275e-08
1.82902e-11
-1.14816e-11
3.13928e-08
-4.66561e-12
2.38788e-08
9.30063e-12
2.84075e-11
-1.60439e-11
4.38046e-08
2.9177e-11
-1.29754e-11
4.09168e-08
2.04157e-11
-5.92446e-12
3.54032e-08
-2.07902e-12
2.77664e-08
9.78133e-12
3.21526e-11
4.78425e-08
3.29114e-11
4.48624e-08
2.33372e-11
3.92143e-08
3.15051e-08
1.12721e-11
1.34057e-11
-1.78012e-11
3.50018e-08
1.29551e-11
-1.42851e-11
3.23698e-08
9.59737e-12
-9.48795e-12
2.72413e-08
-4.9139e-12
1.98826e-08
4.7716e-12
1.52087e-11
-1.53371e-11
3.949e-08
1.51365e-11
-1.20307e-11
3.67254e-08
1.1039e-11
-6.98256e-12
3.13945e-08
-3.27667e-12
2.3882e-08
6.10309e-12
1.68016e-11
-8.88746e-12
4.37949e-08
1.69037e-11
-7.29545e-12
4.09119e-08
1.20731e-11
-3.65289e-12
3.54047e-08
-1.55218e-12
2.77705e-08
6.28267e-12
1.91656e-11
4.78295e-08
1.91129e-11
4.48551e-08
1.38263e-11
3.92158e-08
3.15102e-08
7.26755e-12
8.51438e-12
-1.01302e-11
3.5001e-08
8.16359e-12
-8.3845e-12
3.237e-08
6.13762e-12
-5.8796e-12
2.72423e-08
-3.26487e-12
1.98839e-08
3.20758e-12
9.34744e-12
-8.62012e-12
3.94868e-08
9.13284e-12
-6.90834e-12
3.67241e-08
6.81565e-12
-4.31338e-12
3.13953e-08
-2.26221e-12
2.38836e-08
4.08668e-12
1.01581e-11
-5.07179e-12
4.37895e-08
1.00171e-11
-4.12036e-12
4.09093e-08
7.3264e-12
-2.2806e-12
3.54054e-08
-1.12831e-12
2.77726e-08
4.14634e-12
1.16537e-11
4.78221e-08
1.14116e-11
4.48511e-08
8.42974e-12
3.92165e-08
3.15128e-08
4.80907e-12
5.40141e-12
-5.87391e-12
3.50004e-08
5.15348e-12
-4.98778e-12
3.23699e-08
3.93984e-12
-3.68491e-12
2.72428e-08
-2.15059e-12
1.98845e-08
2.14794e-12
5.75527e-12
-4.95623e-12
3.94849e-08
5.57452e-12
-4.0298e-12
3.67233e-08
4.26219e-12
-2.68532e-12
3.13957e-08
-1.52427e-12
2.38844e-08
2.74747e-12
6.17691e-12
-2.88778e-12
4.37863e-08
6.02028e-12
-2.37132e-12
4.09077e-08
4.51998e-12
-1.43279e-12
3.54056e-08
-7.81791e-13
2.77736e-08
2.7617e-12
7.17421e-12
4.78179e-08
6.94414e-12
4.48489e-08
5.24087e-12
3.92167e-08
3.15141e-08
3.21289e-12
3.38299e-12
-3.42625e-12
3.49998e-08
3.22715e-12
-2.9732e-12
3.23698e-08
2.5103e-12
-2.29339e-12
2.7243e-08
-1.38727e-12
1.98849e-08
1.41411e-12
3.52963e-12
-2.86346e-12
3.94836e-08
3.40331e-12
-2.36222e-12
3.67228e-08
2.66309e-12
-1.66304e-12
3.13958e-08
-9.98509e-13
2.38849e-08
1.82184e-12
3.75938e-12
-1.66939e-12
4.37843e-08
3.62872e-12
-1.36261e-12
4.09068e-08
2.79679e-12
-9.01605e-13
3.54057e-08
-5.22779e-13
2.77742e-08
1.82066e-12
4.41477e-12
4.78154e-08
4.25473e-12
4.48476e-08
3.27159e-12
3.92167e-08
3.15148e-08
2.12599e-12
2.12319e-12
-1.92753e-12
3.49994e-08
2.01103e-12
-1.70457e-12
3.23697e-08
1.57959e-12
-1.35868e-12
2.72431e-08
-8.43922e-13
1.98851e-08
9.08653e-13
2.17303e-12
-1.60824e-12
3.94829e-08
2.077e-12
-1.34465e-12
3.67224e-08
1.64881e-12
-9.85253e-13
3.13958e-08
-6.12653e-13
2.38851e-08
1.17017e-12
2.29095e-12
-9.47995e-13
4.37832e-08
2.18642e-12
-7.80089e-13
4.09062e-08
1.71496e-12
-5.4888e-13
3.54057e-08
-3.30229e-13
2.77745e-08
1.16373e-12
2.69734e-12
4.78139e-08
2.58549e-12
4.48469e-08
2.01462e-12
3.92167e-08
3.15151e-08
1.36036e-12
1.46699e-12
-9.56357e-13
3.49992e-08
1.35261e-12
-8.63542e-13
3.23696e-08
1.05423e-12
-7.08285e-13
2.72432e-08
-4.4914e-13
1.98852e-08
6.07906e-13
1.46256e-12
-8.05189e-13
3.94824e-08
1.36334e-12
-6.8126e-13
3.67222e-08
1.07784e-12
-5.12e-13
3.13959e-08
-3.20346e-13
2.38852e-08
7.52218e-13
1.50059e-12
-4.88833e-13
4.37826e-08
1.39879e-12
-4.00842e-13
4.09059e-08
1.09764e-12
-2.86298e-13
3.54057e-08
-1.68514e-13
2.77746e-08
7.40838e-13
1.71038e-12
4.78132e-08
1.60797e-12
4.48465e-08
1.25291e-12
3.92168e-08
3.15154e-08
8.46343e-13
1.49487e-12
-4.37272e-13
1.3292e-12
-4.14462e-13
1.02095e-12
-3.65421e-13
-2.50048e-13
6.08905e-13
1.44176e-12
-3.66828e-13
1.28992e-12
-3.15395e-13
9.9423e-13
-2.46774e-13
-1.62421e-13
6.79043e-13
1.40598e-12
-2.25364e-13
1.25746e-12
-1.91309e-13
9.64175e-13
-1.37663e-13
-9.06673e-14
6.39435e-13
1.43751e-12
1.29737e-12
1.00534e-12
6.58538e-13
7.29315e-09
-6.26426e-09
3.7464e-08
9.11885e-09
-4.57377e-09
4.03872e-08
7.93448e-09
-3.26281e-09
4.7206e-08
-7.16665e-09
6.51294e-08
7.64997e-09
-2.26084e-09
2.23701e-08
4.6307e-09
-4.18663e-09
3.91333e-08
9.75851e-10
-2.5988e-09
4.35597e-08
-6.74462e-10
3.98263e-08
3.61152e-09
3.93785e-09
1.56239e-08
4.539e-09
-5.20817e-10
2.64605e-08
6.87533e-09
1.43112e-09
2.90646e-08
1.19949e-09
4.49724e-08
-3.70244e-09
2.98361e-08
8.31e-09
1.01855e-08
7.0435e-09
2.8553e-08
3.94003e-08
-6.20484e-10
1.22386e-09
2.24327e-08
1.76593e-08
2.98948e-09
1.77116e-08
1.06478e-08
-3.23104e-09
6.06648e-08
-5.35244e-09
7.68401e-08
2.12676e-09
-6.70432e-10
2.41035e-08
4.54921e-10
-1.04284e-09
4.48375e-08
1.36284e-09
-3.77526e-09
4.3196e-08
-2.29564e-09
3.80926e-08
1.60713e-09
-1.41503e-09
2.10477e-08
-1.78017e-09
-5.14512e-10
2.93194e-08
2.22323e-09
-7.8626e-10
2.20722e-08
-2.09163e-09
4.70658e-08
-3.84485e-09
3.23853e-08
-1.64457e-09
6.77992e-09
2.81377e-09
2.21013e-08
3.86585e-08
3.50303e-09
-9.69043e-10
2.81888e-08
-1.64969e-09
-4.95926e-09
2.83024e-08
6.80571e-09
-1.83913e-09
5.02891e-08
-6.96513e-10
6.69093e-08
5.88344e-09
-1.38013e-09
2.16286e-08
-1.38104e-09
3.79507e-10
4.67632e-08
7.03657e-09
1.1342e-09
3.1805e-08
-1.20164e-09
4.55811e-08
5.91454e-09
-3.26332e-09
1.67099e-08
1.51916e-09
-3.2678e-09
3.7362e-08
3.48296e-09
-3.42064e-09
2.46632e-08
-7.15191e-09
5.62928e-08
4.50989e-09
2.91476e-08
-2.72168e-09
1.00512e-08
-3.27887e-09
1.96374e-08
2.84519e-08
1.93133e-09
-3.31235e-09
4.05283e-08
-8.93721e-10
-5.10317e-09
3.61857e-08
-3.59469e-09
-8.68414e-10
4.91459e-08
-7.91619e-10
5.26915e-08
3.85017e-10
1.2277e-09
1.40207e-08
5.55631e-09
1.7506e-09
3.47381e-08
-2.9699e-09
-2.11282e-09
4.15757e-08
-2.87196e-09
4.49953e-08
1.39889e-09
-1.29024e-09
1.42328e-08
-1.40757e-09
1.26489e-09
4.06542e-08
4.57956e-11
2.30773e-10
2.08662e-08
-1.62476e-09
5.48273e-08
4.3133e-09
2.20429e-08
-2.90654e-09
2.25621e-08
-3.86461e-09
2.22438e-08
2.49075e-08
-3.87285e-09
4.2652e-10
4.58081e-08
2.70754e-09
2.05084e-10
2.87023e-08
-1.00618e-08
-1.54374e-09
6.84756e-08
1.60528e-09
4.74656e-08
-2.77243e-09
-2.21858e-09
2.07986e-08
4.92388e-10
-2.49365e-09
3.4172e-08
-3.56853e-09
-2.11916e-09
4.6212e-08
-2.84699e-09
4.59716e-08
2.8016e-09
-7.72802e-10
8.86455e-09
-1.06394e-09
-2.93111e-09
4.49571e-08
-6.09253e-09
-5.4841e-10
2.43241e-08
2.22795e-09
4.40672e-08
1.93503e-09
1.93378e-08
1.23221e-09
2.20509e-08