/*--------------------------------*- C++ -*----------------------------------*\
| =========                 |                                                 |
| \\      /  F ield         | OpenFOAM: The Open Source CFD Toolbox           |
|  \\    /   O peration     | Version:  2506                                  |
|   \\  /    A nd           | Website:  www.openfoam.com                      |
|    \\/     M anipulation  |                                                 |
\*---------------------------------------------------------------------------*/
FoamFile
{
    version     2.0;
    format      ascii;
    arch        "LSB;label=32;scalar=64";
    class       volVectorField;
    location    "0.05";
    object      stored_U;
}
// * * * * * * * * * * * * * * * * * * * * * * * * * * * * * * * * * * * * * //

dimensions      [0 1 -1 0 0 0 0];

internalField   nonuniform List<vector> 
1152
(
(-0.00850415 0.0024913 0.0383425)
(-0.0014442 -0.000611088 0.00935109)
(0.000420577 -0.00263736 0.0140013)
(0.000662351 -0.000650084 0.00447331)
(0.00465149 -0.0157316 0.0310668)
(-0.000699401 -0.00176271 0.0122759)
(0.000740329 -0.00286578 0.0156625)
(0.00293056 -0.0012213 0.0152444)
(0.000422843 -0.00106374 0.00395746)
(0.0019866 -0.00262142 0.0160198)
(0.0012312 0.00033926 0.0146894)
(0.00189164 0.000317654 0.0172304)
(0.000766134 -5.07259e-05 0.0126561)
(0.00229251 -0.0010905 0.0116425)
(0.00300448 0.00122549 0.0112558)
(0.00265749 0.00172469 0.0196862)
(-0.0213138 -0.00858148 0.0334748)
(-3.46342e-05 -0.000175653 0.0133278)
(0.00514623 0.00148316 0.0348518)
(0.00066207 -0.00023045 0.0197301)
(0.000864166 -0.0010486 0.0129162)
(0.00301442 -0.00103931 0.0184662)
(0.000776866 -0.00136678 0.0138736)
(0.00224699 -0.00378472 0.0195018)
(0.000115206 -0.000170118 0.00119686)
(5.00805e-05 -0.000853848 0.0327177)
(0.000578501 -0.000254588 0.0143176)
(0.00244627 -0.000743577 0.0144726)
(0.00336584 -0.00264001 0.0311423)
(0.000516534 -0.000186666 0.0126801)
(0.00284741 -0.0011405 0.0432565)
(-4.49844e-05 -0.000487611 0.000882518)
(0.00430566 -0.00123592 0.0122281)
(0.00469365 -0.0013887 0.0196043)
(0.000965945 0.000249807 0.00719219)
(0.00731052 0.00124978 0.0515498)
(0.00208743 0.00310872 0.015661)
(0.0028817 -0.00132359 0.0258202)
(0.00250756 -0.00058717 0.0240366)
(0.00148948 -0.000361758 0.012388)
(0.00157194 0.00119144 0.0222274)
(0.00114109 0.000386598 0.0255199)
(0.00200186 -0.00127892 0.018135)
(0.00162609 -0.00135728 0.0232689)
(0.00120295 -0.000789728 0.0225864)
(-5.49e-05 0.00138131 0.0169015)
(0.0003683 -0.000382691 0.0156675)
(0.00313373 -0.0010157 0.0407386)
(0.0022928 -0.000746606 0.0113128)
(0.00219485 -0.00121641 0.0159931)
(-0.0060584 0.00115635 0.0381692)
(0.000757611 -0.000211939 0.0119799)
(0.00251326 0.000793409 0.0281337)
(0.00255447 -0.00264954 0.0203155)
(0.00127362 -0.000620696 0.0156305)
(-0.000949493 0.00179679 0.0186859)
(0.000378844 0.000866354 0.0220697)
(0.00145949 0.000260498 0.0236823)
(0.00186352 -0.00223766 0.0215674)
(0.000312927 -0.0014643 0.0268636)
(0.00213226 0.00296098 0.0359805)
(4.4557e-05 0.00109157 0.0183894)
(0.000796943 -0.000541722 0.0364472)
(-5.10826e-05 -0.00330106 0.0300221)
(-0.000190077 -4.14349e-05 0.00148476)
(-0.00591141 0.00319196 0.0463767)
(-0.000144702 -4.97378e-05 0.00226709)
(0.000182352 -0.00034426 0.0218326)
(0.00233594 -0.00358269 0.0205151)
(-0.00017141 -0.000911213 0.0102243)
(0.000212029 -0.0010847 0.0412885)
(0.000707862 -0.00149233 0.0229373)
(0.000370236 -0.000465184 0.0159681)
(0.00128877 -0.00177325 0.0257754)
(0.000752434 -0.000509666 0.0179542)
(-0.000652645 -0.00256916 0.0368683)
(0.000181527 0.00371445 0.0248346)
(-0.000240015 0.000730911 0.0139411)
(-3.56128e-05 0.00022755 0.0107698)
(-0.00108109 -0.00259149 0.0455405)
(-0.00290537 0.0032632 0.0299748)
(0.00235363 0.000891486 0.0154615)
(0.00363044 -0.000636471 0.0188008)
(0.00116039 0.00099254 0.0148366)
(0.0024911 0.00494757 0.0285567)
(0.00279769 0.00202865 0.0165086)
(0.00106533 0.000725371 0.00891558)
(0.000334192 0.00035231 0.0121657)
(0.000373274 0.000196185 0.00805629)
(0.000417252 0.000600062 0.00777482)
(0.00141078 -0.00147925 0.0134706)
(0.00122901 -0.0027978 0.0145282)
(0.000697168 -0.0001336 0.0278803)
(0.000160504 0.00015717 0.00442778)
(-0.00343303 -0.000350943 0.0250598)
(1.01651e-05 0.00101114 0.0165634)
(-7.26026e-05 8.69327e-05 0.00242092)
(0.000283343 -0.000426997 0.0155998)
(-0.000294806 0.000358752 0.00460055)
(-0.00105109 0.00021614 0.0126816)
(-0.00019616 -0.000453256 0.0153542)
(-0.000178778 0.00016098 0.0188068)
(-0.000167797 -0.000440614 0.0226238)
(0.000164683 -7.66746e-05 0.0197631)
(5.3269e-05 0.000434578 0.0128624)
(-0.00293333 -0.00131738 0.008908)
(-0.000374469 0.000228173 0.0126445)
(0.000153 -2.23722e-05 0.0232978)
(-0.00048438 0.000116962 0.00212209)
(-0.000734538 -0.000688058 0.0152791)
(5.20942e-05 -0.00510764 0.0026865)
(-9.94229e-05 0.000344111 0.0191021)
(-3.35572e-05 -0.000140869 0.0147982)
(-0.00051948 -0.000218936 0.0209928)
(-0.00145627 0.00112633 0.0131742)
(-0.00156629 0.00051783 0.019993)
(-0.000710385 0.000225884 0.0269948)
(-0.00129643 0.000166098 0.02691)
(-0.00157024 0.000360474 0.025551)
(-0.000782989 0.000246616 0.0233384)
(-0.000186289 -0.000334814 0.0199769)
(-0.000768478 0.000120998 0.0179136)
(-0.00155609 0.00159098 0.0222448)
(-0.00105771 0.00132786 0.0262896)
(-0.000455373 1.41918e-05 0.00701701)
(0.000646805 -7.65057e-05 0.0171647)
(-0.000457198 0.000151339 0.0205015)
(-0.00126895 0.000638343 0.0267424)
(0.00013706 -0.000359467 0.00550128)
(-0.000442682 -1.28742e-05 0.00538544)
(-0.000634494 0.000430741 0.00486927)
(-0.00141488 0.000127159 0.0055942)
(-0.000800001 -3.80631e-05 0.00589267)
(-0.000858511 0.00027946 0.00615163)
(-0.000757465 -0.000449124 0.0063822)
(-0.00051462 -0.000522762 0.00655022)
(-4.63346e-05 0.001181 0.00430819)
(-0.00103269 0.000951429 0.00419013)
(-0.00164637 0.000652243 0.00522848)
(-0.00112073 -4.93628e-05 0.00662035)
(-0.000335501 -6.48587e-05 0.0027648)
(-0.00140956 -0.00017923 0.00366061)
(-0.00176584 2.71686e-05 0.00396564)
(-0.00117621 3.78659e-05 0.00583343)
(-0.000121127 0.000117153 0.0125217)
(-0.000352296 0.000155551 0.0127919)
(-0.000444215 0.000217939 0.0124299)
(-0.000703369 9.7831e-05 0.0127855)
(-0.000456666 0.000211283 0.0128284)
(-0.000556981 0.000294532 0.0131018)
(-0.000565875 5.5142e-05 0.0131556)
(-0.000440111 7.54849e-06 0.0132126)
(-0.000209208 0.000522287 0.012161)
(-0.000593929 0.000537812 0.0123293)
(-0.000834879 0.000510042 0.0127651)
(-0.000568396 0.000338692 0.0133137)
(-0.000228526 -4.94164e-05 0.0114206)
(-0.000595195 2.5467e-05 0.0119758)
(-0.000762369 0.000223264 0.0124247)
(-0.000387849 0.000345458 0.0130918)
(-0.000145551 0.000103327 0.010609)
(-0.000230597 9.94027e-05 0.0107393)
(-0.000270696 8.844e-05 0.0106784)
(-0.000353404 4.61349e-05 0.010819)
(-0.000247914 0.00011828 0.0106246)
(-0.000309247 0.000138656 0.0107731)
(-0.000328716 5.87886e-05 0.0108533)
(-0.000296579 3.05295e-05 0.0109246)
(-0.000164948 0.000170371 0.0103751)
(-0.000321794 0.000197454 0.0104835)
(-0.000418163 0.000187915 0.0106419)
(-0.000345771 0.000130845 0.010826)
(-0.000135628 -7.61079e-05 0.0101505)
(-0.000301374 -2.44191e-05 0.0103107)
(-0.000390475 4.14674e-05 0.0104242)
(-0.000295385 4.69654e-05 0.0105809)
(-0.000112522 6.39633e-05 0.0110795)
(-0.000146776 6.07893e-05 0.0111447)
(-0.000164969 5.42908e-05 0.0111502)
(-0.000190533 4.78445e-05 0.0112134)
(-0.000138315 6.2251e-05 0.0110661)
(-0.000166816 7.33593e-05 0.0111403)
(-0.000175591 6.18147e-05 0.0111893)
(-0.000163539 6.81843e-05 0.0112363)
(-0.000103553 5.39507e-05 0.0109847)
(-0.000155758 8.29186e-05 0.0110443)
(-0.000180147 0.000104299 0.0111115)
(-0.000145822 0.000119045 0.0111852)
(-7.01966e-05 -5.47902e-05 0.0109204)
(-0.000117777 -1.20802e-05 0.0109818)
(-0.000133902 3.75556e-05 0.0110286)
(-8.46741e-05 7.90751e-05 0.0110842)
(-7.83537e-05 3.55492e-05 0.0110936)
(-9.43641e-05 3.50929e-05 0.0111275)
(-0.000103554 3.42135e-05 0.0111435)
(-0.000110609 3.62943e-05 0.0111724)
(-8.20012e-05 3.023e-05 0.0110792)
(-9.65066e-05 3.76248e-05 0.0111163)
(-0.000102073 4.11432e-05 0.0111411)
(-9.77715e-05 4.94621e-05 0.0111622)
(-6.50226e-05 1.55854e-05 0.0110483)
(-8.42889e-05 3.41881e-05 0.0110762)
(-9.29249e-05 5.0907e-05 0.0110981)
(-8.03573e-05 6.65457e-05 0.0111141)
(-4.31372e-05 -3.09695e-05 0.0110255)
(-5.96665e-05 -8.36667e-06 0.0110431)
(-6.54131e-05 1.6435e-05 0.0110441)
(-4.93346e-05 3.77036e-05 0.0110342)
(-5.30687e-05 1.98653e-05 0.0111136)
(-6.10426e-05 2.11812e-05 0.0111318)
(-6.58613e-05 2.2596e-05 0.0111447)
(-6.72731e-05 2.59856e-05 0.011156)
(-5.12724e-05 1.5663e-05 0.011104)
(-5.87117e-05 2.1222e-05 0.0111227)
(-6.21018e-05 2.66218e-05 0.0111354)
(-5.97735e-05 3.36995e-05 0.0111422)
(-4.19573e-05 5.80042e-06 0.0110899)
(-4.97455e-05 1.67426e-05 0.0111031)
(-5.29181e-05 2.82037e-05 0.0111103)
(-4.71926e-05 3.98942e-05 0.0111088)
(-2.93555e-05 -1.47835e-05 0.0110766)
(-3.50811e-05 -3.06912e-06 0.0110813)
(-3.65225e-05 1.05998e-05 0.0110751)
(-2.9161e-05 2.37476e-05 0.0110555)
(-3.61511e-05 1.16001e-05 0.0111268)
(-4.05469e-05 1.31729e-05 0.011137)
(-4.29258e-05 1.48641e-05 0.0111442)
(-4.27011e-05 1.74895e-05 0.0111457)
(-3.39176e-05 8.91568e-06 0.0111205)
(-3.79914e-05 1.27529e-05 0.0111298)
(-3.98499e-05 1.6851e-05 0.0111352)
(-3.82019e-05 2.15662e-05 0.011133)
(-2.86159e-05 3.35943e-06 0.0111117)
(-3.22844e-05 9.65791e-06 0.0111172)
(-3.37385e-05 1.6563e-05 0.0111172)
(-3.06465e-05 2.35886e-05 0.0111068)
(-2.16395e-05 -6.14709e-06 0.0110994)
(-2.40652e-05 -1.33614e-07 0.011099)
(-2.46854e-05 7.04746e-06 0.011089)
(-2.1089e-05 1.43063e-05 0.011064)
(-2.49603e-05 7.16192e-06 0.0111342)
(-2.7374e-05 8.43085e-06 0.01114)
(-2.84773e-05 9.7721e-06 0.0111429)
(-2.7733e-05 1.14825e-05 0.0111389)
(-2.32775e-05 5.63443e-06 0.0111298)
(-2.54922e-05 8.09156e-06 0.0111345)
(-2.63805e-05 1.07622e-05 0.0111354)
(-2.49992e-05 1.36461e-05 0.0111281)
(-2.02151e-05 2.68167e-06 0.0111227)
(-2.20891e-05 6.31059e-06 0.0111247)
(-2.2735e-05 1.03216e-05 0.0111208)
(-2.06427e-05 1.43292e-05 0.0111063)
(-1.63237e-05 -1.92593e-06 0.0111101)
(-1.75044e-05 1.19378e-06 0.0111076)
(-1.77692e-05 4.95292e-06 0.0110959)
(-1.55111e-05 8.99135e-06 0.0110689)
(-1.74584e-05 4.624e-06 0.0111383)
(-1.87192e-05 5.5177e-06 0.0111415)
(-1.9152e-05 6.4374e-06 0.0111415)
(-1.83169e-05 7.47977e-06 0.0111341)
(-1.63274e-05 3.84433e-06 0.0111349)
(-1.75066e-05 5.34861e-06 0.0111371)
(-1.78507e-05 6.9826e-06 0.0111352)
(-1.66591e-05 8.67934e-06 0.0111248)
(-1.45357e-05 2.28829e-06 0.0111284)
(-1.55164e-05 4.38492e-06 0.0111284)
(-1.57474e-05 6.68419e-06 0.0111223)
(-1.41709e-05 8.93632e-06 0.0111054)
(-1.23237e-05 -6.64409e-08 0.0111153)
(-1.29425e-05 1.55787e-06 0.0111117)
(-1.30112e-05 3.52084e-06 0.0110989)
(-1.13874e-05 5.769e-06 0.0110707)
(-1.23027e-05 3.08525e-06 0.0111406)
(-1.29296e-05 3.67359e-06 0.0111421)
(-1.30147e-05 4.25938e-06 0.0111402)
(-1.2253e-05 4.87567e-06 0.0111308)
(-1.1577e-05 2.71045e-06 0.0111377)
(-1.21804e-05 3.62311e-06 0.0111383)
(-1.22395e-05 4.59757e-06 0.0111347)
(-1.12502e-05 5.57962e-06 0.0111225)
(-1.0513e-05 1.89165e-06 0.0111315)
(-1.10193e-05 3.11632e-06 0.0111302)
(-1.10338e-05 4.43885e-06 0.0111229)
(-9.80824e-06 5.71163e-06 0.0111045)
(-9.22506e-06 6.23705e-07 0.0111181)
(-9.55034e-06 1.47267e-06 0.0111138)
(-9.49935e-06 2.50526e-06 0.0111002)
(-8.26092e-06 3.78156e-06 0.0110712)
(-8.66024e-06 2.10473e-06 0.0111418)
(-8.98436e-06 2.46524e-06 0.0111423)
(-8.90422e-06 2.82283e-06 0.0111392)
(-8.2626e-06 3.18014e-06 0.0111285)
(-8.21472e-06 1.89926e-06 0.0111392)
(-8.5188e-06 2.46253e-06 0.0111389)
(-8.44435e-06 3.04437e-06 0.0111342)
(-7.65443e-06 3.61461e-06 0.0111208)
(-7.57691e-06 1.47782e-06 0.0111331)
(-7.83269e-06 2.20805e-06 0.0111311)
(-7.74728e-06 2.97824e-06 0.0111229)
(-6.80083e-06 3.70951e-06 0.0111036)
(-6.80988e-06 7.68942e-07 0.0111196)
(-6.97585e-06 1.21617e-06 0.0111148)
(-6.86689e-06 1.76532e-06 0.0111007)
(-5.91762e-06 2.50698e-06 0.0110711)
(-6.02764e-06 1.44796e-06 0.0111424)
(-6.21704e-06 1.65277e-06 0.0111422)
(-6.07605e-06 1.86484e-06 0.0111384)
(-5.57083e-06 2.0691e-06 0.0111269)
(-5.76596e-06 1.29885e-06 0.01114)
(-5.92228e-06 1.65557e-06 0.011139)
(-5.79965e-06 2.00822e-06 0.0111337)
(-5.19619e-06 2.34506e-06 0.0111196)
(-5.38235e-06 1.09125e-06 0.011134)
(-5.50717e-06 1.53838e-06 0.0111315)
(-5.38835e-06 1.99506e-06 0.0111227)
(-4.6782e-06 2.42406e-06 0.0111028)
(-4.91751e-06 6.88284e-07 0.0111205)
(-4.99564e-06 9.28322e-07 0.0111153)
(-4.87233e-06 1.22538e-06 0.0111007)
(-4.16003e-06 1.66618e-06 0.0110707)
(-4.08427e-06 9.83393e-07 0.0111427)
(-4.19667e-06 1.09577e-06 0.011142)
(-4.05703e-06 1.21643e-06 0.0111377)
(-3.68646e-06 1.3333e-06 0.0111257)
(-3.93433e-06 8.70846e-07 0.0111404)
(-4.01344e-06 1.09541e-06 0.011139)
(-3.89158e-06 1.30862e-06 0.0111332)
(-3.45516e-06 1.5086e-06 0.0111186)
(-3.70427e-06 7.70158e-07 0.0111345)
(-3.76027e-06 1.04586e-06 0.0111316)
(-3.64724e-06 1.31885e-06 0.0111224)
(-3.13897e-06 1.57152e-06 0.0111022)
(-3.42139e-06 5.38123e-07 0.011121)
(-3.45211e-06 6.6843e-07 0.0111155)
(-3.34247e-06 8.30731e-07 0.0111007)
(-2.83188e-06 1.09427e-06 0.0110703)
(-2.59255e-06 6.44028e-07 0.0111428)
(-2.64633e-06 7.05048e-07 0.0111419)
(-2.54119e-06 7.70704e-07 0.0111372)
(-2.29625e-06 8.34269e-07 0.0111249)
(-2.50836e-06 5.75241e-07 0.0111406)
(-2.5418e-06 7.06185e-07 0.011139)
(-2.4492e-06 8.28165e-07 0.0111329)
(-2.16094e-06 9.40706e-07 0.011118)
(-2.37459e-06 5.21736e-07 0.0111348)
(-2.39498e-06 6.83312e-07 0.0111316)
(-2.30987e-06 8.40037e-07 0.0111222)
(-1.97547e-06 9.83229e-07 0.0111017)
(-2.20805e-06 3.85189e-07 0.0111213)
(-2.21647e-06 4.5252e-07 0.0111156)
(-2.13616e-06 5.37766e-07 0.0111005)
(-1.79925e-06 6.89612e-07 0.01107)
(-1.34515e-06 3.8286e-07 0.0111429)
(-1.36296e-06 4.13163e-07 0.0111418)
(-1.30796e-06 4.44365e-07 0.0111369)
(-1.18014e-06 4.74698e-07 0.0111244)
(-1.30369e-06 3.50896e-07 0.0111407)
(-1.31429e-06 4.13774e-07 0.0111389)
(-1.26526e-06 4.72654e-07 0.0111326)
(-1.1125e-06 5.26844e-07 0.0111176)
(-1.23641e-06 3.18255e-07 0.0111349)
(-1.24243e-06 3.97913e-07 0.0111316)
(-1.19738e-06 4.74937e-07 0.0111221)
(-1.01824e-06 5.45151e-07 0.0111014)
(-1.15196e-06 2.4016e-07 0.0111215)
(-1.15398e-06 2.66873e-07 0.0111156)
(-1.11154e-06 3.03757e-07 0.0111005)
(-9.30301e-07 3.79556e-07 0.0110698)
(-1.33641e-07 9.99177e-08 0.011143)
(-1.45978e-07 1.09223e-07 0.0111418)
(-1.51395e-07 1.19153e-07 0.0111369)
(-1.44201e-07 1.29903e-07 0.0111243)
(-1.23481e-07 8.57279e-08 0.0111408)
(-1.33875e-07 1.00443e-07 0.011139)
(-1.40419e-07 1.15156e-07 0.0111326)
(-1.24829e-07 1.29367e-07 0.0111175)
(-1.09062e-07 6.88512e-08 0.011135)
(-1.17294e-07 8.54147e-08 0.0111317)
(-1.24476e-07 1.02313e-07 0.011122)
(-9.98992e-08 1.17952e-07 0.0111013)
(-9.24883e-08 4.00982e-08 0.0111216)
(-9.87127e-08 3.54372e-08 0.0111157)
(-1.05898e-07 3.5441e-08 0.0111005)
(-8.06797e-08 4.98132e-08 0.0110698)
(0.00238004 -0.00127553 0.0219913)
(0.00229423 -0.00075093 0.0132543)
(0.00732381 -0.00244604 0.0254891)
(0.00193961 0.000550158 0.0168397)
(0.00095618 0.000189361 0.00932916)
(0.00161448 0.000481761 0.00897637)
(0.00524065 -0.000338077 0.0165277)
(0.0026952 0.00206087 0.015668)
(0.0029735 0.000534535 0.0220868)
(0.00363731 0.00125706 0.018851)
(0.00446287 2.30103e-05 0.017801)
(0.00444172 0.00280357 0.0221457)
(-1.56643e-05 -2.37653e-05 0.00235293)
(0.00132985 -0.000413789 0.00838782)
(0.00395881 -0.00185771 0.0173335)
(0.00265356 -0.000566423 0.0163828)
(-0.000504632 -0.000455708 0.0246703)
(0.000809322 0.000611428 0.0129164)
(0.00215713 -0.0010087 0.0244072)
(0.00352992 0.00013072 0.0223374)
(0.000657747 -6.25662e-05 0.0270249)
(0.000896443 -6.58095e-05 0.0205736)
(0.000531665 0.000231459 0.00429741)
(0.00139014 -0.000894842 0.0157878)
(0.00131203 0.000426627 0.0195544)
(0.00221692 -0.000502732 0.0239568)
(0.0021062 -0.000160879 0.0304848)
(0.000259674 -0.00144632 0.028653)
(0.00345977 0.00249578 0.0407441)
(0.000930037 0.00161777 0.0305654)
(4.3332e-05 -0.000743369 0.0149483)
(0.0023599 -8.36264e-05 0.0353492)
(0.000500395 -0.000162615 0.0111791)
(0.000840552 -6.81228e-06 0.0252391)
(0.000429502 0.00163154 0.0196919)
(0.000115544 -0.000347001 0.000833625)
(1.11541e-05 0.0001681 0.00682937)
(0.00194272 -0.00209258 0.0322527)
(0.000918461 -0.000776142 0.019214)
(-0.000629016 -0.00336661 0.0430797)
(-0.000347502 -0.00203549 0.0240126)
(-0.00050405 -0.00114946 0.0122688)
(-0.000658134 -0.00302535 0.0417136)
(-0.000718125 -0.00303192 0.0188832)
(-0.00125342 -0.00162725 0.0134526)
(0.0015483 -0.00223037 0.0291512)
(0.000930254 -0.000575647 0.0205679)
(-0.000187871 -0.0015897 0.0373881)
(0.00109064 0.00164613 0.0129314)
(-0.00152791 0.000475013 0.0333304)
(-0.00106232 0.000154807 0.0124745)
(-0.000529679 -0.00135532 0.0178594)
(0.00146891 0.000917184 0.0219765)
(-0.00169099 0.00106185 0.0181898)
(-0.00118303 -0.000198635 0.0271219)
(0.000736085 -0.00212378 0.0301938)
(0.000427329 -0.00258061 0.0365374)
(-0.00215684 -0.000143154 0.0286466)
(-0.00244602 0.000232981 0.023454)
(-0.000197857 -0.00102045 0.0164193)
(-0.00218334 -0.000752953 0.026395)
(-0.00138121 -0.00160021 0.0203776)
(-0.000692026 -0.000126574 0.0204176)
(-0.000100028 -0.00103545 0.031308)
(0.000994231 0.00181879 0.0214831)
(-0.00328523 0.00393135 0.0390343)
(-0.00117712 3.23062e-05 0.0203652)
(-0.0004579 -0.000342737 0.00898712)
(-0.00184717 -0.000667589 0.0384525)
(-0.00104814 0.00081448 0.012622)
(-0.00143368 0.00029147 0.0180736)
(-6.73045e-05 2.87109e-05 0.0290611)
(-7.11548e-05 -0.000178434 0.00117914)
(-0.00169516 0.000826737 0.0420107)
(-0.001384 0.00291991 0.041403)
(-0.000399663 -8.30194e-05 0.0154462)
(-0.00138075 -4.08687e-05 0.0165277)
(-0.000504139 0.000489768 0.0192987)
(-0.00110952 0.00100094 0.0183912)
(-0.00137549 -0.0003588 0.0329382)
(-0.00381519 0.00853048 0.034163)
(0.00045869 -0.000428947 0.0105294)
(0.0016411 0.000649836 0.0153924)
(-0.000102739 0.000294919 0.00324266)
(-6.65754e-05 0.000252806 0.00140105)
(-0.00102633 0.00258354 0.0175274)
(-0.000160936 0.000449124 0.0100641)
(-0.000852751 0.000377272 0.0150726)
(-0.00118889 0.000850829 0.0218913)
(-0.000406991 0.00152993 0.0135967)
(-0.0001978 0.000608911 0.0160289)
(-0.000485733 0.000654268 0.0104138)
(-0.00023402 0.000506913 0.0109358)
(-0.000627297 0.000627391 0.0137546)
(-0.000915326 0.00110321 0.0174707)
(-0.00139113 0.000320584 0.0130843)
(0.000156615 0.000100761 0.00443392)
(0.000176571 0.00016751 0.016485)
(0.000822296 0.000126384 0.0122164)
(-0.000312618 0.00041455 0.0108821)
(-6.63648e-05 0.000572472 0.0132471)
(0.000935526 6.78121e-05 0.0081231)
(0.000959948 -0.000974129 0.00880166)
(-0.00151828 -0.00188552 0.0131301)
(-0.00095285 0.00243548 0.0227549)
(-0.000268915 0.000301768 0.0242789)
(-9.46551e-05 9.32229e-05 0.0198269)
(-0.000193232 0.000117793 0.0144051)
(-0.000346453 0.000477849 0.0110193)
(-0.000253266 0.00033591 0.0138298)
(-0.00015522 8.09166e-05 0.0149432)
(-0.00102688 -0.0011066 0.0177309)
(-0.000446383 0.000359615 0.0150617)
(0.000426867 0.000680676 0.0202509)
(-0.000334833 3.62025e-05 0.0193852)
(-0.000970377 0.000339777 0.0220837)
(-0.000716834 0.000142848 0.0306554)
(0.000619046 -0.0003547 0.0201523)
(-0.000527952 -0.000369014 0.0212883)
(-0.00092821 4.076e-05 0.021178)
(-0.00257348 0.000658186 0.0275281)
(6.74135e-05 -0.000536561 0.0260331)
(-2.93705e-05 -0.000507366 0.0250859)
(-0.000396794 -7.27277e-05 0.0211799)
(-0.000325684 0.000257829 0.0172994)
(0.000254 0.000145899 0.0196641)
(0.000100191 1.08514e-05 0.0224297)
(-0.000107953 -9.26723e-05 0.0234168)
(0.000167228 -0.00207429 0.00383031)
(-0.000702269 -0.000798426 0.00418229)
(-0.0011199 -0.000391523 0.00407209)
(-0.000950206 -2.05354e-05 0.00486985)
(0.00101706 -0.00180483 0.00672235)
(0.000196118 -0.00109487 0.00478554)
(-0.000767134 -0.00068482 0.00445106)
(-0.000711962 -0.000264683 0.00449187)
(0.00196637 0.000352691 0.0066658)
(0.000374353 -0.000292373 0.00605836)
(-0.000220801 -0.000363157 0.005218)
(-0.000476526 -0.000379085 0.00442959)
(0.00197614 0.000573586 0.00497013)
(6.67029e-05 0.00033117 0.00495822)
(-0.000301284 0.000162955 0.00484405)
(-0.000261265 -0.00015395 0.00461318)
(-1.88362e-05 -0.000849175 0.0121715)
(-0.00025307 -0.000422213 0.0123989)
(-0.000371531 -0.000118592 0.0125019)
(-0.000236763 0.000179007 0.0128019)
(0.000247917 -0.000788712 0.0135465)
(0.000129284 -0.000564525 0.012869)
(-9.54763e-05 -0.000308491 0.0126967)
(-7.27687e-05 1.04925e-06 0.0126509)
(0.000517104 2.752e-05 0.0137948)
(0.000305943 -0.00015264 0.0132921)
(0.0002284 -0.000144499 0.0128629)
(0.000111294 -3.78145e-05 0.0125419)
(0.000758646 0.000160662 0.0128999)
(0.000292751 6.38916e-05 0.0127582)
(0.000269411 -4.09649e-05 0.0126364)
(0.000184111 -9.58519e-05 0.0124984)
(-3.66411e-05 -0.000366983 0.0103903)
(-0.000172373 -0.000200954 0.0104351)
(-0.000259113 -4.51592e-05 0.0103886)
(-0.000197371 3.99368e-05 0.0103807)
(9.47424e-05 -0.000358836 0.0108071)
(-1.24318e-05 -0.000242298 0.0105971)
(-0.000125314 -9.82895e-05 0.0103871)
(-0.000108271 -2.99347e-06 0.0102256)
(0.000234194 -0.000113887 0.0108725)
(8.60738e-05 -0.000139796 0.0106871)
(1.2468e-06 -8.79927e-05 0.0103467)
(-4.26411e-05 -4.65093e-05 0.0100598)
(0.000333768 -1.0963e-05 0.0105257)
(0.000111885 -4.80283e-05 0.0104161)
(6.13186e-05 -5.88001e-05 0.0101363)
(2.28318e-05 -6.54579e-05 0.00988172)
(-1.51266e-05 -0.000166241 0.0110049)
(-4.88349e-05 -8.93534e-05 0.0110246)
(-5.72679e-05 -4.10042e-06 0.0110137)
(-3.30577e-05 6.51763e-05 0.0110231)
(4.86452e-05 -0.000163638 0.0111211)
(2.63097e-05 -0.000109107 0.0110607)
(1.27394e-05 -3.40038e-05 0.0109817)
(8.71968e-06 2.66781e-05 0.010942)
(0.000113946 -6.32903e-05 0.0111144)
(8.21206e-05 -6.13422e-05 0.0110416)
(7.51276e-05 -2.746e-05 0.0109106)
(4.24278e-05 9.63401e-06 0.0108352)
(0.000161735 -1.17899e-05 0.0109623)
(0.000107643 -3.38718e-05 0.0109161)
(0.000106722 -4.43899e-05 0.010791)
(6.2093e-05 -3.05263e-05 0.0107215)
(-1.58568e-05 -7.15824e-05 0.0110456)
(-2.78935e-05 -3.60801e-05 0.0110399)
(-3.11886e-05 7.83932e-06 0.0110094)
(-2.31499e-05 4.05869e-05 0.0109679)
(1.51966e-05 -7.34953e-05 0.0110601)
(6.21568e-06 -4.71693e-05 0.0110225)
(6.83194e-07 -7.83295e-06 0.0109539)
(-5.29646e-06 1.8511e-05 0.0108885)
(4.48774e-05 -3.9084e-05 0.0110099)
(3.27102e-05 -3.35349e-05 0.0109598)
(2.69219e-05 -1.17689e-05 0.0108631)
(6.37001e-06 6.55756e-06 0.0107836)
(6.7956e-05 -1.28417e-05 0.0108726)
(4.95131e-05 -2.2482e-05 0.010829)
(4.46526e-05 -2.38852e-05 0.0107274)
(1.94589e-05 -1.42361e-05 0.0106521)
(-1.54119e-05 -3.01157e-05 0.0110692)
(-1.89883e-05 -1.2062e-05 0.011062)
(-1.88903e-05 1.1265e-05 0.0110387)
(-1.59011e-05 3.02775e-05 0.0110019)
(-1.66094e-07 -3.18094e-05 0.0110438)
(-2.61553e-06 -1.84109e-05 0.0110225)
(-3.52354e-06 1.75688e-06 0.0109803)
(-7.36568e-06 1.61491e-05 0.0109339)
(1.4014e-05 -1.94653e-05 0.0109738)
(1.07114e-05 -1.4449e-05 0.0109455)
(9.19276e-06 -1.27553e-06 0.01089)
(-1.40404e-06 1.055e-05 0.0108406)
(2.6454e-05 -7.47082e-06 0.0108464)
(2.18999e-05 -1.14471e-05 0.0108207)
(1.99902e-05 -1.07654e-05 0.0107633)
(6.46617e-06 -3.0788e-06 0.0107208)
(-1.43323e-05 -1.20248e-05 0.0110802)
(-1.57347e-05 -2.17941e-06 0.0110723)
(-1.56089e-05 1.04582e-05 0.0110505)
(-1.43534e-05 2.12272e-05 0.0110126)
(-6.49244e-06 -1.3365e-05 0.0110393)
(-7.44766e-06 -6.14449e-06 0.0110236)
(-7.99213e-06 4.33168e-06 0.0109903)
(-1.02488e-05 1.19547e-05 0.0109473)
(6.88869e-07 -8.75436e-06 0.0109601)
(-4.53896e-07 -5.1161e-06 0.01094)
(-1.55568e-06 2.50578e-06 0.0108995)
(-7.14709e-06 9.36501e-06 0.0108568)
(7.84716e-06 -3.57758e-06 0.0108323)
(6.65661e-06 -4.89783e-06 0.0108134)
(5.12927e-06 -3.53294e-06 0.0107731)
(-1.6091e-06 1.55018e-06 0.010738)
(-1.23522e-05 -4.17605e-06 0.0110858)
(-1.30146e-05 1.51897e-06 0.0110778)
(-1.28603e-05 8.64178e-06 0.0110567)
(-1.19278e-05 1.49795e-05 0.0110188)
(-8.09638e-06 -5.20287e-06 0.0110386)
(-8.53715e-06 -1.0766e-06 0.0110253)
(-8.82305e-06 4.57303e-06 0.0109963)
(-9.74369e-06 8.76094e-06 0.0109552)
(-4.19055e-06 -3.51661e-06 0.010955)
(-4.61047e-06 -9.4318e-07 0.0109388)
(-5.25808e-06 3.56206e-06 0.0109057)
(-7.84784e-06 7.64121e-06 0.0108663)
(2.59985e-07 -1.49172e-06 0.0108257)
(3.81056e-08 -1.69058e-06 0.0108107)
(-8.74148e-07 -3.91797e-07 0.0107797)
(-3.88028e-06 2.87069e-06 0.0107488)
(-1.00865e-05 -8.92247e-07 0.0110887)
(-1.04432e-05 2.55428e-06 0.0110806)
(-1.02633e-05 6.72805e-06 0.0110596)
(-9.40481e-06 1.05314e-05 0.0110213)
(-7.64858e-06 -1.66353e-06 0.0110388)
(-7.89747e-06 8.09098e-07 0.0110264)
(-8.00842e-06 3.96624e-06 0.010999)
(-8.16938e-06 6.28129e-06 0.0109583)
(-5.37687e-06 -1.11822e-06 0.0109532)
(-5.57925e-06 6.93434e-07 0.0109386)
(-5.9203e-06 3.41502e-06 0.0109086)
(-6.94954e-06 5.82604e-06 0.0108701)
(-2.4585e-06 -4.88739e-07 0.0108228)
(-2.47992e-06 -2.54148e-07 0.0108096)
(-2.96856e-06 8.01762e-07 0.0107827)
(-4.08476e-06 2.84193e-06 0.0107531)
(-7.92012e-06 3.60543e-07 0.0110905)
(-8.11141e-06 2.52176e-06 0.0110821)
(-7.90221e-06 5.0602e-06 0.0110609)
(-7.11733e-06 7.40521e-06 0.0110222)
(-6.45843e-06 -2.09613e-07 0.0110393)
(-6.5966e-06 1.3292e-06 0.0110272)
(-6.57525e-06 3.15887e-06 0.0110004)
(-6.37596e-06 4.4664e-06 0.0109595)
(-5.06091e-06 -1.00185e-07 0.0109528)
(-5.1656e-06 1.17673e-06 0.0109388)
(-5.28667e-06 2.86342e-06 0.01091)
(-5.55908e-06 4.31006e-06 0.0108716)
(-3.07984e-06 -4.79242e-08 0.0108218)
(-3.0603e-06 3.06828e-07 0.0108092)
(-3.26166e-06 1.10211e-06 0.0107841)
(-3.50257e-06 2.38006e-06 0.0107549)
(-6.02392e-06 7.27085e-07 0.0110916)
(-6.12074e-06 2.11835e-06 0.0110829)
(-5.90741e-06 3.70939e-06 0.0110614)
(-5.23394e-06 5.18575e-06 0.0110223)
(-5.11414e-06 3.13641e-07 0.0110399)
(-5.18612e-06 1.29712e-06 0.0110277)
(-5.09361e-06 2.39203e-06 0.0110009)
(-4.77205e-06 3.14278e-06 0.0109597)
(-4.22018e-06 2.68897e-07 0.0109529)
(-4.27439e-06 1.16614e-06 0.010939)
(-4.27078e-06 2.23428e-06 0.0109106)
(-4.21683e-06 3.11227e-06 0.0108719)
(-2.84978e-06 1.16101e-07 0.0108215)
(-2.82886e-06 4.60323e-07 0.0108092)
(-2.86994e-06 1.03683e-06 0.0107848)
(-2.75112e-06 1.84114e-06 0.0107554)
(-4.43272e-06 7.28408e-07 0.0110923)
(-4.47347e-06 1.63657e-06 0.0110833)
(-4.28073e-06 2.65214e-06 0.0110615)
(-3.7417e-06 3.59405e-06 0.0110221)
(-3.8529e-06 4.36232e-07 0.0110403)
(-3.88393e-06 1.07205e-06 0.0110279)
(-3.76929e-06 1.74167e-06 0.011001)
(-3.44951e-06 2.17922e-06 0.0109596)
(-3.26966e-06 3.50711e-07 0.0109532)
(-3.29458e-06 9.72383e-07 0.0109392)
(-3.23574e-06 1.65596e-06 0.0109107)
(-3.07319e-06 2.19477e-06 0.0108719)
(-2.3215e-06 1.53899e-07 0.0108215)
(-2.30406e-06 4.38295e-07 0.0108093)
(-2.27047e-06 8.43152e-07 0.010785)
(-2.04303e-06 1.35199e-06 0.0107555)
(-3.12112e-06 5.97654e-07 0.0110927)
(-3.13055e-06 1.18658e-06 0.0110835)
(-2.97554e-06 1.83322e-06 0.0110615)
(-2.57559e-06 2.43185e-06 0.0110218)
(-2.75156e-06 3.97663e-07 0.0110407)
(-2.75901e-06 8.05021e-07 0.0110281)
(-2.65454e-06 1.21549e-06 0.011001)
(-2.39272e-06 1.47145e-06 0.0109593)
(-2.37322e-06 3.15102e-07 0.0109534)
(-2.3812e-06 7.33026e-07 0.0109393)
(-2.31175e-06 1.16694e-06 0.0109108)
(-2.14415e-06 1.49774e-06 0.0108716)
(-1.73094e-06 1.38696e-07 0.0108217)
(-1.71679e-06 3.50672e-07 0.0108093)
(-1.66152e-06 6.24332e-07 0.010785)
(-1.44084e-06 9.45084e-07 0.0107553)
(-2.02909e-06 4.33511e-07 0.011093)
(-2.02567e-06 7.98141e-07 0.0110836)
(-1.9169e-06 1.19302e-06 0.0110614)
(-1.64877e-06 1.55837e-06 0.0110216)
(-1.80357e-06 3.01991e-07 0.0110409)
(-1.80134e-06 5.50776e-07 0.0110282)
(-1.72438e-06 7.93162e-07 0.011001)
(-1.5409e-06 9.38647e-07 0.010959)
(-1.56948e-06 2.36676e-07 0.0109536)
(-1.57056e-06 5.00033e-07 0.0109394)
(-1.51556e-06 7.62986e-07 0.0109107)
(-1.38793e-06 9.59491e-07 0.0108714)
(-1.1585e-06 1.02914e-07 0.0108218)
(-1.1496e-06 2.4369e-07 0.0108094)
(-1.10298e-06 4.16085e-07 0.010785)
(-9.37537e-07 6.11045e-07 0.0107552)
(-1.0609e-06 2.64897e-07 0.0110932)
(-1.05763e-06 4.58012e-07 0.0110836)
(-9.99074e-07 6.66154e-07 0.0110614)
(-8.56168e-07 8.60103e-07 0.0110214)
(-9.43759e-07 1.85792e-07 0.0110411)
(-9.42547e-07 3.13244e-07 0.0110283)
(-9.02405e-07 4.34987e-07 0.0110009)
(-8.06594e-07 5.07446e-07 0.0109589)
(-8.20344e-07 1.4153e-07 0.0109538)
(-8.22983e-07 2.78292e-07 0.0109395)
(-7.96481e-07 4.12387e-07 0.0109107)
(-7.31424e-07 5.15017e-07 0.0108712)
(-5.94563e-07 5.69862e-08 0.0108219)
(-5.94587e-07 1.26675e-07 0.0108094)
(-5.74438e-07 2.13603e-07 0.010785)
(-4.88594e-07 3.17181e-07 0.010755)
(-7.53178e-08 4.76639e-08 0.0110932)
(-8.00912e-08 9.35843e-08 0.0110837)
(-8.18799e-08 1.4645e-07 0.0110614)
(-6.83656e-08 1.96917e-07 0.0110214)
(-5.02787e-08 2.31568e-08 0.0110411)
(-5.68879e-08 4.09331e-08 0.0110283)
(-6.7723e-08 6.09708e-08 0.0110009)
(-7.31435e-08 7.22775e-08 0.0109589)
(-2.32426e-08 1.32212e-08 0.0109539)
(-3.28679e-08 2.61405e-08 0.0109395)
(-5.26654e-08 4.4496e-08 0.0109107)
(-7.22414e-08 6.56673e-08 0.0108712)
(3.97357e-08 -7.1344e-09 0.010822)
(2.84267e-08 -2.36846e-08 0.0108095)
(3.04662e-09 -2.60323e-08 0.010785)
(-1.28692e-08 -6.59273e-09 0.010755)
(0.00879987 -0.000412666 0.0215026)
(0.0100341 -0.00241396 0.0227221)
(0.00477181 -0.00175711 0.0120328)
(0.0037952 -0.0037818 0.0205292)
(0.00510017 -0.00264352 0.0141542)
(0.00717062 -0.00354741 0.0238679)
(0.00303604 -0.0034224 0.0131822)
(0.00162267 -0.00453303 0.0153529)
(0.000848797 -0.000412669 0.00439529)
(0.00510278 -0.00205711 0.0169745)
(0.00397536 -0.00158122 0.0176445)
(0.00259406 -0.00194779 0.0198201)
(0.00101962 0.00130696 0.0281273)
(0.00175488 3.0968e-05 0.010172)
(0.00449255 0.00179705 0.0184099)
(0.00162126 -1.13835e-05 0.0161331)
(-2.67199e-05 -0.00163555 0.0148662)
(0.00438073 0.000117397 0.014808)
(0.012898 -0.00270023 0.0409092)
(0.00427195 -0.0123664 0.0420391)
(0.00245933 7.92284e-05 0.0118438)
(0.00186074 -4.09129e-05 0.0106991)
(0.00384158 -0.00574736 0.0318617)
(0.00150166 -0.00433395 0.021408)
(0.00456135 -0.000882474 0.0253428)
(0.00112932 -0.0018377 0.0138222)
(0.000830802 -0.00179089 0.0112879)
(0.00191591 -0.00282769 0.0216207)
(0.000773657 -0.00140492 0.0205232)
(-0.000337626 -0.000154528 0.00234686)