/*--------------------------------*- C++ -*----------------------------------*\
| =========                 |                                                 |
| \\      /  F ield         | OpenFOAM: The Open Source CFD Toolbox           |
|  \\    /   O peration     | Version:  2506                                  |
|   \\  /    A nd           | Website:  www.openfoam.com                      |
|    \\/     M anipulation  |                                                 |
\*---------------------------------------------------------------------------*/
FoamFile
{
    version     2.0;
    format      ascii;
    arch        "LSB;label=32;scalar=64";
    class       volScalarField;
    location    "0.1";
    object      Ksl;
}
// * * * * * * * * * * * * * * * * * * * * * * * * * * * * * * * * * * * * * //

dimensions      [1 -3 -1 0 0 0 0];

internalField   nonuniform List<scalar> 
1152
(
42513.9
365419
178846
1.65408e+07
53391.6
120713
128914
208196
2.83857e+06
144396
96327.6
163904
215299
197844
1.02332e+06
102475
105193
132955
106040
115052
178844
173596
179044
148722
224430
101801
243059
92997.7
118136
189666
63609
709519
144605
774033
360971
163469
5.2594e+06
199698
230538
265113
266329
280161
403446
806849
278167
251149
411011
192661
2.41007e+06
183979
225038
190007
165979
279895
317436
260745
365883
218803
213741
160720
161581
299810
137054
168690
3.61558e+06
125290
234353
1.61055e+07
293217
315125
159125
217724
344055
181116
297343
153156
196905
380176
384009
205845
168891
132061
236113
181706
125989
211831
272544
196349
351929
251787
237759
270015
102605
1.04194e+06
140011
86819.4
118626
131743
129881
49188.4
112327
76268
71991.2
43558.9
106048
105455
96398.7
48176.6
413041
91000.2
148328
76417.7
0
4662.28
0
0
0
0
0
0
0
0
0
0
0
0
0
0
0
0
0
0
0
0
0
0
0
0
0
0
0
0
0
0
0
0
0
0
0
0
0
0
0
0
0
0
0
0
0
0
0
0
0
0
0
0
0
0
0
0
0
0
0
0
0
0
0
0
0
0
0
0
0
0
0
0
0
0
0
0
0
0
0
0
0
0
0
0
0
0
0
0
0
0
0
0
0
0
0
0
0
0
0
0
0
0
0
0
0
0
0
0
0
0
0
0
0
0
0
0
0
0
0
0
0
0
0
0
0
0
0
0
0
0
0
0
0
0
0
0
0
0
0
0
0
0
0
0
0
0
0
0
0
0
0
0
0
0
0
0
0
0
0
0
0
0
0
0
0
0
0
0
0
0
0
0
0
0
0
0
0
0
0
0
0
0
0
0
0
0
0
0
0
0
0
0
0
0
0
0
0
0
0
0
0
0
0
0
0
0
0
0
0
0
0
0
0
0
0
0
0
0
0
0
0
0
0
0
0
0
0
0
0
0
0
0
0
0
0
0
0
0
0
0
0
0
0
0
0
0
0
0
0
0
0
0
0
0
0
0
0
0
0
0
0
0
0
0
0
0
0
0
0
0
64190.7
206904
90435.9
99171.9
216609
217698
97382.8
157860
78977.5
134449
97748.5
111108
6.47834e+06
298399
175184
114648
222905
164105
130612
132871
119703
218082
755225
256718
130867
119776
131869
84843.9
87092.5
109034
126439
131670
292171
230683
218418
1.5129e+06
223783
126674
317026
101015
212677
803309
124131
705163
270756
168362
401900
124029
1.95707e+06
169694
535704
261524
256993
218720
274186
256697
182828
244711
174206
335689
222394
245393
231477
130445
270749
151971
168652
212189
296248
483175
205989
170876
955829
134922
151615
494589
3.8746e+06
260999
341986
205880
100419
393268
237706
2.10214e+06
1.38497e+06
128738
617532
168410
134750
260394
190996
257114
266488
199767
137286
187733
97784.6
74216.2
33830.3
22559.7
65126.6
147408
68879.1
23891.5
44221.8
35855
53667.8
101161
45479.4
61429.4
90386.2
63640.4
0
0
0
0
0
0
0
0
0
0
0
0
0
0
0
0
0
0
0
0
0
0
0
0
0
0
0
0
0
0
0
0
0
0
0
0
0
0
0
0
0
0
0
0
0
0
0
0
0
0
0
0
0
0
0
0
0
0
0
0
0
0
0
0
0
0
0
0
0
0
0
0
0
0
0
0
0
0
0
0
0
0
0
0
0
0
0
0
0
0
0
0
0
0
0
0
0
0
0
0
0
0
0
0
0
0
0
0
0
0
0
0
0
0
0
0
0
0
0
0
0
0
0
0
0
0
0
0
0
0
0
0
0
0
0
0
0
0
0
0
0
0
0
0
0
0
0
0
0
0
0
0
0
0
0
0
0
0
0
0
0
0
0
0
0
0
0
0
0
0
0
0
0
0
0
0
0
0
0
0
0
0
0
0
0
0
0
0
0
0
0
0
0
0
0
0
0
0
0
0
0
0
0
0
0
0
0
0
0
0
0
0
0
0
0
0
0
0
0
0
0
0
0
0
0
0
0
0
0
0
0
0
0
0
0
0
0
0
0
0
0
0
0
0
0
0
0
0
0
0
0
0
0
0
0
0
0
0
0
0
0
0
0
0
0
0
0
0
0
0
0
0
85820.2
53984.9
379537
177461
198441
125178
317567
128818
1.37839e+07
115763
320157
117944
76604.8
248068
80541.1
121697
119401
242020
108007
122406
136085
186274
99112.6
206830
200153
164838
210886
102169
304168
338297
111200
164179
268458
1.83648e+06
291471
408156
371663
171849
264736
192455
180047
212664
305635
198903
123560
856949
192126
198205
158875
178546
135815
144297
277079
270859
179645
181049
610171
118867
416861
173070
344072
454810
277100
209469
257680
234721
525943
333443
289128
236785
185491
355764
248335
159570
518345
136689
153008
163290
259370
294042
139565
232218
94387.8
200781
269225
219989
158678
152358
629904
147017
241642
299095
3.94276e+06
309873
213998
196000
72005.3
64029.6
77569.6
112683
77805.7
103960
27400.6
63263.6
85184.8
56028.8
123661
75312.1
32828.3
168671
82561.6
118788
0
0
0
0
0
0
0
0
0
0
0
0
0
0
0
470.17
0
0
0
0
0
0
0
0
0
0
0
0
0
0
0
0
0
0
0
0
0
0
0
0
0
0
0
0
0
0
0
0
0
0
0
0
0
0
0
0
0
0
0
0
0
0
0
0
0
0
0
0
0
0
0
0
0
0
0
0
0
0
0
0
0
0
0
0
0
0
0
0
0
0
0
0
0
0
0
0
0
0
0
0
0
0
0
0
0
0
0
0
0
0
0
0
0
0
0
0
0
0
0
0
0
0
0
0
0
0
0
0
0
0
0
0
0
0
0
0
0
0
0
0
0
0
0
0
0
0
0
0
0
0
0
0
0
0
0
0
0
0
0
0
0
0
0
0
0
0
0
0
0
0
0
0
0
0
0
0
0
0
0
0
0
0
0
0
0
0
0
0
0
0
0
0
0
0
0
0
0
0
0
0
0
0
0
0
0
0
0
0
0
0
0
0
0
0
0
0
0
0
0
0
0
0
0
0
0
0
0
0
0
0
0
0
0
0
0
0
0
0
0
0
0
0
0
0
0
0
0
0
0
0
0
0
0
0
0
0
0
0
0
0
0
0
0
0
0
0
0
0
0
0
0
0
)
;

boundaryField
{
    inlet
    {
        type            zeroGradient;
    }
    outlet
    {
        type            zeroGradient;
    }
    wall
    {
        type            zeroGradient;
    }
    procBoundary3to1
    {
        type            processor;
        value           nonuniform List<scalar> 
192
(
214079
128493
68555.9
59728.2
1.34726e+07
211584
1.17629e+07
246972
170402
141511
147879
197964
5.73448e+06
316756
144927
2.58306e+06
118421
6.88212e+06
138304
166943
479153
495595
169574
150321
180156
96649.9
36463.4
58501.9
1372.42
657.915
0
0
0
0
0
0
0
0
0
0
0
0
0
0
0
0
0
0
0
0
0
0
0
0
0
0
0
0
0
0
0
0
0
0
0
0
0
0
0
0
0
0
0
0
0
0
0
0
0
0
0
0
0
0
0
0
0
0
0
0
0
0
0
0
0
0
751290
149689
113000
107192
238800
398399
155971
303113
164022
203620
321206
113486
224368
255930
3.60464e+06
2.05526e+06
261899
174340
219962
124886
207567
285713
244081
204502
107750
56470.6
32783.2
28131.2
0
0
0
0
0
0
0
0
0
0
0
0
0
0
0
0
0
0
0
0
0
0
0
0
0
0
0
0
0
0
0
0
0
0
0
0
0
0
0
0
0
0
0
0
0
0
0
0
0
0
0
0
0
0
0
0
0
0
0
0
0
0
0
0
0
0
0
0
)
;
    }
    procBoundary3to2
    {
        type            processor;
        value           nonuniform List<scalar> 
192
(
491088
3.88326e+06
75900
129020
6.00682e+06
152080
89146.2
213679
174294
154696
226809
775376
121783
178016
135214
1.61838e+06
144316
533191
131375
1.12774e+06
1.0992e+06
175951
296156
291659
88091
176854
85635
144313
110.869
0
0
227.224
0
0
0
0
0
0
0
0
0
0
0
0
0
0
0
0
0
0
0
0
0
0
0
0
0
0
0
0
0
0
0
0
0
0
0
0
0
0
0
0
0
0
0
0
0
0
0
0
0
0
0
0
0
0
0
0
0
0
0
0
0
0
0
0
1.10161e+06
205634
221304
127396
124826
186159
108897
190287
130641
303963
445870
192815
141688
273255
239953
225095
182917
171205
243181
152605
1.26106e+06
109070
2.17109e+06
93277.6
18900.6
53885
13929.7
24948.7
0
0
0
0
0
0
0
0
0
0
0
0
0
0
0
0
0
0
0
0
0
0
0
0
0
0
0
0
0
0
0
0
0
0
0
0
0
0
0
0
0
0
0
0
0
0
0
0
0
0
0
0
0
0
0
0
0
0
0
0
0
0
0
0
0
0
0
0
)
;
    }
}


// ************************************************************************* //
