/*--------------------------------*- C++ -*----------------------------------*\
| =========                 |                                                 |
| \\      /  F ield         | OpenFOAM: The Open Source CFD Toolbox           |
|  \\    /   O peration     | Version:  2506                                  |
|   \\  /    A nd           | Website:  www.openfoam.com                      |
|    \\/     M anipulation  |                                                 |
\*---------------------------------------------------------------------------*/
FoamFile
{
    version     2.0;
    format      ascii;
    arch        "LSB;label=32;scalar=64";
    class       surfaceScalarField;
    location    "0.1";
    object      phi;
}
// * * * * * * * * * * * * * * * * * * * * * * * * * * * * * * * * * * * * * //

dimensions      [0 3 -1 0 0 0 0];

oriented        oriented;

internalField   nonuniform List<scalar> 
3120
(
-1.98031e-08
-2.72654e-08
1.41899e-07
5.71481e-10
-5.34028e-09
4.11973e-08
-8.74621e-09
-1.23555e-08
5.53275e-08
-1.56583e-08
1.79506e-07
-6.55781e-08
-1.90866e-08
-2.88559e-08
9.16696e-08
-4.24009e-09
-8.71405e-09
4.8038e-08
-7.62953e-12
-4.65748e-09
4.77454e-08
-3.04564e-09
4.28862e-08
3.7313e-09
2.11559e-09
-4.05331e-09
3.15992e-08
-1.14426e-09
-1.14863e-08
6.59392e-08
1.17761e-09
5.42852e-09
4.71449e-08
-8.13968e-09
7.02887e-08
-4.87017e-09
-1.05264e-09
5.47601e-08
1.53852e-10
6.51289e-09
4.03482e-08
-3.44523e-09
-1.28923e-08
1.00634e-07
-1.68801e-08
3.94101e-08
-1.56706e-09
-6.99891e-10
-5.67717e-09
-1.11407e-08
6.90304e-08
-6.33749e-09
-1.37077e-08
5.03441e-08
-3.83752e-08
-1.43573e-08
5.96068e-08
1.19892e-08
9.10075e-08
1.3764e-08
-5.855e-09
-1.08719e-08
9.27823e-08
-3.07187e-09
-1.289e-08
4.44372e-08
-3.11355e-09
-9.51435e-09
4.2944e-08
-5.73351e-09
5.34284e-08
4.06701e-09
-4.47763e-09
-9.58931e-09
3.46155e-08
-6.9014e-09
-6.86364e-09
6.23367e-08
3.98816e-09
-6.876e-09
3.3617e-08
-3.78263e-09
7.85029e-08
-6.17699e-09
4.95135e-10
5.50275e-08
-1.14508e-08
-4.25029e-09
4.02441e-08
-2.01406e-09
-6.9774e-10
1.02089e-07
-1.18828e-08
3.39149e-08
1.55335e-09
-5.38642e-10
-2.42907e-09
1.54801e-08
8.26738e-08
-2.12717e-09
3.47174e-10
4.99704e-08
1.19647e-08
2.13071e-09
5.70244e-08
-7.76852e-09
1.08082e-07
2.81147e-09
-8.84763e-09
-2.67933e-09
1.21977e-07
2.52653e-10
-6.93634e-09
4.26204e-08
1.54319e-09
-1.63951e-09
4.54237e-08
-4.30488e-09
5.17487e-08
-2.40771e-10
-2.0058e-09
-9.89058e-10
3.53388e-08
3.98118e-09
1.20528e-09
4.82081e-08
-9.15672e-10
-7.73209e-09
4.46064e-08
3.24972e-09
6.34187e-08
6.61398e-09
-1.43949e-09
5.54967e-08
6.83601e-10
-5.52784e-09
4.33416e-08
2.19611e-09
1.39902e-08
7.38116e-08
1.02686e-09
6.49097e-08
-1.25232e-08
-1.23157e-09
2.8481e-08
4.6627e-09
1.57258e-08
1.4943e-08
-1.42374e-08
6.93443e-08
5.46105e-08
-7.52957e-09
4.12819e-08
-4.33677e-08
2.99011e-07
-6.54879e-08
2.67793e-08
1.82609e-08
6.66963e-08
1.28163e-08
3.31949e-09
3.90265e-08
7.58341e-09
-6.70413e-09
4.98311e-08
-1.51754e-08
3.69516e-08
-5.81174e-09
7.90728e-09
8.1809e-09
3.65848e-08
7.04112e-09
-2.36975e-09
5.47634e-08
7.85701e-09
-7.88797e-09
4.49744e-08
-1.04944e-08
7.13455e-08
-4.75081e-09
9.19982e-10
6.93084e-08
-2.38355e-09
5.35613e-09
3.57289e-08
8.06804e-10
7.89307e-09
6.40223e-08
-6.35627e-10
7.10112e-08
-7.53832e-09
-1.16453e-09
-9.11727e-09
-7.6433e-09
1.11732e-07
4.63326e-09
3.47315e-09
7.82975e-08
1.44821e-09
3.27805e-09
4.33439e-08
2.19237e-09
3.10717e-07
-6.82379e-10
3.98207e-09
-5.31871e-10
6.13372e-08
4.7736e-09
-1.62941e-09
4.33375e-08
5.63825e-09
-2.37031e-09
5.46149e-08
-2.98741e-09
4.76645e-08
1.05151e-10
2.29192e-09
9.13775e-09
3.45787e-08
3.88471e-09
1.87307e-09
4.96682e-08
4.95989e-09
1.34315e-10
4.13945e-08
9.30931e-09
6.30438e-08
9.64785e-10
-6.671e-09
8.31945e-08
4.96713e-09
1.48655e-09
2.67507e-08
2.69367e-09
8.11952e-09
5.6517e-08
1.00667e-09
9.1565e-08
-4.96328e-09
1.83833e-09
1.58911e-08
2.56221e-08
6.69861e-08
9.72226e-09
1.837e-08
5.93109e-08
-2.17696e-08
1.00362e-08
5.1155e-08
4.22453e-08
1.59651e-07
4.50923e-08
1.1967e-08
1.207e-08
6.35652e-08
4.89066e-09
2.02564e-09
6.67583e-08
3.56788e-09
3.08649e-09
6.28874e-08
5.74965e-09
8.54528e-08
2.27517e-09
1.80166e-09
4.40043e-09
4.52825e-08
5.43232e-09
5.08561e-09
4.29775e-08
5.07758e-09
1.0819e-09
4.37539e-08
6.40281e-09
6.57211e-08
1.74711e-09
2.25951e-08
4.46447e-08
1.79072e-08
-3.22971e-09
5.98433e-08
-2.18211e-09
1.32376e-08
3.46266e-08
6.50495e-09
4.00189e-08
3.30214e-08
3.81652e-08
2.1689e-09
2.16411e-09
6.52915e-08
3.52582e-10
7.66245e-10
6.30521e-08
-7.97445e-09
3.10203e-09
6.28522e-08
1.67999e-08
1.15934e-07
1.10516e-08
5.95884e-10
1.51304e-09
6.30498e-08
5.19891e-10
3.90397e-09
6.36958e-08
-3.86636e-09
5.4519e-09
6.49239e-08
9.18518e-09
8.40211e-08
5.18059e-09
4.09193e-09
-1.08664e-09
4.3642e-08
1.40216e-09
4.6586e-10
4.91053e-08
-7.50481e-10
4.5571e-09
4.68009e-08
6.22517e-09
6.41844e-08
3.74636e-09
4.69921e-09
3.43215e-08
1.231e-09
4.69717e-09
5.74535e-08
2.85609e-09
-4.81073e-10
4.33846e-08
9.78112e-10
6.55166e-08
-1.92375e-09
-1.78292e-08
-1.8144e-09
7.88666e-09
7.66214e-08
8.88431e-09
1.39533e-08
4.44379e-08
7.41642e-09
1.10135e-08
5.92651e-08
1.10722e-08
9.6783e-08
1.6721e-08
5.72679e-09
6.22465e-10
6.69017e-08
5.57637e-09
1.22539e-08
6.55455e-08
4.70402e-09
1.11424e-08
6.56674e-08
1.21363e-08
7.67977e-08
1.08632e-08
4.71448e-09
5.30292e-09
2.7859e-08
4.0237e-09
1.247e-08
4.95798e-08
4.74588e-09
1.05548e-08
4.66661e-08
1.17801e-08
6.27437e-08
6.54212e-09
9.4575e-09
-5.98253e-08
5.25723e-08
1.11156e-08
4.56735e-08
2.25929e-08
9.01101e-09
3.96895e-08
1.63546e-08
6.91382e-08
1.79545e-08
-7.85152e-10
7.41174e-10
2.99497e-09
6.49642e-08
-1.02214e-08
-2.47048e-09
5.67282e-08
-1.26294e-08
3.85784e-09
6.02132e-08
6.45318e-09
7.09647e-08
3.98736e-09
-7.82565e-09
1.40326e-08
5.88257e-08
-8.24062e-09
3.22036e-09
6.02703e-08
-7.77652e-09
7.61802e-09
6.14431e-08
6.70716e-09
6.58482e-08
2.91896e-09
-5.99813e-09
8.15352e-09
4.63779e-08
-7.42169e-09
-6.23881e-10
5.4847e-08
-1.02474e-08
2.69954e-09
5.44106e-08
-1.62358e-09
6.17803e-08
-9.53303e-10
-1.44107e-08
3.15989e-08
-3.74765e-08
-1.29569e-08
5.31895e-08
-9.59258e-09
-1.434e-08
5.07206e-08
-6.94923e-09
6.15099e-08
-8.6952e-09
3.59894e-10
1.59461e-11
1.32497e-09
6.06005e-08
-3.27238e-09
-8.31998e-11
5.9128e-08
-4.52386e-09
1.85441e-09
6.019e-08
2.45277e-09
6.31646e-08
2.61986e-10
-3.40095e-09
3.49298e-09
5.79188e-08
-3.46571e-09
1.06464e-09
5.91868e-08
-3.46239e-09
3.25601e-09
6.0038e-08
3.10704e-09
6.19496e-08
-2.18054e-10
-2.26424e-09
-4.86946e-10
5.40936e-08
-2.70532e-09
-8.17779e-10
5.71706e-08
-4.03164e-09
1.54805e-09
5.74447e-08
1.24858e-09
6.03902e-08
-7.83253e-10
-1.79093e-09
5.13941e-08
-1.17264e-08
-2.35609e-09
5.68196e-08
-3.88363e-09
-3.83354e-09
5.61534e-08
-2.40712e-09
5.97056e-08
-1.14753e-09
3.6667e-10
-8.00526e-10
1.46839e-10
5.97133e-08
-1.87862e-09
-1.7711e-10
5.96315e-08
-2.2971e-09
3.41153e-10
6.01282e-08
5.50441e-10
6.09701e-08
-8.35453e-10
-1.77735e-09
2.25003e-10
5.87725e-08
-2.07564e-09
-9.98549e-11
5.94076e-08
-2.28262e-09
6.99439e-10
5.98866e-08
7.6254e-10
6.06558e-08
-1.20087e-09
-1.34601e-09
-1.61952e-09
5.76307e-08
-1.68088e-09
-1.24698e-09
5.86524e-08
-2.2976e-09
-1.50126e-10
5.89109e-08
9.83906e-11
5.99286e-08
-1.17181e-09
-5.35407e-10
5.74371e-08
-5.14169e-09
-1.00512e-09
5.86813e-08
-2.63888e-09
-1.94676e-09
5.85542e-08
-1.60943e-09
5.9555e-08
-1.00589e-09
-6.92014e-10
-6.62566e-10
-2.20607e-10
5.97641e-08
-1.09348e-09
-2.35548e-10
5.98567e-08
-1.26757e-09
-1.32108e-11
6.00823e-08
1.48962e-10
6.03464e-08
-8.64121e-10
-8.67858e-10
-4.18216e-10
5.94645e-08
-1.1197e-09
-3.11009e-10
5.97348e-08
-1.28135e-09
7.62969e-11
5.99588e-08
3.13616e-10
6.02274e-08
-1.01757e-09
-6.24474e-10
-1.2944e-09
5.91716e-08
-8.40943e-10
-9.12172e-10
5.947e-08
-1.10165e-09
-3.34649e-10
5.95826e-08
5.07401e-11
5.98658e-08
-7.76031e-10
-1.31502e-10
5.93094e-08
-2.43595e-09
-3.70861e-10
5.95367e-08
-1.52834e-09
-7.0114e-10
5.94402e-08
-8.90455e-10
5.96167e-08
-3.41997e-10
-3.70238e-10
-3.9e-10
-2.78584e-10
5.99695e-08
-6.03966e-10
-2.35548e-10
6.00364e-08
-7.06993e-10
-1.2221e-10
6.01252e-08
-6.89954e-12
6.01976e-08
-6.11616e-10
-4.14178e-10
-4.47412e-10
5.98868e-08
-5.80721e-10
-3.22741e-10
5.99885e-08
-6.88844e-10
-1.23936e-10
6.00687e-08
4.8552e-11
6.01351e-08
-6.51937e-10
-2.65269e-10
-8.35127e-10
5.98247e-08
-4.09431e-10
-6.03321e-10
5.98948e-08
-5.34407e-10
-3.25132e-10
5.99088e-08
-9.19492e-11
5.99311e-08
-4.59115e-10
-3.87054e-11
5.99197e-08
-1.2074e-09
-1.52883e-10
5.99104e-08
-8.62825e-10
-3.04291e-10
5.98152e-08
-5.48745e-10
5.97483e-08
-2.68398e-10
-2.59579e-10
-2.05585e-10
-2.37208e-10
6.01405e-08
-3.2123e-10
-1.98766e-10
6.01672e-08
-3.86293e-10
-1.33504e-10
6.01858e-08
-5.47867e-11
6.01748e-08
-3.72472e-10
-1.91334e-10
-3.41556e-10
6.01206e-08
-2.877e-10
-2.6155e-10
6.01477e-08
-3.53682e-10
-1.52593e-10
6.01538e-08
-3.79449e-11
6.01284e-08
-3.63537e-10
-1.04168e-10
-5.07919e-10
6.01008e-08
-1.85144e-10
-3.86893e-10
6.01012e-08
-2.49318e-10
-2.44936e-10
6.00654e-08
-1.06826e-10
5.99961e-08
-2.45236e-10
1.39437e-11
6.0119e-08
-6.36437e-10
-4.32374e-11
6.00709e-08
-4.90076e-10
-1.1138e-10
5.99727e-08
-3.34231e-10
5.98381e-08
-1.81693e-10
-1.26242e-10
-1.03028e-10
-1.80912e-10
6.02528e-08
-1.68186e-10
-1.54618e-10
6.02536e-08
-2.08768e-10
-1.15434e-10
6.02352e-08
-6.46408e-11
6.01813e-08
-2.13444e-10
-8.46528e-11
-2.37863e-10
6.02452e-08
-1.40166e-10
-1.91797e-10
6.02406e-08
-1.79791e-10
-1.32028e-10
6.02102e-08
-6.41105e-11
6.01408e-08
-1.92443e-10
-3.92343e-11
-3.0907e-10
6.02232e-08
-8.09075e-11
-2.48343e-10
6.01996e-08
-1.1444e-10
-1.74218e-10
6.01413e-08
-9.69703e-11
6.00383e-08
-1.2347e-10
2.30216e-11
6.01903e-08
-3.54886e-10
-4.64627e-12
6.01384e-08
-2.8801e-10
-3.71946e-11
6.00408e-08
-2.09688e-10
5.98895e-08
-1.28543e-10
-5.68431e-11
-5.03727e-11
-1.31646e-10
6.03201e-08
-8.75781e-11
-1.15461e-10
6.0307e-08
-1.12342e-10
-9.18649e-11
6.02687e-08
-6.12393e-11
6.01915e-08
-1.19073e-10
-3.70482e-11
-1.61109e-10
6.03114e-08
-6.79295e-11
-1.36186e-10
6.02925e-08
-9.07626e-11
-1.0262e-10
6.0244e-08
-6.3083e-11
6.01535e-08
-1.01353e-10
-1.15172e-11
-1.91406e-10
6.0279e-08
-3.44882e-11
-1.60628e-10
6.02473e-08
-5.28066e-11
-1.21518e-10
6.01787e-08
-7.94773e-11
6.00616e-08
-5.94221e-11
2.10011e-11
6.02161e-08
-2.06633e-10
6.80208e-12
6.01666e-08
-1.74366e-10
-9.57184e-12
6.00702e-08
-1.34479e-10
5.99151e-08
-9.10981e-11
-2.33379e-11
-2.42866e-11
-9.44229e-11
6.03592e-08
-4.55811e-11
-8.47082e-11
6.03387e-08
-6.04874e-11
-7.0734e-11
6.02896e-08
-5.25817e-11
6.01995e-08
-6.55184e-11
-1.54014e-11
-1.08976e-10
6.03463e-08
-3.2935e-11
-9.53501e-11
6.0321e-08
-4.62281e-11
-7.67316e-11
6.02635e-08
-5.4365e-11
6.0162e-08
-5.27426e-11
-1.41636e-12
-1.21148e-10
6.03049e-08
-1.40845e-11
-1.0538e-10
6.02703e-08
-2.4313e-11
-8.45579e-11
6.01969e-08
-6.16375e-11
6.00737e-08
-2.88299e-11
1.58363e-11
6.02249e-08
-1.24567e-10
8.34536e-12
6.01775e-08
-1.08563e-10
-2.22457e-13
6.00822e-08
-8.7912e-11
5.99264e-08
-6.44549e-11
-8.4613e-12
-1.13935e-11
-6.74496e-11
6.03813e-08
-2.37002e-11
-6.17296e-11
6.0357e-08
-3.25741e-11
-5.34314e-11
6.03021e-08
-4.25436e-11
6.02047e-08
-3.5931e-11
-5.92924e-12
-7.4208e-11
6.03646e-08
-1.59818e-11
-6.67327e-11
6.03363e-08
-2.35286e-11
-5.63538e-11
6.02741e-08
-4.36586e-11
6.01667e-08
-2.69411e-11
1.8199e-12
-7.83611e-11
6.03168e-08
-5.28565e-12
-7.01736e-11
6.0281e-08
-1.10956e-11
-5.89191e-11
6.02055e-08
-4.63722e-11
6.00791e-08
-1.35239e-11
1.10786e-11
6.02267e-08
-7.73885e-11
7.03714e-12
6.01808e-08
-6.93021e-11
2.47256e-12
6.00864e-08
-5.83728e-11
5.99304e-08
-4.54531e-11
-2.18221e-12
-5.2176e-12
-4.80588e-11
6.03936e-08
-1.23866e-11
-4.46649e-11
6.03674e-08
-1.7546e-11
-3.97106e-11
6.03093e-08
-3.32095e-11
6.02078e-08
-1.95593e-11
-1.89531e-12
-5.08937e-11
6.03739e-08
-7.63066e-12
-4.67384e-11
6.03443e-08
-1.19271e-11
-4.08737e-11
6.02797e-08
-3.35206e-11
6.01692e-08
-1.3856e-11
2.44262e-12
-5.16307e-11
6.03218e-08
-1.54132e-12
-4.73029e-11
6.02857e-08
-4.69467e-12
-4.11478e-11
6.02091e-08
-3.41306e-11
6.00811e-08
-5.75987e-12
7.4971e-12
6.02259e-08
-4.92812e-11
5.31209e-12
6.01809e-08
-4.51237e-11
2.87488e-12
6.0087e-08
-3.92419e-11
5.9931e-08
-3.19609e-11
3.81318e-13
-2.24496e-12
-3.40072e-11
6.04003e-08
-6.3877e-12
-3.19756e-11
6.03731e-08
-9.39352e-12
-2.89869e-11
6.03134e-08
-2.50678e-11
6.02097e-08
-1.04549e-11
-2.2707e-13
-3.49574e-11
6.03785e-08
-3.48149e-12
-3.26034e-11
6.03483e-08
-5.91616e-12
-2.92157e-11
6.02825e-08
-2.49791e-11
6.01704e-08
-6.86982e-12
2.24577e-12
-3.43585e-11
6.03236e-08
1.83204e-14
-3.20232e-11
6.02874e-08
-1.71107e-12
-2.86045e-11
6.02103e-08
-2.46621e-11
6.00815e-08
-2.14235e-12
5.04518e-12
6.02243e-08
-3.18609e-11
3.8793e-12
6.01798e-08
-2.97075e-11
2.5789e-12
6.00862e-08
-2.64989e-11
5.99302e-08
-2.22764e-11
1.24148e-12
-7.41721e-13
-2.35737e-11
6.04038e-08
-3.13261e-12
-2.23571e-11
6.03763e-08
-4.86899e-12
-2.05422e-11
6.03157e-08
-1.81572e-11
6.02108e-08
-5.51845e-12
4.71089e-13
-2.36908e-11
6.03807e-08
-1.3801e-12
-2.23453e-11
6.03502e-08
-2.73882e-12
-2.03893e-11
6.02839e-08
-1.7937e-11
6.01708e-08
-3.17121e-12
1.89365e-12
-2.27231e-11
6.0324e-08
6.41899e-13
-2.14516e-11
6.02879e-08
-3.23742e-13
-1.9548e-11
6.02105e-08
-1.73443e-11
6.00813e-08
-3.9766e-13
3.45501e-12
6.02226e-08
-2.05848e-11
2.83692e-12
6.01785e-08
-1.94902e-11
2.12663e-12
6.00851e-08
-1.77311e-11
5.99291e-08
-1.52188e-11
1.37107e-12
1.50567e-13
-1.56132e-11
6.04057e-08
-1.21834e-12
-1.49089e-11
6.0378e-08
-2.21045e-12
-1.38562e-11
6.03169e-08
-1.2456e-11
6.02114e-08
-2.61099e-12
8.50765e-13
-1.54239e-11
6.03817e-08
-1.94893e-13
-1.46857e-11
6.03511e-08
-9.80796e-13
-1.35958e-11
6.02845e-08
-1.2219e-11
6.0171e-08
-1.18456e-12
1.63932e-12
-1.45505e-11
6.03239e-08
9.37777e-13
-1.38669e-11
6.02878e-08
3.90675e-13
-1.28453e-11
6.02104e-08
-1.16441e-11
6.00809e-08
4.32656e-13
2.47176e-12
6.02213e-08
-1.29638e-11
2.17497e-12
6.01774e-08
-1.24461e-11
1.76061e-12
6.0084e-08
-1.14944e-11
5.99281e-08
-9.99937e-12
1.28437e-12
9.44733e-13
-9.61602e-12
6.04067e-08
1.91845e-13
-9.25268e-12
6.03789e-08
-3.99694e-13
-8.69428e-12
6.03177e-08
-7.93339e-12
6.02119e-08
-7.0705e-13
1.30854e-12
-9.39218e-12
6.03821e-08
7.37057e-13
-9.0291e-12
6.03515e-08
2.70934e-13
-8.47765e-12
6.02847e-08
-7.75104e-12
6.01711e-08
1.03317e-13
1.69729e-12
-8.76781e-12
6.03236e-08
1.34062e-12
-8.4564e-12
6.02876e-08
9.97121e-13
-7.93067e-12
6.02102e-08
-7.32609e-12
6.00807e-08
9.81188e-13
2.10932e-12
6.02203e-08
-7.74514e-12
1.93901e-12
6.01765e-08
-7.5381e-12
1.70614e-12
6.00833e-08
-7.08322e-12
5.99275e-08
-6.25408e-12
1.37667e-12
2.33456e-12
-6.34019e-12
1.91361e-12
-6.18423e-12
1.48326e-12
-5.90974e-12
-5.52312e-12
1.1054e-12
2.49465e-12
-6.13894e-12
2.18131e-12
-6.01381e-12
1.83451e-12
-5.76725e-12
-5.41548e-12
1.53966e-12
2.64446e-12
-5.68349e-12
2.4473e-12
-5.60194e-12
2.19151e-12
-5.39554e-12
-5.10368e-12
1.98394e-12
2.78555e-12
-4.98456e-12
2.71086e-12
-4.9739e-12
2.53033e-12
-4.82616e-12
-4.47185e-12
2.22941e-12
-6.26463e-09
6.71988e-10
6.78517e-08
1.25921e-08
-3.06634e-09
3.79533e-08
1.10551e-09
-1.58857e-08
5.90413e-08
-3.47622e-09
3.87123e-08
-1.00399e-10
-4.7595e-09
2.19786e-08
5.86828e-08
7.14014e-09
1.25571e-08
3.84129e-08
1.25646e-09
1.0054e-08
3.56661e-08
1.61564e-08
2.58271e-08
-9.25771e-10
-1.22054e-08
3.52336e-08
8.88985e-08
2.86744e-09
-8.1304e-10
7.25108e-08
4.85772e-09
-1.59908e-09
7.33856e-08
7.26031e-10
7.32811e-08
-2.03701e-09
-3.81554e-09
1.48688e-07
1.39164e-09
7.63804e-08
4.56357e-09
6.64294e-08
6.46295e-08
-1.44805e-09
6.14254e-09
1.75315e-09
3.80779e-08
-2.21474e-09
-9.46039e-11
4.43911e-08
4.50069e-09
-4.54871e-09
4.49918e-08
9.69071e-09
3.49516e-08
1.24092e-10
7.14878e-09
-1.62927e-08
6.85208e-08
-3.10202e-09
-1.25988e-08
6.11679e-08
1.51305e-09
4.12836e-09
2.2374e-08
-7.85518e-09
4.58804e-08
-9.94419e-10
1.00749e-08
-2.1318e-08
7.79727e-08
3.65968e-09
-3.37716e-09
6.97043e-08
4.89552e-09
-2.01596e-09
7.82941e-08
2.23174e-09
6.96764e-08
-1.58674e-09
2.03912e-08
1.04141e-07
4.72414e-09
8.86045e-08
5.79359e-09
6.35756e-08
7.32122e-08
-2.76194e-10
1.49285e-09
-7.87994e-09
4.24854e-08
-5.38758e-09
-6.2017e-09
5.96693e-08
1.89665e-09
4.88459e-09
3.38499e-08
-8.84547e-09
2.39892e-08
9.18136e-09
8.25213e-09
-9.23387e-09
5.83906e-08
2.90693e-09
-2.24807e-08
8.2792e-08
1.61013e-09
-8.99657e-09
3.75519e-08
-2.69645e-08
6.08355e-08
4.7741e-09
5.98295e-11
-1.62307e-08
8.3504e-08
6.83586e-09
-9.65569e-09
5.01033e-08
7.28086e-10
-1.44626e-08
8.98678e-08
1.4445e-08
2.54203e-08
3.57463e-09
3.95385e-09
7.71554e-08
3.85779e-09
8.1695e-08
5.63423e-09
4.8448e-08
9.01427e-08
1.06082e-09
2.05764e-09
-6.91524e-09
4.80324e-08
3.93158e-09
-1.3844e-08
7.24462e-08
1.54081e-10
-6.17918e-09
4.31709e-08
-1.25557e-08
2.73651e-08
1.79552e-09
-3.83948e-09
-1.45185e-09
4.89639e-08
3.95719e-09
1.08669e-08
5.02844e-08
-2.34076e-09
-8.65968e-09
4.63303e-08
-2.86786e-09
4.37833e-08
5.02362e-09
3.53575e-09
5.14162e-09
6.46587e-08
-6.02402e-09
-1.58559e-08
8.63858e-08
-3.60956e-09
-4.92313e-09
8.37168e-08
-7.58113e-09
2.57683e-08
7.55685e-10
-6.31813e-09
8.38203e-08
1.7902e-09
5.76863e-08
-5.49493e-09
5.24728e-08
7.48284e-08
2.90449e-09
-1.34274e-08
-5.27836e-09
7.89268e-08
9.28843e-10
5.29895e-09
5.54846e-08
4.38251e-09
-4.39993e-09
4.51238e-08
-8.78334e-09
3.20281e-08
3.53961e-09
-1.10233e-09
3.55871e-11
4.01709e-08
-4.09948e-09
-4.7296e-09
6.33101e-08
2.14321e-09
-3.86971e-09
3.95573e-08
-8.57547e-09
4.34617e-08
2.25695e-09
-5.85055e-09
-1.72498e-09
7.21256e-08
-4.87419e-09
-2.18874e-09
8.28687e-08
-1.31473e-09
4.75339e-09
7.15342e-08
-1.19405e-08
2.71502e-08
6.68423e-10
1.56654e-09
6.65861e-08
-3.0011e-11
5.68332e-08
-7.4558e-09
6.57605e-08
5.38991e-08
1.14652e-09
-3.00472e-09
2.96915e-08
3.9009e-08
1.78965e-09
8.06761e-10
4.77014e-08
4.5659e-09
1.98775e-09
4.68649e-08
-1.51971e-08
8.51726e-08
-3.6026e-10
-1.65195e-08
-2.29933e-09
9.39283e-08
2.34604e-09
7.34234e-09
3.79089e-08
6.93855e-10
-5.69572e-09
4.88929e-08
-7.7055e-09
4.10941e-08
-4.42981e-09
-2.10913e-09
1.38065e-09
5.91719e-08
-3.2787e-09
2.47938e-10
9.11327e-08
7.92996e-10
-5.08467e-09
6.68515e-08
-7.09805e-09
2.9845e-08
-2.50938e-09
-2.10404e-09
6.84451e-08
-6.31828e-09
6.10346e-08
-7.31115e-10
5.5396e-08
4.93925e-08
-2.30995e-09
-4.83819e-09
-7.65092e-09
4.36249e-08
-3.88224e-09
4.14542e-09
4.54565e-08
-1.16606e-08
8.1909e-09
4.74297e-08
3.26913e-08
5.0156e-08
-1.12563e-08
2.61527e-09
5.31902e-09
6.9897e-08
-2.79178e-09
-1.95027e-09
4.94112e-08
-3.16018e-09
3.33491e-09
5.4118e-08
1.32417e-08
5.74704e-08
-8.79854e-11
-4.73125e-09
7.83477e-09
7.02531e-08
-3.45843e-09
9.55882e-09
7.83506e-08
-7.81775e-10
2.83762e-09
6.46718e-08
-7.29732e-12
4.38519e-08
-1.53812e-09
9.27958e-10
7.54696e-08
-3.55335e-09
6.93114e-08
-3.6897e-09
5.96777e-08
4.49647e-08
-6.56081e-10
-1.96073e-08
2.09235e-08
6.12439e-08
-8.74207e-09
1.25812e-08
4.4602e-08
-2.87975e-09
1.1036e-08
4.68863e-08
8.45077e-09
6.53512e-08
-8.56943e-09
-1.16517e-08
7.39406e-09
7.91582e-08
-6.91384e-09
5.38326e-09
5.18718e-08
-2.26129e-09
6.3711e-09
5.41297e-08
7.24759e-09
6.06035e-08
-4.19026e-09
-1.0461e-08
2.11433e-09
8.0063e-08
-4.26872e-09
3.95351e-09
7.35892e-08
-2.60093e-09
4.32744e-09
6.50475e-08
5.0896e-09
4.71561e-08
-3.74695e-09
-5.42259e-09
8.19742e-08
-3.52973e-09
7.13723e-08
-2.88575e-09
6.33615e-08
5.02496e-08
-3.08062e-09
2.08222e-08
-1.08886e-08
6.46273e-08
-6.97788e-10
-8.00417e-10
5.73291e-08
-6.28514e-09
-1.32596e-09
4.68516e-08
4.85396e-09
4.18019e-08
3.7133e-09
5.99733e-09
4.98819e-10
7.86399e-08
-3.99991e-09
-2.98363e-09
6.40524e-08
-5.66653e-09
-1.72077e-10
5.4641e-08
1.11249e-08
4.67981e-08
1.87025e-09
3.70011e-09
2.09499e-09
8.55309e-08
-1.27074e-09
6.37485e-10
7.49392e-08
-1.43412e-09
2.32072e-09
6.27187e-08
5.43685e-09
4.93909e-08
2.01738e-09
3.84874e-09
8.64904e-08
-7.26291e-10
7.65851e-08
-6.7961e-10
6.56358e-08
5.3243e-08
1.76386e-09
6.26838e-09
-4.34971e-09
6.39913e-08
2.1702e-09
-6.84332e-10
5.8228e-08
-8.1465e-10
-5.43325e-10
4.79719e-08
1.92979e-09
3.72682e-08
6.42669e-10
3.77195e-09
-3.45946e-10
7.53817e-08
1.32768e-09
-4.71595e-10
6.62832e-08
-6.21785e-10
4.72271e-10
5.55746e-08
3.71234e-09
4.40935e-08
2.99465e-10
3.81283e-09
2.63724e-09
8.35487e-08
1.91732e-09
1.86733e-09
7.44956e-08
2.06679e-10
2.09332e-09
6.28082e-08
3.02097e-09
4.99253e-08
3.63732e-10
3.96734e-09
8.88416e-08
1.81751e-09
8.06023e-08
3.94796e-10
6.91519e-08
5.63782e-08
2.80347e-10
1.90397e-09
-3.0299e-09
6.35756e-08
8.01129e-10
-1.5938e-09
5.82853e-08
-3.54549e-10
-1.00075e-09
4.85188e-08
-1.41975e-10
3.59421e-08
1.07744e-10
2.04495e-09
-1.34176e-09
7.3704e-08
9.85357e-10
-1.05475e-09
6.68038e-08
-2.55073e-10
-4.20168e-10
5.62342e-08
3.89084e-10
4.31823e-08
1.25295e-10
2.22689e-09
2.54258e-10
8.20369e-08
1.15723e-09
-1.97921e-10
7.47086e-08
-2.22273e-11
1.28304e-11
6.35548e-08
1.79526e-10
4.9986e-08
1.26663e-10
2.33251e-09
8.87934e-08
1.15049e-09
8.15866e-08
1.01536e-10
7.02139e-08
5.65304e-08
1.28927e-10
8.51992e-10
-2.02206e-09
6.33632e-08
5.77585e-10
-1.30101e-09
5.83323e-08
3.91039e-11
-7.14351e-10
4.88811e-08
-1.66458e-10
3.58157e-08
-1.00449e-11
1.20802e-09
-1.05699e-09
7.24857e-08
8.46409e-10
-7.68501e-10
6.66331e-08
1.66034e-10
-3.19935e-10
5.65203e-08
9.33063e-11
4.30688e-08
1.99403e-11
1.38769e-09
-1.05492e-10
8.08024e-08
9.71685e-10
-1.46207e-10
7.45025e-08
2.51509e-10
6.92695e-11
6.38861e-08
1.9294e-10
5.01097e-08
2.83836e-11
1.48652e-09
8.83063e-08
1.02674e-09
8.19003e-08
3.39617e-10
7.09704e-08
5.70212e-08
4.18557e-11
4.15843e-10
-1.15978e-09
6.32739e-08
3.16631e-10
-8.13955e-10
5.83827e-08
8.32221e-11
-4.78856e-10
4.90445e-08
-2.03998e-10
3.58297e-08
4.67879e-12
6.32195e-10
-7.43299e-10
7.18829e-08
4.8511e-10
-5.42316e-10
6.65087e-08
1.60257e-10
-2.88672e-10
5.66552e-08
-9.35721e-11
4.31019e-08
1.67336e-11
7.54866e-10
-2.41235e-10
8.00845e-08
5.76256e-10
-2.17105e-10
7.43561e-08
2.01114e-10
-9.36686e-11
6.40665e-08
-3.08639e-11
5.02255e-08
2.28701e-11
8.23447e-10
8.78179e-08
6.25436e-10
8.18812e-08
2.49245e-10
7.12531e-08
5.71957e-08
4.40522e-11
2.28332e-10
-6.44859e-10
6.32205e-08
1.9587e-10
-4.76716e-10
5.8402e-08
9.15161e-11
-2.98311e-10
4.9113e-08
-1.49113e-10
3.58641e-08
2.42526e-11
3.40956e-10
-4.66498e-10
7.1589e-08
2.88384e-10
-3.44933e-10
6.64298e-08
1.38094e-10
-2.00331e-10
5.67078e-08
-8.66322e-11
4.31484e-08
2.92087e-11
4.09359e-10
-2.0866e-10
7.96947e-08
3.43247e-10
-1.65477e-10
7.4243e-08
1.61891e-10
-8.54259e-11
6.41332e-08
-3.23378e-11
5.0303e-08
3.03035e-11
4.55433e-10
8.74591e-08
3.83526e-10
8.17877e-08
1.95054e-10
7.13562e-08
5.73115e-08
4.70678e-11
1.32303e-10
-3.63963e-10
6.31853e-08
1.23025e-10
-2.80896e-10
5.84044e-08
7.39023e-11
-1.883e-10
4.91409e-08
-1.08202e-10
3.58873e-08
3.00323e-11
1.88927e-10
-2.82231e-10
7.14399e-08
1.7123e-10
-2.13294e-10
6.63802e-08
1.00207e-10
-1.35071e-10
5.67259e-08
-7.0305e-11
4.31785e-08
3.23856e-11
2.25194e-10
-1.43901e-10
7.94795e-08
2.01381e-10
-1.11226e-10
7.4165e-08
1.12831e-10
-6.62288e-11
6.41531e-08
-3.27152e-11
5.03465e-08
3.2013e-11
2.52954e-10
8.72279e-08
2.27226e-10
8.17024e-08
1.33318e-10
7.1384e-08
5.73683e-08
4.40267e-11
7.84454e-11
-2.10343e-10
6.31616e-08
7.71989e-11
-1.68579e-10
5.84002e-08
5.35175e-11
-1.20238e-10
4.91505e-08
-7.75904e-11
3.58987e-08
2.84367e-11
1.06547e-10
-1.68922e-10
7.13604e-08
1.01949e-10
-1.3152e-10
6.63481e-08
6.79183e-11
-8.91182e-11
5.67291e-08
-5.2653e-11
4.31932e-08
2.85746e-11
1.25826e-10
-9.2215e-11
7.93588e-08
1.17907e-10
-7.16322e-11
7.41133e-08
7.44086e-11
-4.63401e-11
6.41541e-08
-2.58891e-11
5.03666e-08
2.77744e-11
1.4198e-10
8.70856e-08
1.34051e-10
8.16388e-08
8.73647e-11
7.13844e-08
5.73936e-08
3.63719e-11
4.70665e-11
-1.24845e-10
6.31453e-08
4.83356e-11
-1.03522e-10
5.83942e-08
3.69269e-11
-7.80758e-11
4.91523e-08
-5.53493e-11
3.59029e-08
2.3461e-11
6.11513e-11
-1.01642e-10
7.13156e-08
6.10738e-11
-8.16759e-11
6.63266e-08
4.47749e-11
-5.87563e-11
5.67264e-08
-3.85406e-11
4.31984e-08
2.29484e-11
7.09028e-11
-5.7437e-11
7.92898e-08
6.92335e-11
-4.55959e-11
7.40792e-08
4.78582e-11
-3.15398e-11
6.41484e-08
-1.97118e-11
5.03738e-08
2.21344e-11
8.08529e-11
8.69996e-08
7.94324e-11
8.15947e-08
5.62394e-11
7.13761e-08
5.74023e-08
2.81413e-11
2.86017e-11
-7.60764e-11
6.31339e-08
3.04698e-11
-6.50424e-11
5.83884e-08
2.51758e-11
-5.15011e-11
4.91509e-08
-3.92639e-11
3.59036e-08
1.8183e-11
3.57248e-11
-6.20222e-11
7.12887e-08
3.7155e-11
-5.14099e-11
6.63118e-08
2.94965e-11
-3.89442e-11
5.67218e-08
-2.77779e-11
4.3199e-08
1.76011e-11
4.07438e-11
-3.56018e-11
7.9249e-08
4.12733e-11
-2.89921e-11
7.40564e-08
3.0805e-11
-2.11591e-11
6.41413e-08
-1.45276e-11
5.03747e-08
1.68763e-11
4.6803e-11
8.69475e-08
4.76583e-11
8.1565e-08
3.63193e-11
7.13663e-08
5.74032e-08
2.10616e-11
1.76711e-11
-4.74711e-11
6.31257e-08
1.94961e-11
-4.1673e-11
5.83833e-08
1.71621e-11
-3.43997e-11
4.91485e-08
-2.7726e-11
3.59027e-08
1.35694e-11
2.13137e-11
-3.84513e-11
7.12719e-08
2.30463e-11
-3.28193e-11
6.63014e-08
1.95802e-11
-2.59767e-11
5.67172e-08
-1.97969e-11
4.31977e-08
1.30967e-11
2.39046e-11
-2.21726e-11
7.92241e-08
2.50744e-11
-1.85535e-11
7.40411e-08
2.0015e-11
-1.41767e-11
6.41347e-08
-1.0492e-11
5.03732e-08
1.25394e-11
2.77387e-11
8.69155e-08
2.91893e-11
8.1545e-08
2.37076e-11
7.13577e-08
5.74012e-08
1.54909e-11
1.11204e-11
-3.01016e-11
6.31198e-08
1.26546e-11
-2.70138e-11
5.83792e-08
1.17218e-11
-2.30919e-11
4.91461e-08
-1.94288e-11
3.59014e-08
9.85122e-12
1.29997e-11
-2.4147e-11
7.12611e-08
1.45477e-11
-2.11286e-11
6.62941e-08
1.30984e-11
-1.73389e-11
5.67132e-08
-1.39454e-11
4.31958e-08
9.52919e-12
1.43555e-11
-1.39046e-11
7.92086e-08
1.55347e-11
-1.19252e-11
7.40307e-08
1.31485e-11
-9.46082e-12
6.41294e-08
-7.43572e-12
5.0371e-08
9.13817e-12
1.68287e-11
8.68956e-08
1.82264e-11
8.15316e-08
1.5628e-11
7.13508e-08
5.73984e-08
1.11933e-11
7.12001e-12
-1.91236e-11
6.31157e-08
8.28982e-12
-1.74796e-11
5.83761e-08
7.97625e-12
-1.53817e-11
4.91441e-08
-1.33776e-11
3.59002e-08
6.9365e-12
8.07858e-12
-1.51912e-11
7.12541e-08
9.27348e-12
-1.35529e-11
6.6289e-08
8.76815e-12
-1.14565e-11
5.67101e-08
-9.62545e-12
4.31941e-08
6.7555e-12
8.8004e-12
-8.71898e-12
7.91988e-08
9.75659e-12
-7.62753e-12
7.40238e-08
8.65507e-12
-6.23316e-12
6.41254e-08
-5.13733e-12
5.0369e-08
6.50138e-12
1.03972e-11
8.68832e-08
1.15123e-11
8.15228e-08
1.03033e-11
7.13457e-08
5.73959e-08
7.90571e-12
4.64452e-12
-1.18883e-11
6.31129e-08
5.46243e-12
-1.10415e-11
5.8374e-08
5.37403e-12
-9.94697e-12
4.91425e-08
-8.87194e-12
3.58992e-08
4.71119e-12
5.12432e-12
-9.37613e-12
7.12496e-08
5.9483e-12
-8.48732e-12
6.62857e-08
5.82386e-12
-7.34416e-12
5.67079e-08
-6.39189e-12
4.31929e-08
4.63497e-12
5.50669e-12
-5.37445e-12
7.91927e-08
6.17395e-12
-4.76947e-12
7.40193e-08
5.65881e-12
-3.98543e-12
6.41226e-08
-3.40848e-12
5.03674e-08
4.48308e-12
6.50143e-12
8.68755e-08
7.2772e-12
8.15171e-08
6.69872e-12
7.13422e-08
5.7394e-08
5.38697e-12
3.29892e-12
-7.0427e-12
6.31112e-08
3.79193e-12
-6.64104e-12
5.83726e-08
3.71013e-12
-6.10102e-12
4.91416e-08
-5.53501e-12
3.58986e-08
3.17987e-12
3.50746e-12
-5.53682e-12
7.12469e-08
3.98563e-12
-5.07188e-12
6.62836e-08
3.9152e-12
-4.47801e-12
5.67066e-08
-3.99616e-12
4.31921e-08
3.14515e-12
3.68297e-12
-3.19965e-12
7.91891e-08
4.07686e-12
-2.86867e-12
7.40166e-08
3.77225e-12
-2.4382e-12
6.41208e-08
-2.13462e-12
5.03665e-08
3.05333e-12
4.21738e-12
8.68709e-08
4.67242e-12
8.15137e-08
4.33143e-12
7.134e-08
5.73928e-08
3.54363e-12
3.43097e-12
-4.50146e-12
3.67251e-12
-4.32509e-12
3.42636e-12
-4.05166e-12
-3.70993e-12
2.79212e-12
3.44482e-12
-3.49741e-12
3.67832e-12
-3.25997e-12
3.43115e-12
-2.93576e-12
-2.61881e-12
2.7103e-12
3.43503e-12
-1.93287e-12
3.62963e-12
-1.77058e-12
3.29526e-12
-1.54874e-12
-1.35864e-12
2.60088e-12
3.52722e-12
3.73144e-12
3.37154e-12
2.6705e-12
-3.52705e-08
-2.001e-08
6.67286e-08
-1.61876e-08
-1.69707e-08
8.83845e-08
-4.44607e-09
-2.24272e-09
7.15834e-08
-4.51341e-09
8.71094e-08
-2.60853e-09
1.26938e-09
4.35878e-08
-1.49711e-09
-4.97106e-09
5.31015e-08
-6.44175e-09
-3.66069e-09
8.08557e-08
3.31389e-09
6.77155e-08
-1.5391e-08
-1.01356e-08
7.06841e-08
-8.1048e-09
-3.87974e-09
4.85503e-08
1.52526e-08
3.61692e-09
3.26236e-08
-2.77651e-09
9.35806e-08
-5.88591e-09
3.05577e-08
1.71924e-08
1.51049e-08
5.60186e-10
6.87867e-08
5.4261e-08
-7.96663e-09
-2.64233e-09
7.33257e-08
2.24301e-08
2.50406e-09
4.90293e-08
6.48981e-09
-4.46691e-09
9.24263e-08
-7.64535e-09
9.38025e-08
5.82943e-09
-1.13919e-08
5.0575e-08
8.15072e-09
-6.27093e-09
5.95552e-08
5.46394e-10
-6.76264e-09
9.07558e-08
-9.07546e-09
6.83607e-08
1.06379e-08
1.01698e-09
4.14603e-08
5.19457e-09
-2.82705e-09
5.05498e-08
-9.59746e-10
-6.97468e-09
3.89899e-08
-6.89401e-09
8.92425e-08
-3.04031e-10
3.14642e-08
-3.76342e-09
1.47428e-08
2.86945e-09
5.35924e-08
5.01631e-08
5.97469e-09
-7.13556e-09
7.32984e-08
-4.14584e-09
-1.18839e-08
7.28965e-08
2.58891e-09
-4.78017e-09
8.68796e-08
-6.06362e-09
8.74702e-08
7.1885e-09
-1.94461e-09
3.79547e-08
-5.83859e-09
6.27012e-11
6.06356e-08
1.07355e-08
-2.3487e-09
7.17502e-08
-1.02866e-08
8.15823e-08
1.03474e-08
-3.8168e-09
3.95991e-08
-9.27343e-09
-4.38918e-09
7.46225e-08
-4.18228e-09
-5.14365e-09
3.66937e-08
-4.00635e-09
8.03235e-08
-5.01518e-09
4.06123e-08
-6.38942e-09
1.6502e-08
5.8785e-09
3.97554e-08
5.3831e-08
-2.19283e-08
-9.64562e-09
5.089e-08
-7.93001e-09
-5.75165e-09
6.26364e-08
-1.51917e-08
-5.74848e-09
8.31848e-08
-7.0661e-09
7.54729e-08
-6.69582e-09
-3.29862e-09
3.24918e-08
-2.24252e-09
1.09176e-09
4.93389e-08
-1.07236e-08
-2.24294e-09
7.67258e-08
-1.91432e-09
6.72035e-08
2.13647e-09
-7.34518e-10
3.01477e-08
-7.73894e-09
1.53921e-09
8.40505e-08
4.96662e-11
-2.25104e-09
2.89132e-08
-7.89746e-09
8.62202e-08
2.72994e-09
3.77788e-08
-1.07581e-08
3.65529e-08
-5.3979e-09
3.28998e-08
4.48166e-08
-3.44561e-09
-8.34684e-10
5.57907e-08
3.78407e-09
-2.51282e-10
5.59463e-08
-1.1441e-08
-3.57491e-09
1.08705e-07
2.51558e-09
6.51026e-08
-1.42227e-09
-3.85075e-10
3.35696e-08
5.41361e-10
-3.29662e-09
5.04206e-08
-5.29253e-09
-2.6417e-09
8.16265e-08
-3.84381e-09
6.9583e-08
-6.73748e-09
8.71533e-09
2.87495e-08
-1.4443e-09
5.53753e-09
6.99231e-08
-1.06571e-08
5.3605e-10
3.49482e-08
1.15181e-09