/*--------------------------------*- C++ -*----------------------------------*\
| =========                 |                                                 |
| \\      /  F ield         | OpenFOAM: The Open Source CFD Toolbox           |
|  \\    /   O peration     | Version:  2506                                  |
|   \\  /    A nd           | Website:  www.openfoam.com                      |
|    \\/     M anipulation  |                                                 |
\*---------------------------------------------------------------------------*/
FoamFile
{
    version     2.0;
    format      ascii;
    arch        "LSB;label=32;scalar=64";
    class       volVectorField;
    location    "0.1";
    object      U;
}
// * * * * * * * * * * * * * * * * * * * * * * * * * * * * * * * * * * * * * //

dimensions      [0 1 -1 0 0 0 0];

internalField   nonuniform List<vector> 
1152
(
(0.00850797 -0.00778115 0.0629427)
(-0.000976282 -0.00139421 0.00591588)
(0.00843593 -0.0066124 0.0108389)
(-0.00064879 0.000172912 -0.000885719)
(-0.00146624 -0.0209158 0.0462423)
(-0.00400318 -0.00464022 0.0190759)
(-0.00119608 -0.00569388 0.0183454)
(0.000757395 -0.0109679 0.0105764)
(0.000310063 -0.000262085 0.000380611)
(0.000447997 -0.00650388 0.0156401)
(6.04348e-05 0.00185221 0.0223466)
(0.00356626 -0.00286885 0.0146828)
(-0.000954869 -0.00213629 0.0112231)
(0.00351619 -0.0039425 0.0111714)
(-0.000491271 -0.00062656 0.00174859)
(-0.00614514 -0.00339675 0.0235794)
(-0.0116172 -0.0206694 0.0492876)
(-0.00284739 -0.00589469 0.043322)
(-0.0110624 -0.0150455 0.0552855)
(-0.0059173 -0.00501128 0.0461459)
(-0.00276334 -0.00532211 0.0314999)
(-0.00247632 -0.00635452 0.0336011)
(-0.00191812 -0.00592226 0.0350954)
(4.49702e-05 0.00135116 0.045112)
(-0.00141736 -0.00449361 0.0285402)
(-0.00321751 -0.00583874 0.059062)
(-0.0012202 -0.00323745 0.0290081)
(-0.000814394 -0.00377204 0.065733)
(2.90579e-05 -0.00724022 0.0524118)
(-0.000912704 -0.00173467 0.0353004)
(-9.72129e-05 -0.00502022 0.0878927)
(0.000148726 0.000302638 0.0098346)
(0.00399781 0.007445 0.0373148)
(-0.00158017 -0.000244138 0.0189602)
(0.00151455 0.00273193 0.0299622)
(0.00634514 -0.00287237 0.0722862)
(-0.000627643 0.000477053 0.0120799)
(-0.00101905 -0.00230742 0.0380187)
(0.000343937 0.000325128 0.0377164)
(0.000311693 -0.00392193 0.0383201)
(-0.000662674 -0.00287169 0.0302878)
(0.000927794 -0.00137221 0.0314551)
(0.000490611 -0.00310902 0.0249677)
(0.000718792 -0.000246823 0.0176959)
(-0.000223305 0.0003016 0.031059)
(-0.00285952 0.00128264 0.0333708)
(0.0014559 -0.00260635 0.025532)
(0.00577118 -0.00289973 0.0420194)
(2.77401e-05 -0.00119246 0.0163377)
(0.0239782 -0.00916211 0.0471256)
(0.0192711 0.000578082 0.0439275)
(0.00114832 -0.00154622 0.0482333)
(0.00677671 0.0131013 0.0510426)
(0.0106763 -0.00287946 0.0341156)
(0.00643503 -0.0033466 0.0323714)
(0.000448957 -0.013878 0.0365157)
(0.00134366 0.00425813 0.0292868)
(0.00562182 0.000566168 0.0426022)
(0.00432298 -0.00423357 0.043759)
(-0.00017401 -0.00914003 0.0588659)
(0.00138187 0.00566263 0.0576119)
(0.00133822 -0.000594721 0.0341382)
(0.00447137 -0.00210947 0.0713537)
(0.00126547 -0.00615938 0.0566625)
(0.000360531 0.000201803 0.015619)
(-0.00267654 0.0141756 0.0611514)
(0.00339678 0.00133058 0.0343989)
(0.000150331 0.000383427 0.0128173)
(0.0040335 -0.00254603 0.0356083)
(0.00239425 -0.000238477 0.0323633)
(0.00389862 0.000202895 0.0507999)
(0.00132864 -0.00116715 0.0363028)
(0.00216343 0.00110606 0.0324904)
(0.00246368 0.000339071 0.0484372)
(0.0017944 -0.000464958 0.0323753)
(0.00260193 0.00197453 0.0570707)
(-0.00139709 0.00601858 0.0468771)
(-0.000528931 0.000633635 0.028023)
(0.00233176 0.000157883 0.0270726)
(0.00388266 0.000927488 0.0455018)
(-0.00222057 0.00956096 0.0404635)
(0.00854575 0.00300276 0.048852)
(-0.00349311 0.000452258 0.029882)
(0.00323821 0.00274948 0.0328957)
(0.00444137 0.0134276 0.0515659)
(0.0042595 0.0046078 0.0327688)
(0.00231395 0.00395452 0.026463)
(0.00243495 0.0135449 0.0297603)
(0.00225635 0.00116069 0.0240454)
(0.0024573 0.00349187 0.0275212)
(0.00341284 0.00107493 0.0279151)
(0.00255535 0.00223469 0.0252434)
(0.00720499 0.00688797 0.0542308)
(0.00189016 0.00018927 0.0147549)
(-0.0010772 0.00331048 0.0412241)
(0.0343306 0.02442 0.0561914)
(0.00136534 0.000839157 0.0322994)
(0.000460325 0.00101947 0.0276912)
(-0.000545011 0.00137123 0.0275432)
(-6.82655e-05 0.00129111 0.0794157)
(-0.000148247 0.00100311 0.0294582)
(0.000291067 0.000985631 0.0343731)
(-0.000329069 0.00179072 0.0316312)
(0.000326666 0.00504484 0.0399502)
(0.00141073 0.000209065 0.0248445)
(0.00170021 0.000826631 0.0250801)
(-0.000156363 0.0021231 0.0232146)
(0.000501884 0.00265508 0.0296015)
(0.000538204 -0.000700895 0.0153241)
(0.00213846 0.000716458 0.017007)
(0.000794792 0.00129714 0.0175864)
(-0.00309644 0.00131997 0.0188067)
(-0.000456214 0.00365333 0.0406272)
(0.00078501 0.00278397 0.01832)
(0.00258394 0.0024453 0.0281717)
(0.00293664 0.00149476 0.0660167)
(0.00039451 0.00152884 0.0351732)
(0.00164147 0.00407817 0.0372257)
(0.00120703 0.00292321 0.0375233)
(0.00197161 0.00294565 0.0468917)
(-0.000353353 -0.0026305 0.0139397)
(0.00188999 0.00189015 0.0265581)
(0.00084998 0.00231352 0.0222511)
(0.00143093 0.00295924 0.0363514)
(-0.00359843 0.00666751 -0.0343109)
(0.00539247 0.00405938 0.0272124)
(0.0018746 0.0032117 0.0138148)
(0.000723155 0.00348966 0.0408736)
(0.0016068 -0.0017047 0.0200452)
(-0.00123155 -0.000928664 0.0164996)
(-0.00385084 0.000953047 0.0160339)
(-0.000880117 0.000715525 0.0196406)
(-0.000978391 0.00258769 0.0177542)
(-0.00213009 0.000225977 0.0167454)
(-0.00248304 0.00135807 0.01636)
(-0.000399226 0.0019984 0.0173569)
(0.000716484 0.00649237 0.0120899)
(-0.0025655 0.0013221 0.0136781)
(-0.00224593 0.00216881 0.0134698)
(-0.00163803 0.00129281 0.0156413)
(0.00291308 -0.00452189 0.0098929)
(-0.00651277 -0.00181947 0.0135054)
(-0.00264781 -0.00122832 0.0123425)
(-0.00293953 -0.00290171 0.0155268)
(0.000620168 -0.0005017 0.0214867)
(-0.000445813 -0.000280176 0.0206008)
(-0.00131761 0.000381758 0.0215743)
(-0.000440947 0.000365611 0.0235727)
(-0.000414167 0.00102878 0.0203111)
(-0.000920989 0.000273496 0.0210273)
(-0.00104051 0.000663115 0.0216579)
(-0.000363027 0.000789487 0.0228379)
(0.000184692 0.00104241 0.0180176)
(-0.000873422 0.000265387 0.0200157)
(-0.000881432 0.000894332 0.0203435)
(-0.000695442 0.000786789 0.0220605)
(0.00084717 -0.00182421 0.0140712)
(-0.00112448 -0.000821713 0.0195444)
(-0.000590027 -0.000303507 0.0196757)
(-0.000829226 -0.000333758 0.0219125)
(6.16999e-05 -0.000204779 0.0199242)
(-0.000369528 -0.000151967 0.0197654)
(-0.000613674 3.9993e-05 0.0199954)
(-0.000386299 8.80813e-05 0.0205306)
(-0.000219188 0.000204283 0.0193664)
(-0.000510294 4.31359e-05 0.0196972)
(-0.000593474 0.000169215 0.0198961)
(-0.000425616 0.000190964 0.0202881)
(-6.39595e-06 -7.05972e-05 0.0186961)
(-0.000442568 -0.000102352 0.0192888)
(-0.000517527 0.000146809 0.0193331)
(-0.000488283 0.000176905 0.019888)
(0.000271985 -0.000957574 0.0181987)
(-0.00031971 -0.000573335 0.0192327)
(-0.000357039 -0.000315836 0.0190386)
(-0.000463661 -0.000236341 0.0196179)
(-5.25473e-05 -0.000113515 0.0200576)
(-0.000233566 -9.09485e-05 0.0200904)
(-0.000318982 -2.50681e-05 0.0201962)
(-0.000270521 2.56505e-05 0.0203626)
(-0.000115876 -2.38646e-05 0.0198831)
(-0.000262685 -3.46695e-05 0.0200361)
(-0.000314377 2.80701e-05 0.0201465)
(-0.0002867 6.38169e-05 0.020306)
(-3.05311e-05 -0.000190635 0.019714)
(-0.000201847 -0.000131678 0.0199025)
(-0.000249895 -5.43416e-06 0.0199543)
(-0.000247843 7.07805e-05 0.0201467)
(9.07582e-05 -0.000503986 0.0197388)
(-8.80496e-05 -0.000340932 0.0199361)
(-0.000132539 -0.000190384 0.0198897)
(-0.000163137 -7.54118e-05 0.020059)
(-4.9118e-05 -7.70792e-05 0.020122)
(-0.000129738 -6.343e-05 0.0201572)
(-0.000170925 -3.5433e-05 0.0202041)
(-0.000168808 -2.28328e-06 0.0202525)
(-5.94223e-05 -7.21142e-05 0.0200737)
(-0.000129524 -5.73005e-05 0.0201328)
(-0.000162896 -2.29549e-05 0.0201781)
(-0.00016862 7.76158e-06 0.0202253)
(-2.21959e-05 -0.000154954 0.0200353)
(-8.99551e-05 -0.000109446 0.0200865)
(-0.000120109 -4.74603e-05 0.0201005)
(-0.000129324 5.14371e-06 0.0201357)
(3.35722e-05 -0.000271521 0.0200779)
(-2.52104e-05 -0.000199944 0.0201001)
(-5.65485e-05 -0.00012724 0.0200627)
(-7.83376e-05 -6.40367e-05 0.0200609)
(-2.96517e-05 -5.61613e-05 0.0201855)
(-6.79765e-05 -4.75154e-05 0.0202021)
(-9.10539e-05 -3.27521e-05 0.0202179)
(-9.73864e-05 -1.20822e-05 0.0202251)
(-2.85231e-05 -6.67882e-05 0.0201731)
(-6.15578e-05 -5.35478e-05 0.0201927)
(-8.14262e-05 -3.3073e-05 0.0202046)
(-9.047e-05 -1.07326e-05 0.020208)
(-1.02904e-05 -0.000105658 0.0201646)
(-3.8036e-05 -7.96431e-05 0.0201733)
(-5.44279e-05 -4.69824e-05 0.0201673)
(-6.25827e-05 -1.41989e-05 0.0201548)
(1.65051e-05 -0.000150928 0.0201812)
(-3.35513e-06 -0.000118176 0.0201693)
(-1.8689e-05 -8.19576e-05 0.0201364)
(-3.09111e-05 -4.64402e-05 0.0200987)
(-1.49207e-05 -4.12316e-05 0.0202335)
(-3.48208e-05 -3.59704e-05 0.0202377)
(-4.82586e-05 -2.74046e-05 0.0202365)
(-5.42315e-05 -1.49455e-05 0.020224)
(-1.21572e-05 -5.10042e-05 0.0202302)
(-2.88061e-05 -4.22803e-05 0.0202329)
(-4.02631e-05 -3.01591e-05 0.0202275)
(-4.70363e-05 -1.59103e-05 0.0202099)
(-2.58045e-06 -6.90341e-05 0.0202242)
(-1.52324e-05 -5.50576e-05 0.0202193)
(-2.4272e-05 -3.75431e-05 0.0202024)
(-2.95355e-05 -1.87237e-05 0.0201718)
(1.05778e-05 -8.71355e-05 0.0202196)
(3.04807e-06 -7.17836e-05 0.0202026)
(-4.46704e-06 -5.35001e-05 0.0201697)
(-1.1164e-05 -3.43561e-05 0.0201207)
(-6.74921e-06 -3.02444e-05 0.0202627)
(-1.7654e-05 -2.69953e-05 0.0202603)
(-2.55573e-05 -2.19035e-05 0.0202501)
(-2.96899e-05 -1.45642e-05 0.0202272)
(-4.4322e-06 -3.65561e-05 0.0202602)
(-1.33264e-05 -3.13759e-05 0.0202558)
(-1.99816e-05 -2.42752e-05 0.0202419)
(-2.39931e-05 -1.56372e-05 0.0202142)
(6.54943e-07 -4.48279e-05 0.020251)
(-5.68666e-06 -3.74669e-05 0.0202414)
(-1.06459e-05 -2.79784e-05 0.0202197)
(-1.3615e-05 -1.74097e-05 0.0201821)
(7.28319e-06 -5.20505e-05 0.0202336)
(3.99776e-06 -4.46581e-05 0.0202167)
(2.22681e-07 -3.53459e-05 0.0201842)
(-3.20706e-06 -2.51503e-05 0.0201326)
(-2.7427e-06 -2.21181e-05 0.0202796)
(-8.8993e-06 -2.01374e-05 0.0202737)
(-1.35775e-05 -1.70993e-05 0.0202587)
(-1.61439e-05 -1.27677e-05 0.0202301)
(-1.18343e-06 -2.57073e-05 0.0202759)
(-6.10498e-06 -2.27451e-05 0.0202682)
(-9.96097e-06 -1.86169e-05 0.0202501)
(-1.21949e-05 -1.35256e-05 0.0202174)
(1.54937e-06 -2.93797e-05 0.0202632)
(-1.83374e-06 -2.54931e-05 0.0202519)
(-4.62591e-06 -2.03069e-05 0.020228)
(-6.09906e-06 -1.44368e-05 0.0201874)
(4.95647e-06 -3.20495e-05 0.0202384)
(3.34293e-06 -2.84565e-05 0.0202222)
(1.36613e-06 -2.36714e-05 0.0201902)
(-2.56029e-07 -1.82131e-05 0.020138)
(-9.32966e-07 -1.61206e-05 0.0202892)
(-4.46174e-06 -1.49233e-05 0.0202816)
(-7.20794e-06 -1.30921e-05 0.0202639)
(-8.74777e-06 -1.0525e-05 0.0202321)
(3.60335e-08 -1.80154e-05 0.0202841)
(-2.7301e-06 -1.63311e-05 0.020275)
(-4.94366e-06 -1.39358e-05 0.0202548)
(-6.14965e-06 -1.09497e-05 0.0202195)
(1.51848e-06 -1.95184e-05 0.0202688)
(-3.44634e-07 -1.74441e-05 0.020257)
(-1.91344e-06 -1.45904e-05 0.020232)
(-2.56575e-06 -1.13305e-05 0.0201899)
(3.30173e-06 -2.02771e-05 0.0202398)
(2.4532e-06 -1.85289e-05 0.0202242)
(1.40639e-06 -1.60431e-05 0.0201925)
(7.72291e-07 -1.3104e-05 0.0201401)
(-1.89141e-07 -1.16977e-05 0.0202946)
(-2.2141e-06 -1.0966e-05 0.020286)
(-3.81788e-06 -9.85533e-06 0.020267)
(-4.71031e-06 -8.31719e-06 0.0202334)
(4.06145e-07 -1.26249e-05 0.0202883)
(-1.16544e-06 -1.16586e-05 0.0202786)
(-2.43166e-06 -1.02625e-05 0.0202572)
(-3.02523e-06 -8.50061e-06 0.0202205)
(1.22461e-06 -1.31287e-05 0.0202713)
(1.85599e-07 -1.20036e-05 0.0202593)
(-6.92057e-07 -1.04128e-05 0.0202337)
(-9.17077e-07 -8.58398e-06 0.020191)
(2.17379e-06 -1.3119e-05 0.0202398)
(1.71492e-06 -1.22706e-05 0.0202246)
(1.1598e-06 -1.09739e-05 0.020193)
(9.94783e-07 -9.36754e-06 0.0201407)
(8.22165e-08 -8.41004e-06 0.0202975)
(-1.07354e-06 -7.95139e-06 0.0202885)
(-2.00614e-06 -7.26896e-06 0.0202687)
(-2.51e-06 -6.32352e-06 0.0202342)
(4.54738e-07 -8.81292e-06 0.0202905)
(-4.37889e-07 -8.2515e-06 0.0202804)
(-1.15877e-06 -7.42899e-06 0.0202585)
(-1.42936e-06 -6.3827e-06 0.020221)
(9.17427e-07 -8.87905e-06 0.0202723)
(3.36733e-07 -8.2572e-06 0.0202602)
(-1.52581e-07 -7.35796e-06 0.0202344)
(-1.65834e-07 -6.32067e-06 0.0201912)
(1.43255e-06 -8.59914e-06 0.0202394)
(1.18778e-06 -8.19217e-06 0.0202244)
(8.94531e-07 -7.51188e-06 0.0201929)
(9.24202e-07 -6.61839e-06 0.0201405)
(1.75484e-07 -5.90861e-06 0.0202991)
(-4.74055e-07 -5.61743e-06 0.0202899)
(-1.01393e-06 -5.19183e-06 0.0202697)
(-1.29158e-06 -4.61715e-06 0.0202346)
(4.10743e-07 -6.04493e-06 0.0202915)
(-8.90917e-08 -5.71675e-06 0.0202813)
(-5.00022e-07 -5.23231e-06 0.0202591)
(-6.12938e-07 -4.61032e-06 0.0202212)
(6.76847e-07 -5.94503e-06 0.0202726)
(3.55546e-07 -5.59872e-06 0.0202605)
(8.33247e-08 -5.08898e-06 0.0202346)
(1.45801e-07 -4.49751e-06 0.0201912)
(9.59264e-07 -5.61868e-06 0.0202388)
(8.33426e-07 -5.43104e-06 0.020224)
(6.77384e-07 -5.07553e-06 0.0201926)
(7.60142e-07 -4.57284e-06 0.0201402)
(2.31725e-07 -3.95349e-06 0.0203)
(-1.2223e-07 -3.77588e-06 0.0202907)
(-4.31472e-07 -3.51958e-06 0.0202702)
(-5.91921e-07 -3.17721e-06 0.0202349)
(3.73169e-07 -3.97089e-06 0.020292)
(1.01584e-07 -3.78554e-06 0.0202817)
(-1.32074e-07 -3.51096e-06 0.0202594)
(-1.78953e-07 -3.15196e-06 0.0202213)
(5.2443e-07 -3.8383e-06 0.0202727)
(3.48476e-07 -3.65078e-06 0.0202606)
(1.96225e-07 -3.37093e-06 0.0202346)
(2.63805e-07 -3.04157e-06 0.0201911)
(6.76114e-07 -3.56637e-06 0.0202383)
(6.1131e-07 -3.48791e-06 0.0202236)
(5.25266e-07 -3.30767e-06 0.0201922)
(5.99875e-07 -3.02687e-06 0.0201398)
(3.35868e-07 -2.44952e-06 0.0203004)
(1.51585e-07 -2.35286e-06 0.0202911)
(-2.21904e-08 -2.21164e-06 0.0202705)
(-1.26574e-07 -2.02228e-06 0.020235)
(4.10292e-07 -2.43087e-06 0.0202922)
(2.69391e-07 -2.33738e-06 0.0202819)
(1.37876e-07 -2.19549e-06 0.0202595)
(1.02615e-07 -2.0042e-06 0.0202213)
(4.86763e-07 -2.32403e-06 0.0202726)
(3.94168e-07 -2.23546e-06 0.0202605)
(3.08184e-07 -2.09414e-06 0.0202345)
(3.40898e-07 -1.92287e-06 0.020191)
(5.57592e-07 -2.13639e-06 0.0202379)
(5.26788e-07 -2.11269e-06 0.0202232)
(4.79967e-07 -2.02821e-06 0.0201919)
(5.12925e-07 -1.87881e-06 0.0201395)
(6.38224e-07 -1.61253e-06 0.0203006)
(5.42077e-07 -1.56799e-06 0.0202913)
(4.31845e-07 -1.49553e-06 0.0202707)
(3.29951e-07 -1.39601e-06 0.0202352)
(6.6614e-07 -1.59074e-06 0.0202922)
(5.97344e-07 -1.55438e-06 0.020282)
(5.12523e-07 -1.48806e-06 0.0202596)
(4.4087e-07 -1.39359e-06 0.0202214)
(6.90281e-07 -1.508e-06 0.0202725)
(6.5066e-07 -1.48078e-06 0.0202604)
(5.93474e-07 -1.42228e-06 0.0202344)
(5.52835e-07 -1.34055e-06 0.020191)
(7.08985e-07 -1.36878e-06 0.0202376)
(7.03169e-07 -1.37071e-06 0.020223)
(6.71609e-07 -1.3379e-06 0.0201917)
(6.37585e-07 -1.26609e-06 0.0201394)
(-0.00162407 0.000780055 0.0342404)
(0.00071032 -0.00195773 0.0109318)
(0.00371371 -0.0114605 0.0256274)
(-0.000990472 -0.00139773 0.0253745)
(-4.10701e-05 0.00253212 0.00948184)
(-1.25867e-05 0.00146766 0.0117365)
(0.00460255 -0.0017804 0.023138)
(0.00134994 0.00238665 0.0154547)
(0.00123984 0.0160356 0.0254501)
(-0.00135885 0.00342166 0.0167663)
(0.00343516 0.000653934 0.0248057)
(0.00318254 0.00386803 0.0216142)
(0.000157574 0.000255194 0.000194662)
(-0.00215495 0.000142887 0.00717737)
(0.00161917 -0.00101409 0.0135646)
(0.00150079 -0.000582178 0.0217926)
(-0.00127641 -0.00137455 0.0290693)
(0.00170501 -0.000260727 0.0392579)
(0.000218187 -0.00396164 0.0488783)
(0.00306281 0.00293251 0.0423244)
(0.00192247 -0.00298349 0.051994)
(-0.000189068 -0.00188276 0.0307211)
(-0.000749551 0.000470087 0.0096738)
(0.00118965 0.000845439 0.0251068)
(0.00114289 -0.00678702 0.0432787)
(0.0028763 -0.00493445 0.0485943)
(0.00213438 0.00018473 0.047667)
(0.000302827 -0.00211195 0.0703856)
(0.00235331 -0.00530729 0.0523125)
(0.00586718 -0.00135955 0.0564674)
(0.00243699 -0.00175451 0.048928)
(0.00170138 -0.000472605 0.048217)
(-0.000343958 -0.00175694 0.0311196)
(-0.00124051 -0.000267344 0.0371016)
(-0.000900736 0.00261178 0.0368674)
(4.7515e-05 -0.00251528 0.0134242)
(-4.64712e-05 -0.00483694 0.0365335)
(0.00271184 -0.00849326 0.0597911)
(0.000243157 -0.000449014 0.028552)
(-0.000704177 -0.00645461 0.0717028)
(-0.000259463 -0.00642377 0.0396274)
(-0.000492117 -0.00317543 0.0174514)
(0.000123055 -0.00656894 0.0616175)
(0.0011424 -0.00236751 0.0170124)
(-0.00255547 -0.0038286 0.0325533)
(0.00290958 -0.00276571 0.045621)
(0.0011332 -0.00189802 0.0238152)
(0.0063458 0.00329944 0.0588092)
(0.000433313 -0.0013571 0.0132135)
(0.000234878 -0.0040226 0.0541589)
(0.000130433 -0.00172759 0.0232133)
(-0.00135105 -0.00556706 0.0366084)
(-0.00378439 -0.00216423 0.0393488)
(0.000177033 -0.000441229 0.0441352)
(-0.000943258 -0.00366818 0.0347424)
(-0.000482632 -0.00565233 0.0363003)
(-0.00162613 0.00092143 0.0532222)
(-0.00073757 -0.0010395 0.0396905)
(-0.00511258 -0.00205749 0.0522489)
(-0.0024184 -0.000752401 0.0303441)
(-0.00399894 0.000872871 0.0421988)
(-0.0017806 -0.00320691 0.0383636)
(-0.000767139 -0.000547162 0.0389747)
(-0.00272905 -0.00121366 0.0664721)
(-0.000770477 -0.000159883 0.0355331)
(-0.00479513 0.00376852 0.0589983)
(0.00164787 -0.00133033 0.0541709)
(0.00110775 -0.00463324 0.0451885)
(-0.0012719 -0.00114403 0.0326483)
(-0.00123943 0.000395856 0.0233567)
(-0.00257433 -0.00141032 0.045)
(-0.000301879 -0.00641821 0.0547249)
(0.000236145 -0.000979801 0.0148077)
(-0.00555841 -0.00144395 0.0658618)
(-0.00201963 0.00133891 0.0593921)
(-0.00137462 -0.00254449 0.0218605)
(4.30968e-05 7.97177e-05 0.00870628)
(0.00100724 -0.000396675 0.0324358)
(-0.0019641 0.00145027 0.0282198)
(-0.00507857 -0.00170774 0.0423104)
(-0.017436 0.0157965 0.0514566)
(0.000979659 -0.00105771 0.0211954)
(0.00498338 0.000267213 0.0249099)
(-0.00017102 0.000216243 0.0113699)
(-0.00136276 0.00200266 0.0134057)
(-0.00558599 0.00260064 0.040971)
(-2.96202e-06 0.000104793 0.0154058)
(-0.00510908 -0.00955752 0.0307921)
(-0.00939207 -0.00382834 0.0356754)
(-0.00105624 0.00198848 0.0242496)
(-0.00193144 -0.00294616 0.0311212)
(-0.00223742 -0.00175849 0.0240617)
(-0.000447546 9.26333e-05 0.0212255)
(-0.00230475 0.000350348 0.0263676)
(-0.00335143 -0.000158725 0.0382096)
(-0.00199785 -0.00103148 0.0305561)
(-0.00150139 8.47142e-05 0.018048)
(-0.00181872 0.00173376 0.0230074)
(-0.00238056 0.00210992 0.0285388)
(-0.00415981 0.00798039 -0.0409013)
(-0.00105161 -0.00136804 0.00778261)
(7.67458e-05 0.000340925 0.0165654)
(-0.000682055 0.00200954 0.0186084)
(0.00226908 0.0073218 0.0276247)
(0.000208343 0.00234199 0.0220967)
(-0.00182379 0.000756571 0.0322771)
(-0.000377102 0.00104454 0.0301884)
(6.93221e-06 0.00104848 0.0181886)
(0.00196335 0.00110489 0.0205126)
(-0.000709114 0.00207337 0.0215035)
(-0.00189832 0.000911047 0.0220807)
(-0.000961094 0.000873958 0.0248124)
(-0.00756833 0.0119653 0.0239902)
(-0.00195088 0.00569318 0.0262992)
(-0.000221311 0.00368452 0.0354923)
(-0.000165529 0.00392027 0.0768804)
(-0.00403906 0.00205346 0.0358988)
(-0.00223423 0.00185627 0.0178502)
(-0.000510859 0.00191087 0.0339987)
(0.000125706 0.00171316 0.0529708)
(-0.00270722 3.48042e-05 0.0323243)
(-0.0017414 0.000994327 0.036788)
(-0.000416022 0.00117398 0.0374242)
(-0.000184392 0.00156439 0.0312097)
(-0.000765298 0.000335916 0.0325108)
(-0.00131279 0.000803247 0.0311225)
(-0.000651264 0.000701514 0.0305222)
(-0.000703104 0.00115464 0.0303576)
(0.0130101 -0.00775186 0.0124095)
(0.000706809 -0.00142863 0.012634)
(-0.0024456 -0.000790452 0.0132839)
(-0.00139887 -0.000393975 0.0175582)
(0.005119 0.000491184 0.0167575)
(-0.000321499 0.00022849 0.0131354)
(-0.00217761 0.000569764 0.0130332)
(0.000353146 0.00240438 0.0152666)
(0.0033595 -1.29457e-05 0.0155556)
(-0.000262252 -0.000295231 0.0137536)
(-0.000636059 0.000536575 0.0130546)
(0.000937985 0.00145734 0.0123427)
(0.00286052 1.05638e-05 0.0130308)
(7.89188e-05 0.000216481 0.0118657)
(-0.000412679 0.000570708 0.0117294)
(0.000488122 6.40391e-05 0.0113899)
(0.00355002 -0.00250435 0.0220769)
(0.000682763 -0.000728295 0.0217165)
(-0.000273509 -0.000393405 0.0212021)
(-0.000309677 8.05977e-05 0.0235127)
(0.0019619 -0.000311256 0.023204)
(0.000690111 -0.000142908 0.0217307)
(-0.000158408 4.75751e-05 0.0214114)
(0.000200925 0.000735642 0.0228852)
(0.00201167 0.000337612 0.0231445)
(0.00072078 2.42044e-05 0.0220634)
(0.000316671 0.000218261 0.0214345)
(0.000462513 0.000581791 0.021847)
(0.00188341 0.000201288 0.0221197)
(0.000676254 6.99595e-05 0.0213486)
(0.00032775 0.000131806 0.0208863)
(0.000275163 0.000108248 0.021295)
(0.000944959 -0.00117197 0.0200856)
(0.000218585 -0.000606147 0.0198379)
(-0.000163374 -0.000317143 0.0193999)
(-0.000250936 -0.000112489 0.0198437)
(0.000839869 -0.000481478 0.0205894)
(0.000402034 -0.000332026 0.0198342)
(-4.11364e-05 -0.000126281 0.019379)
(-6.72924e-05 8.82732e-05 0.0196043)
(0.000988225 -2.75243e-05 0.0205133)
(0.000437834 -0.000165732 0.0197927)
(0.000103385 -4.51314e-05 0.0192483)
(1.86291e-05 7.97728e-05 0.0192088)
(0.000996773 -1.8183e-05 0.019903)
(0.000423547 -0.000113648 0.0193336)
(0.000140373 -5.11655e-05 0.0188689)
(1.8847e-05 -1.89023e-05 0.0188524)
(0.000295026 -0.000600336 0.0202954)
(0.000125612 -0.000384327 0.0201681)
(5.39993e-06 -0.000205543 0.0200062)
(-5.86168e-05 -4.99721e-05 0.020112)
(0.000380519 -0.000359149 0.0205451)
(0.000263967 -0.000266714 0.0202155)
(0.000100036 -0.000134501 0.0199848)
(1.4844e-05 -8.45972e-06 0.020028)
(0.00048603 -8.97584e-05 0.0204873)
(0.000321498 -0.000133365 0.0201431)
(0.000172498 -6.76478e-05 0.0198772)
(5.89984e-05 1.43196e-05 0.0198623)
(0.000531968 -2.6755e-05 0.0202538)
(0.000329551 -9.4015e-05 0.0199581)
(0.000198632 -7.95189e-05 0.0197097)
(6.38631e-05 -2.46527e-05 0.019705)
(0.000110039 -0.00030654 0.0202495)
(6.28324e-05 -0.000218206 0.0201679)
(1.34753e-05 -0.000127825 0.020067)
(-2.50206e-05 -4.659e-05 0.0200198)
(0.000172225 -0.000219522 0.020338)
(0.000135743 -0.000170318 0.0201667)
(6.65982e-05 -0.000101229 0.0200103)
(8.52637e-06 -3.63242e-05 0.0199325)
(0.000230494 -9.38606e-05 0.0202771)
(0.000178822 -0.000104532 0.0200813)
(0.000103744 -7.08386e-05 0.0198974)
(2.72075e-05 -2.56823e-05 0.0198037)
(0.000263241 -3.3853e-05 0.020101)
(0.000195849 -7.03983e-05 0.0199205)
(0.000124194 -6.75071e-05 0.0197367)
(3.96482e-05 -3.44613e-05 0.0196506)
(4.99499e-05 -0.000162009 0.0202228)
(3.69978e-05 -0.000122684 0.0201724)
(1.77833e-05 -7.79484e-05 0.0201072)
(-3.35994e-06 -3.27665e-05 0.0200447)
(8.30795e-05 -0.000126518 0.0202249)
(7.37816e-05 -0.00010161 0.0201351)
(4.63626e-05 -6.69153e-05 0.0200397)
(1.46267e-05 -3.15864e-05 0.019964)
(0.000112475 -6.82968e-05 0.0201504)
(9.88619e-05 -6.88794e-05 0.0200435)
(6.72953e-05 -5.18459e-05 0.0199333)
(2.51715e-05 -2.50838e-05 0.0198541)
(0.000131966 -2.67955e-05 0.0200029)
(0.000114036 -4.59662e-05 0.0199005)
(8.24814e-05 -4.84792e-05 0.019792)
(3.46381e-05 -2.98133e-05 0.0197216)
(2.60863e-05 -8.94597e-05 0.0202098)
(2.24942e-05 -7.08337e-05 0.0201753)
(1.45444e-05 -4.83925e-05 0.0201242)
(3.02412e-06 -2.34065e-05 0.0200601)
(4.24523e-05 -7.27384e-05 0.0201705)
(4.1065e-05 -6.03763e-05 0.0201173)
(2.96902e-05 -4.34133e-05 0.0200498)
(1.29046e-05 -2.468e-05 0.01998)
(5.67519e-05 -4.39173e-05 0.0200818)
(5.4923e-05 -4.30058e-05 0.0200187)
(4.11719e-05 -3.50696e-05 0.0199432)
(1.8736e-05 -2.07059e-05 0.0198741)
(6.75861e-05 -1.78092e-05 0.0199401)
(6.53222e-05 -2.83739e-05 0.0198779)
(5.10671e-05 -3.19112e-05 0.0198044)
(2.54593e-05 -2.29394e-05 0.0197447)
(1.47097e-05 -5.13131e-05 0.0202013)
(1.36888e-05 -4.20696e-05 0.0201749)
(1.02359e-05 -3.05292e-05 0.0201309)
(3.98241e-06 -1.65906e-05 0.020069)
(2.26886e-05 -4.23424e-05 0.0201422)
(2.32152e-05 -3.62787e-05 0.0201062)
(1.83087e-05 -2.79133e-05 0.020053)
(9.60899e-06 -1.81329e-05 0.0199895)
(2.96217e-05 -2.7023e-05 0.0200439)
(3.07724e-05 -2.64037e-05 0.0200026)
(2.46892e-05 -2.27319e-05 0.0199457)
(1.30927e-05 -1.53009e-05 0.0198854)
(3.55928e-05 -1.11201e-05 0.0199009)
(3.74254e-05 -1.72279e-05 0.0198604)
(3.10429e-05 -2.02932e-05 0.0198072)
(1.78293e-05 -1.64558e-05 0.0197575)
(8.58035e-06 -3.04362e-05 0.0201953)
(8.28157e-06 -2.56924e-05 0.020173)
(6.72295e-06 -1.96028e-05 0.0201327)
(3.31729e-06 -1.16739e-05 0.0200727)
(1.25448e-05 -2.51186e-05 0.0201264)
(1.3271e-05 -2.21694e-05 0.0200986)
(1.10871e-05 -1.80299e-05 0.0200526)
(6.63731e-06 -1.30159e-05 0.0199933)
(1.5954e-05 -1.64242e-05 0.0200222)
(1.74067e-05 -1.62073e-05 0.0199917)
(1.46776e-05 -1.4572e-05 0.0199445)
(8.7948e-06 -1.0923e-05 0.0198898)
(1.93062e-05 -6.78868e-06 0.0198769)
(2.15673e-05 -1.04554e-05 0.0198479)
(1.876e-05 -1.27898e-05 0.0198055)
(1.21352e-05 -1.14934e-05 0.0197622)
(5.11248e-06 -1.86047e-05 0.0201911)
(5.03278e-06 -1.61019e-05 0.020171)
(4.34249e-06 -1.28018e-05 0.0201325)
(2.49574e-06 -8.17003e-06 0.0200737)
(7.11697e-06 -1.52287e-05 0.0201171)
(7.7079e-06 -1.38115e-05 0.0200934)
(6.75551e-06 -1.17733e-05 0.0200512)
(4.51252e-06 -9.24024e-06 0.0199943)
(8.85876e-06 -1.00264e-05 0.0200095)
(1.00128e-05 -1.00352e-05 0.0199845)
(8.82075e-06 -9.3658e-06 0.0199423)
(5.87629e-06 -7.68972e-06 0.019891)
(1.08173e-05 -4.1425e-06 0.0198624)
(1.26339e-05 -6.4106e-06 0.0198395)
(1.1467e-05 -8.10927e-06 0.0198029)
(8.228e-06 -7.96857e-06 0.0197634)
(3.10702e-06 -1.16678e-05 0.0201881)
(3.09531e-06 -1.03091e-05 0.0201691)
(2.81246e-06 -8.48055e-06 0.0201316)
(1.80041e-06 -5.69341e-06 0.0200734)
(4.15666e-06 -9.42772e-06 0.0201114)
(4.56725e-06 -8.76121e-06 0.0200898)
(4.18089e-06 -7.7746e-06 0.0200495)
(3.0652e-06 -6.51531e-06 0.0199939)
(5.06961e-06 -6.1864e-06 0.0200019)
(5.8796e-06 -6.29415e-06 0.0199796)
(5.39802e-06 -6.07593e-06 0.0199402)
(3.94659e-06 -5.38e-06 0.0198906)
(6.25938e-06 -2.5496e-06 0.0198535)
(7.55057e-06 -3.98924e-06 0.0198338)
(7.13341e-06 -5.20859e-06 0.0198003)
(5.59878e-06 -5.51922e-06 0.019763)
(1.92569e-06 -7.44138e-06 0.020186)
(1.94112e-06 -6.68774e-06 0.0201676)
(1.84702e-06 -5.65826e-06 0.0201306)
(1.28071e-06 -3.94221e-06 0.0200728)
(2.49635e-06 -5.92741e-06 0.0201078)
(2.77022e-06 -5.62377e-06 0.0200872)
(2.63933e-06 -5.16369e-06 0.020048)
(2.09046e-06 -4.55917e-06 0.0199931)
(2.99531e-06 -3.85887e-06 0.0199971)
(3.53522e-06 -3.98926e-06 0.0199763)
(3.37111e-06 -3.96813e-06 0.0199384)
(2.66849e-06 -3.74199e-06 0.0198898)
(3.73984e-06 -1.58607e-06 0.019848)
(4.6111e-06 -2.51663e-06 0.0198299)
(4.51706e-06 -3.38243e-06 0.0197982)
(3.82189e-06 -3.81471e-06 0.019762)
(1.22129e-06 -4.75391e-06 0.0201845)
(1.24709e-06 -4.33556e-06 0.0201664)
(1.2338e-06 -3.75507e-06 0.0201297)
(9.05089e-07 -2.68836e-06 0.020072)
(1.53846e-06 -3.73736e-06 0.0201054)
(1.71926e-06 -3.60888e-06 0.0200854)
(1.69577e-06 -3.41134e-06 0.0200468)
(1.42544e-06 -3.13942e-06 0.0199923)
(1.81998e-06 -2.41308e-06 0.0199942)
(2.17108e-06 -2.53143e-06 0.0199741)
(2.13791e-06 -2.58531e-06 0.0199369)
(1.80289e-06 -2.5667e-06 0.0198889)
(2.29043e-06 -9.90828e-07 0.0198446)
(2.86155e-06 -1.59562e-06 0.0198274)
(2.88715e-06 -2.19826e-06 0.0197966)
(2.59111e-06 -2.60459e-06 0.0197611)
(8.10105e-07 -2.96952e-06 0.0201834)
(8.34326e-07 -2.74741e-06 0.0201655)
(8.47131e-07 -2.42924e-06 0.020129)
(6.50823e-07 -1.78176e-06 0.0200714)
(9.83777e-07 -2.31233e-06 0.0201039)
(1.09838e-06 -2.27e-06 0.0200842)
(1.11069e-06 -2.20067e-06 0.0200459)
(9.72918e-07 -2.09391e-06 0.0199916)
(1.14231e-06 -1.48644e-06 0.0199923)
(1.36134e-06 -1.583e-06 0.0199726)
(1.37116e-06 -1.65602e-06 0.0199359)
(1.20809e-06 -1.71378e-06 0.0198882)
(1.43114e-06 -6.12583e-07 0.0198424)
(1.79005e-06 -1.00154e-06 0.0198257)
(1.84158e-06 -1.40725e-06 0.0197954)
(1.71811e-06 -1.72821e-06 0.0197604)
(6.18363e-07 -1.7673e-06 0.0201827)
(6.38602e-07 -1.66734e-06 0.0201649)
(6.52214e-07 -1.51493e-06 0.0201285)
(5.31908e-07 -1.16245e-06 0.0200709)
(7.03736e-07 -1.37156e-06 0.020103)
(7.73865e-07 -1.37629e-06 0.0200834)
(7.89327e-07 -1.37282e-06 0.0200452)
(7.06623e-07 -1.34387e-06 0.0199911)
(7.84352e-07 -8.87408e-07 0.0199911)
(9.12946e-07 -9.69743e-07 0.0199717)
(9.26943e-07 -1.04595e-06 0.0199352)
(8.33906e-07 -1.11938e-06 0.0198877)
(9.41775e-07 -3.71453e-07 0.0198411)
(1.15124e-06 -6.19547e-07 0.0198247)
(1.18889e-06 -8.84042e-07 0.0197947)
(1.12095e-06 -1.10943e-06 0.0197598)
(7.24114e-07 -1.14265e-06 0.0201822)
(7.48852e-07 -1.13202e-06 0.0201645)
(7.46719e-07 -1.0934e-06 0.0201282)
(6.68944e-07 -9.71388e-07 0.0200707)
(7.48985e-07 -8.84434e-07 0.0201023)
(8.03441e-07 -9.32477e-07 0.0200829)
(8.03512e-07 -9.72614e-07 0.0200449)
(7.29731e-07 -9.8786e-07 0.0199909)
(7.70083e-07 -5.71574e-07 0.0199903)
(8.58003e-07 -6.75614e-07 0.0199711)
(8.58863e-07 -7.77536e-07 0.0199348)
(7.72385e-07 -8.60097e-07 0.0198874)
(8.14719e-07 -2.42124e-07 0.0198402)
(9.42543e-07 -4.3041e-07 0.019824)
(9.52498e-07 -6.29829e-07 0.0197942)
(8.65193e-07 -7.96127e-07 0.0197595)
(-0.0208726 -0.00206337 0.0228497)
(-0.0131786 0.000437992 0.0400848)
(-0.00104794 -0.000465993 0.00609055)
(-0.000974411 -0.00158042 0.0149295)
(0.000156175 -0.00251657 0.0107745)
(-0.000676399 -0.00475741 0.0190271)
(-0.000336455 -0.00218884 0.00778692)
(-0.00195511 -0.00113134 0.020369)
(-0.000181352 -0.000144722 5.97082e-05)
(-0.0073684 -0.0060596 0.0203892)
(0.000732141 -0.000744375 0.00715244)
(0.00439784 0.00200924 0.0214661)
(0.000650949 -0.0112503 0.030933)
(0.00101754 -0.000324314 0.00898068)
(0.00368656 0.00567492 0.0299174)
(-3.89241e-05 -0.000374526 0.020825)
(3.23775e-05 -0.00750741 0.0531639)
(0.00195965 -0.00188829 0.0277171)
(0.0080715 -0.000462374 0.0627602)
(0.00117451 -0.00539456 0.0578294)
(0.00391371 -0.00401912 0.0474384)
(0.00276947 -7.28083e-05 0.0365369)
(0.00260583 -0.00313049 0.0679292)
(0.00132877 -0.00375389 0.0347694)
(0.00197549 -0.00181102 0.0307854)
(0.00488418 -0.0021651 0.0415348)
(0.00175947 -0.00282582 0.0324148)
(0.00252302 -0.00557752 0.0645249)
(-0.000376426 0.000489053 0.0186454)
(-0.000593353 -0.00103427 0.0175578)
(0.000886347 -0.00273291 0.0539876)
(0.00106237 -0.00121066 0.0378299)
(0.00354179 -0.00358091 0.0360879)
(0.000360543 -0.00109817 0.0130084)