/*--------------------------------*- C++ -*----------------------------------*\
| =========                 |                                                 |
| \\      /  F ield         | OpenFOAM: The Open Source CFD Toolbox           |
|  \\    /   O peration     | Version:  2506                                  |
|   \\  /    A nd           | Website:  www.openfoam.com                      |
|    \\/     M anipulation  |                                                 |
\*---------------------------------------------------------------------------*/
FoamFile
{
    version     2.0;
    format      ascii;
    arch        "LSB;label=32;scalar=64";
    class       volVectorField;
    location    "0.1";
    object      Us;
}
// * * * * * * * * * * * * * * * * * * * * * * * * * * * * * * * * * * * * * //

dimensions      [0 1 -1 0 0 0 0];

internalField   nonuniform List<vector> 
1152
(
(-0.00033941 0.000276734 0.000304651)
(-0.000484871 -4.30898e-05 5.83644e-05)
(-0.000665334 -0.000492855 -0.000274739)
(-0.000666931 0.000229277 -0.000899352)
(6.5416e-05 0.000295487 2.87135e-05)
(7.01282e-05 2.3819e-07 -6.44295e-07)
(-0.000298816 -0.000238525 5.93968e-05)
(-0.000269841 -8.90404e-05 -9.68486e-05)
(0.000345568 3.43805e-05 -0.000271835)
(-0.000141522 -0.00143432 0.000142208)
(-0.000492647 0.000218479 1.49897e-05)
(-0.000619587 -0.000560714 -0.000131269)
(-0.000526305 -0.000415042 -0.00026754)
(-3.62233e-05 -0.000641548 -0.0012584)
(-0.000765663 -0.00036318 -0.000201019)
(-0.00041794 -2.59403e-05 -0.0004988)
(-0.00330007 -0.00170828 0.00505069)
(-0.0027871 -0.00128012 0.00743237)
(-0.00218552 -0.000923095 0.0100375)
(-0.00251186 -0.000213076 0.0090059)
(-0.00125243 -0.00151126 0.00488299)
(-0.0015463 -0.00242062 0.00582471)
(-0.00141317 -0.0017308 0.0068852)
(-0.000126379 -0.000546287 0.0102905)
(-0.0018668 -0.00132654 0.00807442)
(-0.0023395 -0.00122129 0.0102284)
(-0.00149379 -0.00145672 0.00873838)
(0.00057605 -0.000496302 0.00937252)
(-0.00138031 -0.00114655 0.00903798)
(-0.00152768 -0.00066397 0.00864653)
(-0.00145712 -0.000907547 0.0109255)
(3.19862e-05 0.000577244 0.002947)
(-0.001297 0.000932575 0.0138181)
(-0.00171968 -0.000242084 0.0127788)
(-0.000865693 0.000329775 0.0128162)
(7.8667e-05 0.000446491 0.0135774)
(-0.00069421 0.000521781 0.011543)
(-0.000852865 7.47708e-05 0.0130434)
(-0.00095877 -1.77046e-06 0.0128299)
(-0.000239863 -5.71362e-05 0.0125006)
(-0.000903455 -0.000223097 0.0119324)
(-0.00081299 0.00027631 0.0120655)
(-0.000265878 -0.000876968 0.0117669)
(0.000387831 -0.000187133 0.0110328)
(-0.00157043 0.000137455 0.0114165)
(-0.0016161 0.000224542 0.0119293)
(-0.000302898 -0.00113689 0.0118067)
(0.000141332 -0.00091161 0.0106812)
(-0.000616342 -0.000407791 0.0145395)
(-0.000359542 -0.000353854 0.0135862)
(-0.000510605 -0.000365519 0.0133549)
(-0.00031573 0.000611938 0.0136548)
(-0.000259185 -0.000974357 0.0135969)
(0.000235868 -0.000893693 0.0133302)
(1.45546e-05 -5.12364e-05 0.013067)
(0.000101491 0.000345971 0.0129741)
(-0.000447228 -0.00135022 0.0126071)
(0.000156527 -0.00103581 0.0119449)
(0.000187526 -0.000251607 0.0119804)
(-0.00021839 -0.000423032 0.0118961)
(0.00110343 -0.00101545 0.0108624)
(0.000824456 -0.00101049 0.0104984)
(0.000303447 -0.00101775 0.0114781)
(-0.000238969 -0.000628762 0.0112053)
(7.25166e-06 -0.000468203 0.013858)
(-0.000174939 -0.000135287 0.0138333)
(-0.000350783 0.000103752 0.0136055)
(0.000119113 0.00037626 0.0127628)
(0.000673144 -0.00155147 0.0129144)
(0.000564561 -0.000782215 0.0130407)
(3.0413e-05 -0.00053895 0.0127925)
(-0.00030359 -0.000160732 0.0122181)
(0.000533295 -0.00225841 0.0132205)
(0.000963309 -0.000995358 0.0125967)
(0.000285971 -0.000575231 0.0117934)
(-0.000150736 -0.000196043 0.0118496)
(-0.00018893 -0.00107995 0.0122277)
(0.000766791 -0.000455598 0.0113516)
(0.000792397 -0.000569347 0.0113171)
(-1.57644e-05 -6.06016e-06 0.0111939)
(0.000266276 0.000268359 0.013497)
(0.000401146 0.00041786 0.0134199)
(0.000239669 0.000910747 0.0130165)
(-9.23176e-05 0.000310297 0.0122017)
(0.000229546 -0.000774889 0.0130966)
(0.000469975 -0.000437955 0.0131094)
(0.000336761 0.00056749 0.0125905)
(-0.000129681 0.000687498 0.0115482)
(0.00120956 -0.00152235 0.0130182)
(0.00138811 -0.000943496 0.0123157)
(0.000874449 -2.74116e-05 0.0119979)
(0.000417817 0.000921555 0.011102)
(0.00120113 -0.00128686 0.0130231)
(0.00186028 -0.00028017 0.0117595)
(0.0010718 8.35473e-06 0.0116585)
(4.22935e-05 0.000743523 0.0109565)
(0.00141306 0.00134587 0.0118604)
(0.000645418 0.00105101 0.0121683)
(0.000907974 0.0010519 0.012152)
(0.000186679 0.00120227 0.01204)
(0.000479852 0.000839931 0.0119045)
(0.000557888 0.000594679 0.0123648)
(0.000380647 0.00120212 0.0123281)
(-0.000392068 0.00123019 0.011208)
(0.00149519 0.0001274 0.0125349)
(0.00181172 0.000487934 0.0125988)
(0.000508682 0.00147367 0.011445)
(0.00107359 0.00146549 0.0111142)
(0.00107642 -0.000996407 0.0134076)
(0.0018438 0.000673724 0.0118691)
(0.0010377 0.00148526 0.0109473)
(0.000355096 0.00233954 0.00994907)
(0 0 0)
(0.00129768 0.00193329 0.0123146)
(0 0 0)
(0 0 0)
(0 0 0)
(0 0 0)
(0 0 0)
(0 0 0)
(0 0 0)
(0 0 0)
(0 0 0)
(0 0 0)
(0 0 0)
(0 0 0)
(0 0 0)
(0 0 0)
(0 0 0)
(0 0 0)
(0 0 0)
(0 0 0)
(0 0 0)
(0 0 0)
(0 0 0)
(0 0 0)
(0 0 0)
(0 0 0)
(0 0 0)
(0 0 0)
(0 0 0)
(0 0 0)
(0 0 0)
(0 0 0)
(0 0 0)
(0 0 0)
(0 0 0)
(0 0 0)
(0 0 0)
(0 0 0)
(0 0 0)
(0 0 0)
(0 0 0)
(0 0 0)
(0 0 0)
(0 0 0)
(0 0 0)
(0 0 0)
(0 0 0)
(0 0 0)
(0 0 0)
(0 0 0)
(0 0 0)
(0 0 0)
(0 0 0)
(0 0 0)
(0 0 0)
(0 0 0)
(0 0 0)
(0 0 0)
(0 0 0)
(0 0 0)
(0 0 0)
(0 0 0)
(0 0 0)
(0 0 0)
(0 0 0)
(0 0 0)
(0 0 0)
(0 0 0)
(0 0 0)
(0 0 0)
(0 0 0)
(0 0 0)
(0 0 0)
(0 0 0)
(0 0 0)
(0 0 0)
(0 0 0)
(0 0 0)
(0 0 0)
(0 0 0)
(0 0 0)
(0 0 0)
(0 0 0)
(0 0 0)
(0 0 0)
(0 0 0)
(0 0 0)
(0 0 0)
(0 0 0)
(0 0 0)
(0 0 0)
(0 0 0)
(0 0 0)
(0 0 0)
(0 0 0)
(0 0 0)
(0 0 0)
(0 0 0)
(0 0 0)
(0 0 0)
(0 0 0)
(0 0 0)
(0 0 0)
(0 0 0)
(0 0 0)
(0 0 0)
(0 0 0)
(0 0 0)
(0 0 0)
(0 0 0)
(0 0 0)
(0 0 0)
(0 0 0)
(0 0 0)
(0 0 0)
(0 0 0)
(0 0 0)
(0 0 0)
(0 0 0)
(0 0 0)
(0 0 0)
(0 0 0)
(0 0 0)
(0 0 0)
(0 0 0)
(0 0 0)
(0 0 0)
(0 0 0)
(0 0 0)
(0 0 0)
(0 0 0)
(0 0 0)
(0 0 0)
(0 0 0)
(0 0 0)
(0 0 0)
(0 0 0)
(0 0 0)
(0 0 0)
(0 0 0)
(0 0 0)
(0 0 0)
(0 0 0)
(0 0 0)
(0 0 0)
(0 0 0)
(0 0 0)
(0 0 0)
(0 0 0)
(0 0 0)
(0 0 0)
(0 0 0)
(0 0 0)
(0 0 0)
(0 0 0)
(0 0 0)
(0 0 0)
(0 0 0)
(0 0 0)
(0 0 0)
(0 0 0)
(0 0 0)
(0 0 0)
(0 0 0)
(0 0 0)
(0 0 0)
(0 0 0)
(0 0 0)
(0 0 0)
(0 0 0)
(0 0 0)
(0 0 0)
(0 0 0)
(0 0 0)
(0 0 0)
(0 0 0)
(0 0 0)
(0 0 0)
(0 0 0)
(0 0 0)
(0 0 0)
(0 0 0)
(0 0 0)
(0 0 0)
(0 0 0)
(0 0 0)
(0 0 0)
(0 0 0)
(0 0 0)
(0 0 0)
(0 0 0)
(0 0 0)
(0 0 0)
(0 0 0)
(0 0 0)
(0 0 0)
(0 0 0)
(0 0 0)
(0 0 0)
(0 0 0)
(0 0 0)
(0 0 0)
(0 0 0)
(0 0 0)
(0 0 0)
(0 0 0)
(0 0 0)
(0 0 0)
(0 0 0)
(0 0 0)
(0 0 0)
(0 0 0)
(0 0 0)
(0 0 0)
(0 0 0)
(0 0 0)
(0 0 0)
(0 0 0)
(0 0 0)
(0 0 0)
(0 0 0)
(0 0 0)
(0 0 0)
(0 0 0)
(0 0 0)
(0 0 0)
(0 0 0)
(0 0 0)
(0 0 0)
(0 0 0)
(0 0 0)
(0 0 0)
(0 0 0)
(0 0 0)
(0 0 0)
(0 0 0)
(0 0 0)
(0 0 0)
(0 0 0)
(0 0 0)
(0 0 0)
(0 0 0)
(0 0 0)
(0 0 0)
(0 0 0)
(0 0 0)
(0 0 0)
(0 0 0)
(0 0 0)
(0 0 0)
(0 0 0)
(0 0 0)
(0 0 0)
(0 0 0)
(0 0 0)
(0 0 0)
(0 0 0)
(0 0 0)
(0 0 0)
(0 0 0)
(0 0 0)
(0 0 0)
(0 0 0)
(0 0 0)
(0 0 0)
(0 0 0)
(0 0 0)
(0 0 0)
(0 0 0)
(0 0 0)
(0 0 0)
(0 0 0)
(-0.000500809 0.000963492 -0.000246712)
(-7.60873e-05 0.000436217 -0.000255278)
(-0.000285318 -0.000228676 -0.000128833)
(-6.21807e-05 0.00059273 -0.000109455)
(-0.000229212 0.000373744 -4.22582e-05)
(-0.000298645 0.000683143 -2.30337e-05)
(-0.000211311 0.00056181 -0.000335662)
(3.26626e-06 0.000273541 3.25586e-05)
(-0.00051773 0.000316243 3.34177e-05)
(-0.000413786 0.00030957 2.65021e-05)
(-6.8975e-05 0.000428031 -0.000210393)
(6.52725e-05 0.000325374 0.000132956)
(0.000151757 0.000156063 4.16816e-05)
(-0.000172745 5.31248e-05 4.1911e-05)
(9.11786e-05 6.34777e-05 -0.000181095)
(9.47007e-05 1.03198e-05 -5.2503e-06)
(-0.00161061 -0.000210935 0.00812497)
(-0.000615423 -0.000320709 0.00827778)
(-5.7112e-06 -0.00151232 0.00990697)
(0.000588367 0.00113445 0.00569636)
(-0.000710634 -0.00219432 0.00961747)
(-0.000581186 -0.00103287 0.00763092)
(-0.000967364 0.000530138 0.00357533)
(-8.37184e-05 0.000781499 0.0062119)
(0.000396267 -0.00295783 0.00641746)
(0.000106608 -0.00174604 0.00703243)
(-9.16642e-05 0.000232558 0.00825272)
(-0.000609489 0.000221134 0.010041)
(0.00119525 -0.00207729 0.00593185)
(0.00154097 -0.000443726 0.0102844)
(0.000495045 -0.000357637 0.00869503)
(0.000141698 -0.000242733 0.0076167)
(-0.000294082 -0.000886651 0.010208)
(-0.000395651 -0.00103266 0.0109586)
(-0.000636724 -0.00105785 0.0105324)
(-0.00043074 -0.00188419 0.00973328)
(-0.000296662 -0.00220751 0.0102)
(-0.000698527 -0.00164622 0.0101315)
(-0.000392922 -0.00143875 0.00978545)
(-0.000170849 -0.00193849 0.00937764)
(-0.000459754 -0.00275849 0.00984911)
(-0.000847921 -0.00225554 0.0107029)
(-0.000519748 -0.00183046 0.00951781)
(0.00106312 -0.00231635 0.00940952)
(-0.00095003 -0.00187172 0.0103779)
(-0.000607316 -0.000870795 0.0102937)
(0.000125359 -0.000573851 0.00993128)
(0.000529601 0.000537867 0.00935124)
(0.000477669 -0.00130571 0.00989823)
(0.000771022 -0.00110381 0.0108427)
(0.000228025 -0.00134889 0.0112055)
(-0.000583413 -0.00052458 0.0105723)
(-0.000300493 -0.000670614 0.0103004)
(-0.000375672 -0.000867741 0.0101971)
(-0.000644278 -0.00154771 0.0102869)
(-0.000670961 -0.000584516 0.00912957)
(-0.000338105 -0.000411112 0.00900876)
(-0.000128909 -0.000483154 0.00927157)
(-0.00131024 -0.00126332 0.00918504)
(-0.00208577 0.000276572 0.0106443)
(-0.000396049 -0.000674414 0.00828117)
(0.000292748 -6.88876e-05 0.0088337)
(-0.000683342 -0.000402596 0.00690464)
(-0.00143154 0.000862846 0.00878547)
(3.6592e-05 -0.000518158 0.0113308)
(0.000566939 -0.000787232 0.0108268)
(0.000475929 -0.000719687 0.0114492)
(-0.000494652 -0.000250818 0.0110904)
(1.13309e-05 -0.000514983 0.0104137)
(-0.00036583 0.000134025 0.010174)
(-0.00106641 -0.000594567 0.0106209)
(0.000294348 -0.000505848 0.0108768)
(0.000687502 -0.000306056 0.00915199)
(-0.000339569 0.000468821 0.00947467)
(-0.000815742 -0.000867839 0.00937663)
(-0.000216106 -0.000286308 0.00902344)
(0.000197091 0.000283519 0.00731689)
(2.9823e-05 0.000117129 0.00769713)
(-0.000960135 -1.60125e-05 0.00899342)
(-0.00102378 0.00104597 0.00768787)
(-2.43677e-05 -0.000488215 0.0136501)
(0.00110075 -9.51658e-05 0.0118874)
(0.00038683 0.000584287 0.0106638)
(-0.000661246 0.000744539 0.0100597)
(-0.000991136 0.00182123 0.0110774)
(7.13358e-05 0.000589727 0.0109112)
(-0.000167154 0.000703795 0.00987982)
(-0.0001084 0.00054967 0.00981263)
(0.00086614 0.00161667 0.0102076)
(0.000289215 0.00128595 0.00989597)
(-1.20476e-05 0.000121086 0.00993838)
(-0.000639505 0.000464002 0.009515)
(0.000190763 0.000113402 0.0071113)
(-0.000225368 0.000178887 0.00705167)
(-0.000947454 0.00037329 0.0078843)
(-0.000471322 -0.000145416 0.00643117)
(0.000678624 6.49798e-06 0.0135572)
(0.000655733 0.000285232 0.0123177)
(0.000565688 0.00138165 0.0107913)
(-0.000165017 0.00105014 0.0101973)
(0.000354868 0.00153736 0.0118011)
(0.000269847 0.000430764 0.0108662)
(0.000492314 0.00102679 0.00959391)
(0.000239126 0.000160666 0.0099585)
(-1.68562e-05 0.00282824 0.0107872)
(-0.00109671 0.00264051 0.00960324)
(-0.000885068 0.000625315 0.00976253)
(-0.000301636 0.000412047 0.00922438)
(0.00226406 0.00123787 0.00639103)
(-0.000655967 0.00195683 0.00753885)
(-0.00201559 0.000632486 0.00886269)
(-0.000883883 0.0012772 0.00591031)
(0 0 0)
(0 0 0)
(0 0 0)
(0 0 0)
(0 0 0)
(0 0 0)
(0 0 0)
(0 0 0)
(0 0 0)
(0 0 0)
(0 0 0)
(0 0 0)
(0 0 0)
(0 0 0)
(0 0 0)
(0 0 0)
(0 0 0)
(0 0 0)
(0 0 0)
(0 0 0)
(0 0 0)
(0 0 0)
(0 0 0)
(0 0 0)
(0 0 0)
(0 0 0)
(0 0 0)
(0 0 0)
(0 0 0)
(0 0 0)
(0 0 0)
(0 0 0)
(0 0 0)
(0 0 0)
(0 0 0)
(0 0 0)
(0 0 0)
(0 0 0)
(0 0 0)
(0 0 0)
(0 0 0)
(0 0 0)
(0 0 0)
(0 0 0)
(0 0 0)
(0 0 0)
(0 0 0)
(0 0 0)
(0 0 0)
(0 0 0)
(0 0 0)
(0 0 0)
(0 0 0)
(0 0 0)
(0 0 0)
(0 0 0)
(0 0 0)
(0 0 0)
(0 0 0)
(0 0 0)
(0 0 0)
(0 0 0)
(0 0 0)
(0 0 0)
(0 0 0)
(0 0 0)
(0 0 0)
(0 0 0)
(0 0 0)
(0 0 0)
(0 0 0)
(0 0 0)
(0 0 0)
(0 0 0)
(0 0 0)
(0 0 0)
(0 0 0)
(0 0 0)
(0 0 0)
(0 0 0)
(0 0 0)
(0 0 0)
(0 0 0)
(0 0 0)
(0 0 0)
(0 0 0)
(0 0 0)
(0 0 0)
(0 0 0)
(0 0 0)
(0 0 0)
(0 0 0)
(0 0 0)
(0 0 0)
(0 0 0)
(0 0 0)
(0 0 0)
(0 0 0)
(0 0 0)
(0 0 0)
(0 0 0)
(0 0 0)
(0 0 0)
(0 0 0)
(0 0 0)
(0 0 0)
(0 0 0)
(0 0 0)
(0 0 0)
(0 0 0)
(0 0 0)
(0 0 0)
(0 0 0)
(0 0 0)
(0 0 0)
(0 0 0)
(0 0 0)
(0 0 0)
(0 0 0)
(0 0 0)
(0 0 0)
(0 0 0)
(0 0 0)
(0 0 0)
(0 0 0)
(0 0 0)
(0 0 0)
(0 0 0)
(0 0 0)
(0 0 0)
(0 0 0)
(0 0 0)
(0 0 0)
(0 0 0)
(0 0 0)
(0 0 0)
(0 0 0)
(0 0 0)
(0 0 0)
(0 0 0)
(0 0 0)
(0 0 0)
(0 0 0)
(0 0 0)
(0 0 0)
(0 0 0)
(0 0 0)
(0 0 0)
(0 0 0)
(0 0 0)
(0 0 0)
(0 0 0)
(0 0 0)
(0 0 0)
(0 0 0)
(0 0 0)
(0 0 0)
(0 0 0)
(0 0 0)
(0 0 0)
(0 0 0)
(0 0 0)
(0 0 0)
(0 0 0)
(0 0 0)
(0 0 0)
(0 0 0)
(0 0 0)
(0 0 0)
(0 0 0)
(0 0 0)
(0 0 0)
(0 0 0)
(0 0 0)
(0 0 0)
(0 0 0)
(0 0 0)
(0 0 0)
(0 0 0)
(0 0 0)
(0 0 0)
(0 0 0)
(0 0 0)
(0 0 0)
(0 0 0)
(0 0 0)
(0 0 0)
(0 0 0)
(0 0 0)
(0 0 0)
(0 0 0)
(0 0 0)
(0 0 0)
(0 0 0)
(0 0 0)
(0 0 0)
(0 0 0)
(0 0 0)
(0 0 0)
(0 0 0)
(0 0 0)
(0 0 0)
(0 0 0)
(0 0 0)
(0 0 0)
(0 0 0)
(0 0 0)
(0 0 0)
(0 0 0)
(0 0 0)
(0 0 0)
(0 0 0)
(0 0 0)
(0 0 0)
(0 0 0)
(0 0 0)
(0 0 0)
(0 0 0)
(0 0 0)
(0 0 0)
(0 0 0)
(0 0 0)
(0 0 0)
(0 0 0)
(0 0 0)
(0 0 0)
(0 0 0)
(0 0 0)
(0 0 0)
(0 0 0)
(0 0 0)
(0 0 0)
(0 0 0)
(0 0 0)
(0 0 0)
(0 0 0)
(0 0 0)
(0 0 0)
(0 0 0)
(0 0 0)
(0 0 0)
(0 0 0)
(0 0 0)
(0 0 0)
(0 0 0)
(0 0 0)
(0 0 0)
(0 0 0)
(0 0 0)
(0 0 0)
(0 0 0)
(0 0 0)
(0 0 0)
(0 0 0)
(0 0 0)
(0 0 0)
(0 0 0)
(0 0 0)
(0 0 0)
(0 0 0)
(0 0 0)
(0 0 0)
(0 0 0)
(0 0 0)
(0 0 0)
(0 0 0)
(0 0 0)
(0 0 0)
(0 0 0)
(0 0 0)
(0 0 0)
(0 0 0)
(-0.000196462 0.000156415 0.000183538)
(-0.000290776 0.000269914 0.00029554)
(0.00013548 -0.000134705 2.6192e-05)
(0.00023873 -0.000434511 0.00022457)
(-0.000170332 -1.72134e-05 0.000229329)
(0.000247075 0.0001502 6.69092e-05)
(0.000350794 -0.000253701 0.000103282)
(-8.9724e-06 -0.000186744 -0.000107986)
(-0.000183092 -0.000110878 -2.85925e-05)
(-1.23902e-05 0.00025602 0.000134487)
(0.000174725 -0.000449734 -0.000342863)
(5.197e-06 5.41784e-06 5.39154e-05)
(-6.9537e-05 0.000119008 -0.000105417)
(-6.20648e-05 0.00011049 -0.000107127)
(0.000145854 6.21643e-05 -3.45657e-05)
(-0.000206164 0.000340957 -3.31822e-06)
(-0.00171146 -0.00139604 0.00893284)
(0.000698683 -0.00089266 0.00568144)
(0.00140698 0.000413247 0.00881354)
(0.000372985 -0.00141546 0.00889756)
(0.00147813 -0.00083487 0.0100815)
(0.00155063 -0.000618642 0.00830219)
(0.0011189 -8.21658e-05 0.00939283)
(0.00116908 -0.00212577 0.00803605)
(0.000999708 -0.000257099 0.00786998)
(0.00114692 -0.000807063 0.00851345)
(0.000489102 -0.0010264 0.00735588)
(0.00156746 -0.00203243 0.0107009)
(-0.00052175 0.000151423 0.00219783)
(-0.000380021 -0.00085583 0.00331166)
(0.000497754 -0.0006552 0.00662209)
(0.000395324 -0.000596056 0.00589183)
(0.000383052 -0.000541106 0.0113632)
(0.000392657 -0.000799118 0.0102355)
(0.000318656 0.000888898 0.0110503)
(-0.000155404 -0.00184253 0.0110787)
(0.00014294 -0.000709723 0.0117585)
(0.000711141 -0.000570719 0.0111658)
(0.000390584 -0.00112948 0.0108222)
(0.00115865 -0.00151086 0.0108634)
(-0.000245235 -0.00068473 0.0104156)
(-0.000181063 -0.000467911 0.0107926)
(-0.000128914 -0.00130752 0.0104744)
(0.000705065 -0.00259131 0.0102066)
(-0.0004846 -0.00115755 0.0100251)
(-0.000340493 -0.00091132 0.00980821)
(2.56363e-05 -0.00104508 0.0104212)
(4.60253e-05 -0.000493053 0.00880875)
(-0.000404049 6.14109e-06 0.0123658)
(-0.000550056 -0.000479587 0.0117573)
(-0.00106281 -0.000498445 0.011615)
(-0.000760141 -0.00190577 0.010756)
(-0.000138673 -5.66383e-05 0.0118235)
(-0.000473223 0.000259591 0.0116922)
(-0.00163183 -0.000533764 0.0101222)
(4.95865e-05 -0.0021584 0.0111848)
(-0.000399655 -0.000174936 0.0111536)
(-0.000556079 -8.07116e-06 0.010635)
(-0.000371809 -0.00075013 0.0110178)
(0.000884527 -0.00154443 0.00910645)
(-0.000692251 -0.000552319 0.0103363)
(-0.0008696 -0.000341724 0.00959151)
(-0.000652522 9.18365e-05 0.0096516)
(-0.000468855 -0.000283961 0.0087953)
(-0.000202461 -0.000116271 0.0123408)
(-9.45241e-05 -0.000568288 0.0121074)
(-0.000133605 -0.000923261 0.0113601)
(-2.73389e-05 -0.00123237 0.00830127)
(-0.000358636 -0.000192253 0.0119676)
(-0.000347801 -0.000782349 0.0116669)
(-6.05508e-05 -0.000918373 0.0109404)
(-0.000503935 -0.000332095 0.00878056)
(-0.000608639 6.32406e-05 0.0115752)
(-0.000906525 -0.000451027 0.0110369)
(-0.00035079 -0.000317566 0.0100811)
(-0.000188025 0.000408699 0.00808502)
(-0.00104764 0.000376879 0.010399)
(-0.00068195 -0.000270517 0.00914921)
(-0.000677834 0.000341329 0.00866317)
(-0.000755662 0.000991715 0.00754407)
(-9.30526e-05 0.00050953 0.0124607)
(0.000277195 -0.000154366 0.0115565)
(0.000607752 -0.000801153 0.0116074)
(-0.000191148 5.2621e-05 0.00891005)
(-4.5193e-05 0.000299128 0.0116944)
(-1.80848e-05 0.000279525 0.011467)
(0.000170313 8.58709e-05 0.0109368)
(-7.32827e-05 -0.00100309 0.00795342)
(0.000255201 0.000499425 0.0111039)
(-4.19943e-05 0.000193669 0.0108263)
(-0.000139188 0.000852618 0.00913678)
(-0.000428066 -0.000155484 0.00666023)
(-0.000198933 0.000718783 0.0100967)
(-6.49815e-05 0.000884544 0.00907567)
(3.74067e-05 0.000987363 0.00814293)
(-0.000463975 0.00029859 0.00649221)
(-0.000210766 0.00101479 0.0120088)
(0.000444512 0.000880256 0.0111274)
(-9.37466e-05 0.000461512 0.011483)
(-3.0552e-05 0.00136082 0.00927342)
(-0.000505915 0.00151564 0.0110305)
(4.37396e-06 0.00126606 0.010559)
(0.00123488 0.00229035 0.00991527)
(-0.000373711 0.00143774 0.00910755)
(0.000543652 0.00138309 0.0108752)
(0.000700373 0.0024188 0.0100331)
(0.000741856 0.0018842 0.00924213)
(0.000160051 1.57744e-05 0.00607042)
(0.000300733 0.00191301 0.00916015)
(0.000197828 0.000832882 0.00869988)
(-0.000562905 0.000703422 0.00863475)
(-0.00013998 -7.95978e-05 0.00641748)
(0 0 0)
(0 0 0)
(0 0 0)
(0 0 0)
(0 0 0)
(0 0 0)
(0 0 0)
(0 0 0)
(0 0 0)
(0 0 0)
(0 0 0)
(0 0 0)
(0 0 0)
(0 0 0)
(0 0 0)
(0.000300024 -0.000513663 0.00622958)
(0 0 0)
(0 0 0)
(0 0 0)
(0 0 0)
(0 0 0)
(0 0 0)
(0 0 0)
(0 0 0)
(0 0 0)
(0 0 0)
(0 0 0)
(0 0 0)
(0 0 0)
(0 0 0)
(0 0 0)
(0 0 0)
(0 0 0)
(0 0 0)
(0 0 0)
(0 0 0)
(0 0 0)
(0 0 0)
(0 0 0)
(0 0 0)
(0 0 0)
(0 0 0)
(0 0 0)
(0 0 0)
(0 0 0)
(0 0 0)
(0 0 0)
(0 0 0)
(0 0 0)
(0 0 0)
(0 0 0)
(0 0 0)
(0 0 0)
(0 0 0)
(0 0 0)
(0 0 0)
(0 0 0)
(0 0 0)
(0 0 0)
(0 0 0)
(0 0 0)
(0 0 0)
(0 0 0)
(0 0 0)
(0 0 0)
(0 0 0)
(0 0 0)
(0 0 0)
(0 0 0)
(0 0 0)
(0 0 0)
(0 0 0)
(0 0 0)
(0 0 0)
(0 0 0)
(0 0 0)
(0 0 0)
(0 0 0)
(0 0 0)
(0 0 0)
(0 0 0)
(0 0 0)
(0 0 0)
(0 0 0)
(0 0 0)
(0 0 0)
(0 0 0)
(0 0 0)
(0 0 0)
(0 0 0)
(0 0 0)
(0 0 0)
(0 0 0)
(0 0 0)
(0 0 0)
(0 0 0)
(0 0 0)
(0 0 0)
(0 0 0)
(0 0 0)
(0 0 0)
(0 0 0)
(0 0 0)
(0 0 0)
(0 0 0)
(0 0 0)
(0 0 0)
(0 0 0)
(0 0 0)
(0 0 0)
(0 0 0)
(0 0 0)
(0 0 0)
(0 0 0)
(0 0 0)
(0 0 0)
(0 0 0)
(0 0 0)
(0 0 0)
(0 0 0)
(0 0 0)
(0 0 0)
(0 0 0)
(0 0 0)
(0 0 0)
(0 0 0)
(0 0 0)
(0 0 0)
(0 0 0)
(0 0 0)
(0 0 0)
(0 0 0)
(0 0 0)
(0 0 0)
(0 0 0)
(0 0 0)
(0 0 0)
(0 0 0)
(0 0 0)
(0 0 0)
(0 0 0)
(0 0 0)
(0 0 0)
(0 0 0)
(0 0 0)
(0 0 0)
(0 0 0)
(0 0 0)
(0 0 0)
(0 0 0)
(0 0 0)
(0 0 0)
(0 0 0)
(0 0 0)
(0 0 0)
(0 0 0)
(0 0 0)
(0 0 0)
(0 0 0)
(0 0 0)
(0 0 0)
(0 0 0)
(0 0 0)
(0 0 0)
(0 0 0)
(0 0 0)
(0 0 0)
(0 0 0)
(0 0 0)
(0 0 0)
(0 0 0)
(0 0 0)
(0 0 0)
(0 0 0)
(0 0 0)
(0 0 0)
(0 0 0)
(0 0 0)
(0 0 0)
(0 0 0)
(0 0 0)
(0 0 0)
(0 0 0)
(0 0 0)
(0 0 0)
(0 0 0)
(0 0 0)
(0 0 0)
(0 0 0)
(0 0 0)
(0 0 0)
(0 0 0)
(0 0 0)
(0 0 0)
(0 0 0)
(0 0 0)
(0 0 0)
(0 0 0)
(0 0 0)
(0 0 0)
(0 0 0)
(0 0 0)
(0 0 0)
(0 0 0)
(0 0 0)
(0 0 0)
(0 0 0)
(0 0 0)
(0 0 0)
(0 0 0)
(0 0 0)
(0 0 0)
(0 0 0)
(0 0 0)
(0 0 0)
(0 0 0)
(0 0 0)
(0 0 0)
(0 0 0)
(0 0 0)
(0 0 0)
(0 0 0)
(0 0 0)
(0 0 0)
(0 0 0)
(0 0 0)
(0 0 0)
(0 0 0)
(0 0 0)
(0 0 0)
(0 0 0)
(0 0 0)
(0 0 0)
(0 0 0)
(0 0 0)
(0 0 0)
(0 0 0)
(0 0 0)
(0 0 0)
(0 0 0)
(0 0 0)
(0 0 0)
(0 0 0)
(0 0 0)
(0 0 0)
(0 0 0)
(0 0 0)
(0 0 0)
(0 0 0)
(0 0 0)
(0 0 0)
(0 0 0)
(0 0 0)
(0 0 0)
(0 0 0)
(0 0 0)
(0 0 0)
(0 0 0)
(0 0 0)
(0 0 0)
(0 0 0)
(0 0 0)
(0 0 0)
(0 0 0)
(0 0 0)
(0 0 0)
(0 0 0)
(0 0 0)
(0 0 0)
(0 0 0)
(0 0 0)
(0 0 0)
)
;

boundaryField
{
    inlet
    {
        type            zeroGradient;
    }
    outlet
    {
        type            zeroGradient;
    }
    wall
    {
        type            zeroGradient;
    }
    procBoundary3to1
    {
        type            processor;
        value           nonuniform List<vector> 
192
(
(-0.000671024 0.000356887 -0.000400101)
(-0.00107131 0.000761453 -0.000226949)
(-0.00105923 0.000532428 4.29025e-06)
(-0.000935159 5.92868e-05 0.000333901)
(-0.000840106 0.00187947 0.00705927)
(-0.00236697 0.000742346 0.00452663)
(-0.00250182 -3.56343e-05 0.00304425)
(-0.000923342 8.75929e-05 0.00283237)
(-0.000688508 0.00111581 0.0143121)
(-0.00113157 0.00117778 0.0143557)
(-0.00078976 0.000705555 0.0126372)
(-9.72111e-05 0.000630832 0.0124503)
(-0.000728409 0.000352191 0.0156354)
(-0.000963749 0.000253922 0.0148562)
(-0.000638141 0.000263603 0.0141988)
(-0.000728865 0.00011627 0.0130195)
(0.000389298 0.000530711 0.01529)
(0.000140844 0.000367149 0.0148533)
(0.000330653 0.000552365 0.014011)
(0.000162073 0.000165551 0.0129706)
(0.000343842 0.00053242 0.013728)
(0.000679146 0.000753828 0.0139712)
(0.00043085 0.000421753 0.0135339)
(8.43937e-05 0.000414252 0.0126381)
(0.000660559 0.000924909 0.0122888)
(0.000443958 0.000809058 0.0125443)
(0.000829086 0.000852145 0.012683)
(0.000295117 0.000610795 0.0125028)
(0.0013299 0.000985628 0.0115959)
(0.0013299 0.000985628 0.0115959)
(0 0 0)
(0 0 0)
(0 0 0)
(0 0 0)
(0 0 0)
(0 0 0)
(0 0 0)
(0 0 0)
(0 0 0)
(0 0 0)
(0 0 0)
(0 0 0)
(0 0 0)
(0 0 0)
(0 0 0)
(0 0 0)
(0 0 0)
(0 0 0)
(0 0 0)
(0 0 0)
(0 0 0)
(0 0 0)
(0 0 0)
(0 0 0)
(0 0 0)
(0 0 0)
(0 0 0)
(0 0 0)
(0 0 0)
(0 0 0)
(0 0 0)
(0 0 0)
(0 0 0)
(0 0 0)
(0 0 0)
(0 0 0)
(0 0 0)
(0 0 0)
(0 0 0)
(0 0 0)
(0 0 0)
(0 0 0)
(0 0 0)
(0 0 0)
(0 0 0)
(0 0 0)
(0 0 0)
(0 0 0)
(0 0 0)
(0 0 0)
(0 0 0)
(0 0 0)
(0 0 0)
(0 0 0)
(0 0 0)
(0 0 0)
(0 0 0)
(0 0 0)
(0 0 0)
(0 0 0)
(0 0 0)
(0 0 0)
(0 0 0)
(0 0 0)
(0 0 0)
(0 0 0)
(-0.000912968 0.000241034 -4.1113e-05)
(-0.00031136 -0.000227394 -0.000256843)
(0.000172077 -5.71029e-05 0.000206815)
(0.000366506 -0.000124563 0.000710558)
(0.000688759 -8.25267e-05 0.00487092)
(0.00060441 -0.000250621 0.00561229)
(0.000105359 0.000883393 0.00941556)
(0.000282684 0.001037 0.00877689)
(-0.000484854 0.000279612 0.0113211)
(-0.000510641 0.00122934 0.0102816)
(-0.000330601 0.000818082 0.0105741)
(-0.000542397 0.000650011 0.0113071)
(-0.000903917 -0.000209902 0.0124422)
(-0.00114721 0.000317893 0.0115318)
(-0.00147797 2.01167e-06 0.0106919)
(-0.00109056 -0.000430066 0.0094812)
(-0.000409251 -5.63893e-05 0.0126405)
(-0.00099934 -0.000958893 0.0124827)
(-0.000275005 0.000118566 0.0116073)
(-0.000268516 0.00169599 0.0141508)
(-8.23659e-05 0.000450861 0.012596)
(-0.000545772 -9.50131e-05 0.0122497)
(-0.000567429 0.000588219 0.0116701)
(-0.000912528 0.000689259 0.00977744)
(0.000145994 0.000393807 0.0119591)
(-0.000229814 0.000338644 0.0120668)
(-0.000576603 0.000254953 0.0118088)
(0.00125062 -0.000410186 0.00831399)
(0 0 0)
(0 0 0)
(0 0 0)
(0 0 0)
(0 0 0)
(0 0 0)
(0 0 0)
(0 0 0)
(0 0 0)
(0 0 0)
(0 0 0)
(0 0 0)
(0 0 0)
(0 0 0)
(0 0 0)
(0 0 0)
(0 0 0)
(0 0 0)
(0 0 0)
(0 0 0)
(0 0 0)
(0 0 0)
(0 0 0)
(0 0 0)
(0 0 0)
(0 0 0)
(0 0 0)
(0 0 0)
(0 0 0)
(0 0 0)
(0 0 0)
(0 0 0)
(0 0 0)
(0 0 0)
(0 0 0)
(0 0 0)
(0 0 0)
(0 0 0)
(0 0 0)
(0 0 0)
(0 0 0)
(0 0 0)
(0 0 0)
(0 0 0)
(0 0 0)
(0 0 0)
(0 0 0)
(0 0 0)
(0 0 0)
(0 0 0)
(0 0 0)
(0 0 0)
(0 0 0)
(0 0 0)
(0 0 0)
(0 0 0)
(0 0 0)
(0 0 0)
(0 0 0)
(0 0 0)
(0 0 0)
(0 0 0)
(0 0 0)
(0 0 0)
(0 0 0)
(0 0 0)
(0 0 0)
(0 0 0)
)
;
    }
    procBoundary3to2
    {
        type            processor;
        value           nonuniform List<vector> 
192
(
(0.000100365 0.000135927 -0.000316487)
(-1.509e-05 0.0005116 -0.000221358)
(0.000480851 0.000528951 5.57538e-05)
(0.000768988 -0.000554732 0.000190809)
(-0.00046669 -0.00116454 0.00435642)
(-0.000801395 -0.000950013 0.0063841)
(-0.00106892 -0.002477 0.010069)
(-0.000482812 -0.00184918 0.00883127)
(-0.00101381 0.000200224 0.0134386)
(-0.000178033 -0.00035387 0.013636)
(-0.000615073 -0.00166733 0.0131332)
(0.000190723 -0.00153356 0.0123786)
(-0.00196068 -4.16161e-05 0.0160663)
(-0.000611337 -0.000805767 0.014901)
(0.000363587 -0.00155219 0.0123841)
(0.000320826 -0.00170739 0.0112436)
(-0.000581298 -0.00055454 0.0147195)
(0.000142433 -0.000349286 0.0135896)
(-0.00012612 -0.00131306 0.0131253)
(-7.47592e-05 -0.00179193 0.0120349)
(0.000116529 -0.000211147 0.0133734)
(0.000175161 -0.0020201 0.0127644)
(0.000147019 -0.00144063 0.0128343)
(-0.000383887 -0.000273821 0.0132247)
(0.000984513 0.00170695 0.0129906)
(0.000519116 0.000236373 0.0130794)
(-0.000899388 -0.000684126 0.0133117)
(-0.000162862 0.000859 0.0127561)
(0.00199956 0.000732028 0.0130898)
(0 0 0)
(0 0 0)
(0.0009882 0.00125387 0.0127089)
(0 0 0)
(0 0 0)
(0 0 0)
(0 0 0)
(0 0 0)
(0 0 0)
(0 0 0)
(0 0 0)
(0 0 0)
(0 0 0)
(0 0 0)
(0 0 0)
(0 0 0)
(0 0 0)
(0 0 0)
(0 0 0)
(0 0 0)
(0 0 0)
(0 0 0)
(0 0 0)
(0 0 0)
(0 0 0)
(0 0 0)
(0 0 0)
(0 0 0)
(0 0 0)
(0 0 0)
(0 0 0)
(0 0 0)
(0 0 0)
(0 0 0)
(0 0 0)
(0 0 0)
(0 0 0)
(0 0 0)
(0 0 0)
(0 0 0)
(0 0 0)
(0 0 0)
(0 0 0)
(0 0 0)
(0 0 0)
(0 0 0)
(0 0 0)
(0 0 0)
(0 0 0)
(0 0 0)
(0 0 0)
(0 0 0)
(0 0 0)
(0 0 0)
(0 0 0)
(0 0 0)
(0 0 0)
(0 0 0)
(0 0 0)
(0 0 0)
(0 0 0)
(0 0 0)
(0 0 0)
(0 0 0)
(0 0 0)
(0 0 0)
(0 0 0)
(-0.000203787 -0.000155431 -0.000114058)
(-0.000135947 0.000128736 -0.000498671)
(-0.000333313 0.000517378 -0.000267205)
(0.00110365 0.000306794 -0.000249064)
(-0.000557176 -0.00191542 0.00970838)
(0.000207437 -0.00159655 0.00744683)
(-0.00120357 -0.00190894 0.00794529)
(-0.000847573 -0.000494618 0.00466274)
(0.00022255 -0.0018022 0.00930287)
(-0.00010742 -0.00218135 0.0097941)
(-0.00148784 -0.00191934 0.00995517)
(-0.00103707 -0.000518036 0.0107577)
(0.000149201 -0.000788574 0.00858991)
(-0.000601265 -0.000858313 0.0100661)
(-0.00101082 -0.000619254 0.00977142)
(-0.00161899 -0.000388396 0.00982781)
(-0.00113286 -0.000488976 0.0100887)
(-0.000227461 0.000562605 0.0106286)
(-0.000272995 0.000446782 0.00887483)
(-0.00053517 -8.31714e-05 0.00726729)
(-6.36715e-05 0.000730467 0.0122051)
(0.000623924 0.00204022 0.0115832)
(0.000320213 0.00242766 0.00928667)
(-0.000588965 -0.00018775 0.00719116)
(0.00117866 0.00247846 0.0135926)
(4.5212e-05 0.00341015 0.0108647)
(0.00141219 0.00119774 0.00860634)
(0.00208009 0.00152906 0.00658046)
(0 0 0)
(0 0 0)
(0 0 0)
(0 0 0)
(0 0 0)
(0 0 0)
(0 0 0)
(0 0 0)
(0 0 0)
(0 0 0)
(0 0 0)
(0 0 0)
(0 0 0)
(0 0 0)
(0 0 0)
(0 0 0)
(0 0 0)
(0 0 0)
(0 0 0)
(0 0 0)
(0 0 0)
(0 0 0)
(0 0 0)
(0 0 0)
(0 0 0)
(0 0 0)
(0 0 0)
(0 0 0)
(0 0 0)
(0 0 0)
(0 0 0)
(0 0 0)
(0 0 0)
(0 0 0)
(0 0 0)
(0 0 0)
(0 0 0)
(0 0 0)
(0 0 0)
(0 0 0)
(0 0 0)
(0 0 0)
(0 0 0)
(0 0 0)
(0 0 0)
(0 0 0)
(0 0 0)
(0 0 0)
(0 0 0)
(0 0 0)
(0 0 0)
(0 0 0)
(0 0 0)
(0 0 0)
(0 0 0)
(0 0 0)
(0 0 0)
(0 0 0)
(0 0 0)
(0 0 0)
(0 0 0)
(0 0 0)
(0 0 0)
(0 0 0)
(0 0 0)
(0 0 0)
(0 0 0)
(0 0 0)
)
;
    }
}


// ************************************************************************* //
