/*--------------------------------*- C++ -*----------------------------------*\
| =========                 |                                                 |
| \\      /  F ield         | OpenFOAM: The Open Source CFD Toolbox           |
|  \\    /   O peration     | Version:  2506                                  |
|   \\  /    A nd           | Website:  www.openfoam.com                      |
|    \\/     M anipulation  |                                                 |
\*---------------------------------------------------------------------------*/
FoamFile
{
    version     2.0;
    format      ascii;
    arch        "LSB;label=32;scalar=64";
    class       volScalarField;
    location    "0.1";
    object      voidfraction;
}
// * * * * * * * * * * * * * * * * * * * * * * * * * * * * * * * * * * * * * //

dimensions      [0 0 0 0 0 0 0];

internalField   nonuniform List<scalar> 
1152
(
0.591831
0.40223
0.396963
0.346929
0.53653
0.452263
0.444363
0.431196
0.344296
0.439097
0.43383
0.47333
0.460163
0.436463
0.452263
0.468063
0.518097
0.48913
0.50493
0.515464
0.47333
0.46543
0.468063
0.46543
0.452263
0.510197
0.44963
0.510197
0.491764
0.468063
0.570764
0.415396
0.486497
0.346929
0.396963
0.41803
0.323229
0.40223
0.381163
0.412763
0.399596
0.396963
0.362729
0.352196
0.38643
0.389063
0.39433
0.412763
0.257395
0.391696
0.423296
0.41803
0.412763
0.362729
0.375896
0.370629
0.362729
0.39433
0.415396
0.439097
0.404863
0.407496
0.452263
0.446997
0.341663
0.47333
0.41803
0.312696
0.357463
0.378529
0.431196
0.40223
0.38643
0.415396
0.396963
0.454897
0.420663
0.360096
0.375896
0.439097
0.483863
0.454897
0.404863
0.44173
0.45753
0.41803
0.399596
0.404863
0.381163
0.381163
0.391696
0.41803
0.499664
0.325862
0.436463
0.475963
0.454897
0.470697
0.557597
0.626064
0.52863
0.594464
0.615531
0.731398
0.53653
0.52863
0.599731
0.689265
0.431196
0.631331
0.544431
0.570764
1
0.9842
1
1
1
1
1
1
1
1
1
1
1
1
1
1
1
1
1
1
1
1
1
1
1
1
1
1
1
1
1
1
1
1
1
1
1
1
1
1
1
1
1
1
1
1
1
1
1
1
1
1
1
1
1
1
1
1
1
1
1
1
1
1
1
1
1
1
1
1
1
1
1
1
1
1
1
1
1
1
1
1
1
1
1
1
1
1
1
1
1
1
1
1
1
1
1
1
1
1
1
1
1
1
1
1
1
1
1
1
1
1
1
1
1
1
1
1
1
1
1
1
1
1
1
1
1
1
1
1
1
1
1
1
1
1
1
1
1
1
1
1
1
1
1
1
1
1
1
1
1
1
1
1
1
1
1
1
1
1
1
1
1
1
1
1
1
1
1
1
1
1
1
1
1
1
1
1
1
1
1
1
1
1
1
1
1
1
1
1
1
1
1
1
1
1
1
1
1
1
1
1
1
1
1
1
1
1
1
1
1
1
1
1
1
1
1
1
1
1
1
1
1
1
1
1
1
1
1
1
1
1
1
1
1
1
1
1
1
1
1
1
1
1
1
1
1
1
1
1
1
1
1
1
1
1
1
1
1
1
1
1
1
1
1
1
1
1
1
1
1
1
0.471263
0.390948
0.47684
0.474277
0.400836
0.396957
0.437713
0.412466
0.499535
0.431251
0.476226
0.467822
0.382564
0.3997
0.462973
0.484719
0.428663
0.445086
0.508936
0.465515
0.495906
0.430195
0.407244
0.434226
0.529207
0.498908
0.485971
0.526609
0.56869
0.515949
0.495586
0.506302
0.396087
0.423431
0.390182
0.391038
0.40968
0.482428
0.415554
0.503135
0.434257
0.365707
0.476226
0.412129
0.386144
0.447343
0.408618
0.490115
0.335946
0.423431
0.354876
0.377895
0.391992
0.411202
0.393394
0.405212
0.410519
0.40165
0.437248
0.381189
0.400461
0.388266
0.410792
0.484719
0.398593
0.442379
0.441535
0.377895
0.347774
0.361344
0.410014
0.416093
0.305679
0.458737
0.449429
0.35953
0.314557
0.357775
0.391225
0.409181
0.476275
0.396362
0.370924
0.31656
0.383149
0.444441
0.362926
0.390705
0.424366
0.407993
0.425067
0.381189
0.377195
0.414946
0.454276
0.417274
0.476275
0.577724
0.579546
0.627613
0.66836
0.601137
0.645454
0.640951
0.689435
0.720911
0.661374
0.631807
0.751236
0.695086
0.623864
0.657379
1
1
1
1
1
1
1
1
1
1
1
1
1
1
1
1
1
1
1
1
1
1
1
1
1
1
1
1
1
1
1
1
1
1
1
1
1
1
1
1
1
1
1
1
1
1
1
1
1
1
1
1
1
1
1
1
1
1
1
1
1
1
1
1
1
1
1
1
1
1
1
1
1
1
1
1
1
1
1
1
1
1
1
1
1
1
1
1
1
1
1
1
1
1
1
1
1
1
1
1
1
1
1
1
1
1
1
1
1
1
1
1
1
1
1
1
1
1
1
1
1
1
1
1
1
1
1
1
1
1
1
1
1
1
1
1
1
1
1
1
1
1
1
1
1
1
1
1
1
1
1
1
1
1
1
1
1
1
1
1
1
1
1
1
1
1
1
1
1
1
1
1
1
1
1
1
1
1
1
1
1
1
1
1
1
1
1
1
1
1
1
1
1
1
1
1
1
1
1
1
1
1
1
1
1
1
1
1
1
1
1
1
1
1
1
1
1
1
1
1
1
1
1
1
1
1
1
1
1
1
1
1
1
1
1
1
1
1
1
1
1
1
1
1
1
1
1
1
1
1
1
1
1
1
1
1
1
1
1
1
1
1
1
1
1
1
1
1
1
1
1
1
0.516369
0.535703
0.418432
0.436254
0.418017
0.444441
0.427022
0.43972
0.316362
0.437713
0.390961
0.478192
0.44361
0.383452
0.477104
0.487417
0.493816
0.422946
0.501513
0.482786
0.477569
0.453937
0.522166
0.447343
0.441535
0.448792
0.444556
0.506457
0.430467
0.412466
0.504951
0.482022
0.398593
0.325664
0.400629
0.429096
0.372
0.43257
0.418565
0.437815
0.425487
0.407244
0.388525
0.434709
0.456753
0.347184
0.412129
0.449648
0.453722
0.438422
0.450082
0.46131
0.382827
0.401705
0.437593
0.437815
0.367715
0.482031
0.388525
0.44558
0.382276
0.358065
0.375
0.428065
0.368523
0.407469
0.367001
0.386144
0.350345
0.401705
0.41645
0.37302
0.39981
0.451562
0.364163
0.462973
0.452372
0.448733
0.381189
0.390296
0.456228
0.418524
0.495579
0.416568
0.382827
0.404079
0.450279
0.441626
0.335619
0.443252
0.393397
0.40427
0.303417
0.379825
0.405941
0.417274
0.614097
0.64625
0.64196
0.604483
0.669759
0.634375
0.792798
0.674123
0.653366
0.628835
0.595598
0.582554
0.557517
0.463241
0.579208
0.538675
1
1
1
1
1
1
1
1
1
1
1
1
1
1
1
0.997302
1
1
1
1
1
1
1
1
1
1
1
1
1
1
1
1
1
1
1
1
1
1
1
1
1
1
1
1
1
1
1
1
1
1
1
1
1
1
1
1
1
1
1
1
1
1
1
1
1
1
1
1
1
1
1
1
1
1
1
1
1
1
1
1
1
1
1
1
1
1
1
1
1
1
1
1
1
1
1
1
1
1
1
1
1
1
1
1
1
1
1
1
1
1
1
1
1
1
1
1
1
1
1
1
1
1
1
1
1
1
1
1
1
1
1
1
1
1
1
1
1
1
1
1
1
1
1
1
1
1
1
1
1
1
1
1
1
1
1
1
1
1
1
1
1
1
1
1
1
1
1
1
1
1
1
1
1
1
1
1
1
1
1
1
1
1
1
1
1
1
1
1
1
1
1
1
1
1
1
1
1
1
1
1
1
1
1
1
1
1
1
1
1
1
1
1
1
1
1
1
1
1
1
1
1
1
1
1
1
1
1
1
1
1
1
1
1
1
1
1
1
1
1
1
1
1
1
1
1
1
1
1
1
1
1
1
1
1
1
1
1
1
1
1
1
1
1
1
1
1
1
1
1
1
1
1
)
;

boundaryField
{
    inlet
    {
        type            fixedValue;
        value           uniform 1;
    }
    outlet
    {
        type            fixedValue;
        value           uniform 1;
    }
    wall
    {
        type            zeroGradient;
    }
    procBoundary3to1
    {
        type            processor;
        value           nonuniform List<scalar> 
192
(
0.415396
0.428563
0.502297
0.50493
0.336396
0.44963
0.375896
0.454897
0.407496
0.44963
0.46543
0.412763
0.346929
0.389063
0.44173
0.331129
0.460163
0.352196
0.446997
0.431196
0.354829
0.339029
0.446997
0.44963
0.420663
0.562864
0.715598
0.673465
0.986833
0.997367
1
1
1
1
1
1
1
1
1
1
1
1
1
1
1
1
1
1
1
1
1
1
1
1
1
1
1
1
1
1
1
1
1
1
1
1
1
1
1
1
1
1
1
1
1
1
1
1
1
1
1
1
1
1
1
1
1
1
1
1
1
1
1
1
1
1
0.338452
0.416313
0.459973
0.45952
0.441193
0.403047
0.442169
0.40583
0.441193
0.391992
0.368979
0.482786
0.408616
0.411891
0.351176
0.40583
0.383558
0.418524
0.42041
0.448782
0.406111
0.369883
0.402607
0.409409
0.629132
0.69268
0.80021
0.769133
1
1
1
1
1
1
1
1
1
1
1
1
1
1
1
1
1
1
1
1
1
1
1
1
1
1
1
1
1
1
1
1
1
1
1
1
1
1
1
1
1
1
1
1
1
1
1
1
1
1
1
1
1
1
1
1
1
1
1
1
1
1
1
1
1
1
1
1
)
;
    }
    procBoundary3to2
    {
        type            processor;
        value           nonuniform List<scalar> 
192
(
0.354829
0.331129
0.52073
0.439097
0.339029
0.470697
0.531264
0.446997
0.44963
0.46543
0.412763
0.354829
0.468063
0.444363
0.468063
0.354829
0.415396
0.360096
0.454897
0.312696
0.341663
0.415396
0.389063
0.312696
0.533897
0.491764
0.541797
0.53653
0.997367
1
1
0.997367
1
1
1
1
1
1
1
1
1
1
1
1
1
1
1
1
1
1
1
1
1
1
1
1
1
1
1
1
1
1
1
1
1
1
1
1
1
1
1
1
1
1
1
1
1
1
1
1
1
1
1
1
1
1
1
1
1
1
1
1
1
1
1
1
0.413628
0.427367
0.442169
0.446992
0.476275
0.453899
0.507447
0.464889
0.46124
0.374305
0.337329
0.411199
0.458734
0.387571
0.38876
0.409409
0.411122
0.442844
0.402607
0.455941
0.313394
0.447266
0.335351
0.504262
0.676744
0.617508
0.754713
0.787029
1
1
1
1
1
1
1
1
1
1
1
1
1
1
1
1
1
1
1
1
1
1
1
1
1
1
1
1
1
1
1
1
1
1
1
1
1
1
1
1
1
1
1
1
1
1
1
1
1
1
1
1
1
1
1
1
1
1
1
1
1
1
1
1
1
1
1
1
)
;
    }
}


// ************************************************************************* //
