FoamFile
{version 2.0; format ascii;class vectorField; location 0;object  v;}
2510
(
( 0.000257388 0.000334982 -0.000168333 )  
( 0.000224828 0.00111872 0.00577493 )  
( -1.74459e-05 -5.56812e-05 4.74398e-06 )  
( -0.000423926 0.000426167 0.0051348 )  
( 0.00283359 5.60256e-05 0.00444601 )  
( 0.00244338 -0.00170014 0.00470028 )  
( 2.83319e-05 -0.000371719 -2.01531e-05 )  
( -0.00213714 0.00308326 -0.00225028 )  
( 0.000894491 -0.000725754 -0.000568166 )  
( 0.00240036 -0.00104731 0.00332289 )  
( -0.000764888 0.000856142 0.00545612 )  
( -0.00062917 0.000259121 0.00585411 )  
( 0.000470274 0.000621924 0.0060136 )  
( 0.000597433 0.000501156 0.00596872 )  
( 0.000435341 0.000202405 0.00571298 )  
( 0.000388642 0.00031173 0.00555544 )  
( -8.46211e-05 -0.000323596 0.00568375 )  
( 0.000196138 0.000105875 0.00524142 )  
( 0.0002 8.21483e-05 0.00502856 )  
( 2.82164e-05 0.000644556 0.00105288 )  
( 0.00154224 0.000676252 0.0056712 )  
( -0.000888746 0.000236047 0.00279027 )  
( 0.000442141 -0.000104264 0.00525909 )  
( -0.00078988 -0.000503949 0.00535015 )  
( -7.90514e-05 -1.46661e-05 0.00461229 )  
( 0.00162235 0.00422166 0.00307507 )  
( 0.00166592 2.94272e-05 0.00500708 )  
( 0.00066615 0.000490531 0.0053717 )  
( 0.000577279 0.000402392 0.00610084 )  
( 0.000571532 0.000633857 0.00605911 )  
( 0.000616601 0.000550495 0.00475917 )  
( -0.00135222 -0.00134219 0.00471622 )  
( 0.000451578 0.000824546 0.00483809 )  
( 0.000120479 0.000110034 0.00590733 )  
( -0.000552877 -0.00101738 0.0010008 )  
( -0.000109317 0.000449633 0.00485546 )  
( -0.000933229 0.000571982 0.00601992 )  
( -0.00104609 0.00116545 -0.00113286 )  
( 0.00141109 -0.00134031 0.0050546 )  
( 0.000246153 -0.000231852 0.00489522 )  
( 0.00276048 0.00192467 0.0030108 )  
( 0.00145438 -0.00127323 0.00486226 )  
( -0.00133053 -0.000141328 0.00651994 )  
( 0.00154088 -0.000536455 0.00492677 )  
( 4.99874e-05 -0.000176648 0.00435795 )  
( 0.000235712 -0.00013392 -5.82801e-07 )  
( 0.0016675 6.05782e-05 -0.000269351 )  
( 0.0031666 -0.0001482 0.00809472 )  
( 4.15898e-05 -0.00109744 -5.82463e-05 )  
( 0.00178454 0.000378324 -0.00326525 )  
( 0.00164612 0.000993677 0.00548609 )  
( 0.0015887 -0.00170873 0.0038107 )  
( 0.00118378 -0.000719217 0.00777815 )  
( -0.000412871 -0.000367144 0.00490518 )  
( 0.00223826 -0.000789266 0.00509334 )  
( -0.000421886 -0.000610984 0.00356933 )  
( 0.000255751 -0.000382729 -0.00025605 )  
( 0.00164478 -0.000505934 0.00475244 )  
( 0.00200337 0.00158716 0.00395622 )  
( -0.000338017 -0.000201103 0.00623455 )  
( 0.00103082 0.00106916 0.000964438 )  
( 0.000311555 -5.8121e-05 -0.000351135 )  
( -0.00360703 8.57578e-05 0.00730046 )  
( -0.000383436 0.000767713 0.00675287 )  
( 0.000739618 -0.000917622 -0.00129417 )  
( 0.0015237 -0.00100632 0.00444781 )  
( 6.73773e-06 -0.000566507 0.00521709 )  
( -0.00171612 0.000120579 0.00627627 )  
( -0.00152615 -0.000971534 0.00635532 )  
( -5.96578e-05 0.00106158 0.00489001 )  
( 0.000931601 -0.000321487 -0.00223544 )  
( 0.000153722 0.000621801 0.00336338 )  
( 0.00124568 -0.00288585 0.00417117 )  
( -7.92731e-05 -0.000354894 -0.000260512 )  
( -0.000345674 -0.000870247 0.00478929 )  
( -0.000305615 0.000188113 9.23137e-06 )  
( 0.00184543 -0.000506135 0.00557537 )  
( 0.00101173 0.000358666 0.00422316 )  
( -0.00142836 0.000469171 0.00287809 )  
( -0.0015746 0.00124577 0.006696 )  
( -0.000345029 0.000442232 0.00428722 )  
( 0.0027579 -0.00117535 0.00584914 )  
( 0.000668198 -0.00117215 0.00739069 )  
( 0.00107631 -0.00028845 0.00526721 )  
( -0.000693788 0.00039478 0.00314753 )  
( -0.00175752 -0.00147671 -0.000538137 )  
( 0.000434455 -0.00272099 0.00414966 )  
( 0.00159499 0.000683863 0.000877528 )  
( 0.000926304 -0.000588421 0.00443571 )  
( 0.00123294 -0.000909842 -0.000148431 )  
( -0.000442461 -0.000658246 0.00552874 )  
( 0.000447221 -0.000966635 0.00511176 )  
( 4.70802e-06 0.000956636 0.0037627 )  
( 5.65267e-06 -0.00138402 -8.33203e-05 )  
( -0.000283181 4.69527e-05 0.00251387 )  
( 0.000609429 -0.000729157 0.0048709 )  
( 0.00120163 -0.00128347 0.00496477 )  
( 0.00173422 0.00110899 0.00823428 )  
( -0.000469626 -0.000519095 0.00561846 )  
( 0.00269023 0.00179627 0.00652787 )  
( 0.00181587 -0.00107901 0.00444464 )  
( 0.000767824 3.4378e-05 -6.36581e-06 )  
( 0.00130715 0.000268959 0.00610135 )  
( 0.000690671 -0.000711955 0.00521567 )  
( 0.00394318 0.00134899 -0.00352389 )  
( -0.000407085 -0.0007806 0.00590054 )  
( -0.000377052 -0.000132022 0.00508668 )  
( 0.000110499 0.000235198 0.00421523 )  
( -0.000304877 0.000170376 0.0048437 )  
( 0.00032095 -0.00116146 0.00485317 )  
( 0.000505262 -0.00102494 0.00434349 )  
( -0.000392783 0.000251622 0.00466524 )  
( -0.000650636 -0.000644322 -0.000413836 )  
( -0.00074745 -0.00144142 0.00310234 )  
( 0.000446633 -0.0003163 0.00307293 )  
( 0.000256181 0.000447394 0.0061151 )  
( 0.00178784 -0.00104759 0.00538981 )  
( 0.000175862 -0.000846864 0.000288179 )  
( 0.00325203 -0.00237798 -0.00356468 )  
( 0.000197227 0.000953075 0.00616685 )  
( 0.000491848 -0.00311594 0.00273795 )  
( 0.00234564 -0.000321311 0.00442723 )  
( 0.000115012 -7.5648e-05 1.27174e-05 )  
( 0.000313935 -0.000286427 0.00534662 )  
( 0.00247801 0.00130155 0.00323057 )  
( 0.000311014 -0.000117967 2.97359e-05 )  
( -0.000548655 0.000505052 0.00456698 )  
( -0.000861412 -0.00036856 4.84259e-06 )  
( -0.00106441 -0.000369865 0.00517337 )  
( 3.51606e-05 -8.99507e-05 -9.47068e-05 )  
( 0.000697556 -0.000579506 0.000221405 )  
( -0.000583446 0.000743192 0.00365774 )  
( -0.000433756 -0.000869227 0.00502578 )  
( -0.00125348 -0.00112521 0.000610814 )  
( 0.000194343 -0.000603299 0.000154237 )  
( 0.000187674 -0.00365364 0.0046708 )  
( 5.79108e-05 -0.00303166 0.00474809 )  
( 0.00105604 -0.00192245 0.0030955 )  
( 0.00069226 -0.00745292 -0.00139376 )  
( 0.000121566 5.6461e-05 5.26567e-05 )  
( 0.000807223 -0.0020698 0.00492587 )  
( -0.000306052 -0.000889312 -0.000123904 )  
( 0.000155224 -0.00228679 0.00306435 )  
( -0.000452227 0.000236509 0.00663561 )  
( -0.000228231 0.000850776 0.00506474 )  
( 0.000485344 0.0013492 0.000559263 )  
( 0.000427681 -0.00195254 0.00346864 )  
( 0.000375192 -0.0012412 0.000334728 )  
( -0.000289773 9.18589e-05 0.00629599 )  
( -0.000294095 -0.000142122 0.00215516 )  
( -0.000818219 -0.00016894 -0.000915739 )  
( -0.00031681 0.000406476 0.00631171 )  
( 0.000324703 -0.00063618 0.000761681 )  
( 0.000587628 -0.00351265 0.00637786 )  
( 0.00044248 -0.00164514 0.000387043 )  
( 0.00124124 -0.000631837 0.00388478 )  
( 4.50659e-05 5.99723e-05 -6.1892e-05 )  
( 0.00213946 -0.00187825 0.0012822 )  
( 0.000579427 -0.000455551 -0.000244983 )  
( 0.00170313 -0.000992834 0.00419105 )  
( 0.00179919 -0.00091115 0.00431938 )  
( -0.000695327 -0.000984226 -0.000353966 )  
( 0.000808358 0.0010195 0.00434851 )  
( 0.00105591 0.00351723 0.00838634 )  
( 0.000852352 -0.00395987 0.00272478 )  
( 0.000645691 -0.000415178 0.000585529 )  
( -0.000118222 -0.000149541 -0.000723571 )  
( -4.58306e-06 -0.000360235 5.55697e-05 )  
( 0.000395662 -6.52945e-06 0.00479167 )  
( 0.000228307 -0.00029532 0.000878915 )  
( 0.00326354 -0.0012078 0.000934395 )  
( 0.000832528 0.000530235 0.00514814 )  
( -0.00110351 0.000730617 0.00858511 )  
( 8.80912e-05 -0.000701525 -0.000601953 )  
( 0.000156556 -0.00160925 0.00583837 )  
( -0.00054759 -0.000868848 -0.000139036 )  
( 6.84491e-05 0.000261349 0.00498717 )  
( 0.00100957 -0.000806754 0.00439468 )  
( -9.18494e-05 0.000232844 8.24149e-05 )  
( 0.000259864 0.000549099 -0.000761465 )  
( 0.000686967 -0.000257472 0.00493542 )  
( -0.000691354 -0.000361693 0.00501182 )  
( 0.000645723 0.000145808 0.00380683 )  
( 0.00184078 0.000871993 0.00537719 )  
( -0.000812831 -0.00162232 0.00336744 )  
( 2.4079e-05 -0.000518581 -0.000490588 )  
( -0.000264679 -0.000824838 0.00453537 )  
( -0.00116326 0.000702152 0.00610533 )  
( 0.000806782 -0.00231659 0.00923854 )  
( 0.00339252 0.00106947 0.00640845 )  
( -0.000761391 -0.000177506 0.00451629 )  
( 0.000246016 -0.00031139 -0.000268739 )  
( 0.00129869 -0.00243759 0.0043271 )  
( 0.000524918 0.00076011 0.00549536 )  
( 0.000181289 -0.000189076 -4.34883e-05 )  
( 0.00187151 -0.000827868 0.00738895 )  
( 0.000811158 -0.000554717 0.00657714 )  
( 0.00121113 -0.00179369 0.00636913 )  
( -0.00117403 -0.00220984 -0.00166244 )  
( -0.0027735 -0.00144297 0.00877881 )  
( -0.00052497 0.000169685 0.00525723 )  
( 0.000477967 -0.000566619 -0.000572275 )  
( -2.4486e-05 5.80631e-05 -6.36147e-05 )  
( -0.000257122 -0.000878738 -0.000440711 )  
( -3.73294e-05 0.00030539 -0.00047935 )  
( 0.00071291 -0.000469089 0.000307817 )  
( 0.000796784 0.00218624 -0.000608832 )  
( 0.000876425 0.000592714 0.00682374 )  
( 0.000536277 -0.00182934 0.00442248 )  
( 0.000560828 -0.000479035 0.000288993 )  
( 0.000358887 -0.0007387 0.00620473 )  
( 0.000227142 -0.000985624 0.00367507 )  
( 0.00193507 -0.00204853 0.00772256 )  
( -0.000125693 0.000325739 2.88583e-07 )  
( -0.000405688 0.000269853 0.00778403 )  
( 0.000540096 0.00127142 0.00340295 )  
( -0.000386994 -0.000711469 0.00262887 )  
( 0.000345396 -0.000592131 0.00424773 )  
( -0.00095699 0.000686357 0.00503409 )  
( -0.000465649 -0.000610955 1.88522e-05 )  
( 0.00134786 0.000482289 0.00129402 )  
( 0.00234108 0.000414326 -0.0019132 )  
( 0.000152898 -0.000677324 0.00403756 )  
( 0.00185465 -0.000457203 0.00392128 )  
( 0.00103008 -6.91549e-06 0.00620825 )  
( 4.58062e-05 2.6671e-05 0.00596983 )  
( 0.00117636 -0.00288668 0.00521717 )  
( -6.65526e-05 -3.07202e-05 0.00325762 )  
( 0.000890041 -0.0015698 0.00288187 )  
( -0.000146958 -0.000573737 0.00486037 )  
( 0.000826652 -0.000849521 0.00364799 )  
( 0.000959824 -0.000351537 -0.000248867 )  
( -0.000959674 0.000884941 0.00560412 )  
( 0.000851945 -0.00190067 0.000225259 )  
( 0.000649326 -0.000406899 6.81534e-06 )  
( -0.000148048 -0.000299195 -0.000248931 )  
( 0.00381248 -0.00154564 0.0115905 )  
( 9.14915e-05 -0.000132048 -5.23747e-05 )  
( 0.000176093 -0.00149959 0.0043523 )  
( 0.000240557 -8.2845e-05 -0.000101944 )  
( 5.70591e-05 0.000141073 0.00497224 )  
( 0.00102872 -0.000688783 0.00233384 )  
( 0.000384917 0.00116087 0.000245977 )  
( -0.000121666 -0.000596204 0.00508577 )  
( 0.000159924 -0.0005243 0.00618429 )  
( 0.000733136 -0.00178766 0.00689544 )  
( 0.00115895 0.000164965 0.0048875 )  
( 0.000746835 0.000491673 -0.00337954 )  
( -0.00163408 -0.00243216 0.0054567 )  
( 0.000283734 -0.000402929 -0.000107961 )  
( 0.00106704 -0.00166239 0.00464692 )  
( -0.000195468 0.00123289 -0.00248819 )  
( -0.00105826 0.00142202 0.00509574 )  
( 0.00137396 -0.000528214 0.00490749 )  
( 0.000819287 -0.00405161 -0.000191203 )  
( 0.000225647 -0.000792323 0.00410627 )  
( 0.000396052 -0.00146949 0.00346248 )  
( 0.00116457 -0.000344628 -0.000250161 )  
( -0.000193905 -0.00183018 0.00444855 )  
( 0.000247654 -0.000195335 -7.66059e-05 )  
( 0.000129765 -0.000799241 0.00566617 )  
( 0.000155665 -0.000249411 -0.000420957 )  
( 0.00060293 -0.000575019 0.00460035 )  
( 0.000193711 -0.000419254 -6.08263e-05 )  
( 3.27085e-05 -0.000561859 -0.000204374 )  
( 0.00160918 -0.000477332 0.00480788 )  
( 0.00125037 -0.00102654 -0.000842054 )  
( -0.00052294 -0.00125863 0.00372675 )  
( 8.44223e-05 -0.00013832 5.31208e-05 )  
( -0.000427936 -0.000901326 -0.000617852 )  
( 0.000692761 -0.000275316 0.000351041 )  
( -4.52314e-05 -0.000263266 0.00654808 )  
( 8.18927e-05 0.00178723 0.000589119 )  
( 0.00235894 -0.00198862 -0.0019224 )  
( 0.0029762 -0.00121934 0.00439515 )  
( -0.00168094 -0.00213705 0.00443038 )  
( 0.00040535 -1.94245e-05 -0.000317979 )  
( -0.00107614 -0.000279315 0.005666 )  
( 0.000912675 -0.000677703 0.00654557 )  
( -0.00153025 -0.00117276 0.00628454 )  
( -0.00084797 -0.00096392 0.00491219 )  
( 0.00127429 0.000368112 0.00497657 )  
( 0.000103842 -0.00112609 0.00425715 )  
( -0.000893887 -0.00105046 0.000401442 )  
( 0.00486585 -0.00110739 -0.00219641 )  
( 0.00699132 -0.0030183 0.00290928 )  
( 0.000476692 0.00124363 0.003563 )  
( 0.000391042 -0.000278849 0.00487332 )  
( 0.0010575 7.67307e-05 0.000106613 )  
( 0.00102829 0.000548121 0.00556069 )  
( 0.00149152 -0.000281074 0.00335087 )  
( 0.00150771 0.0023931 0.00508314 )  
( 0.000776602 -0.000512502 0.00323657 )  
( 0.00135298 -0.00118305 3.30431e-05 )  
( 0.000154758 -0.000157767 5.8592e-05 )  
( 0.000461912 -0.00195162 0.00359566 )  
( 0.00166968 -0.00324137 0.00456584 )  
( 5.10939e-05 -0.000259223 -6.40571e-05 )  
( 0.000155618 0.00105442 0.00800683 )  
( 0.00055302 -0.00140663 0.00423967 )  
( 0.000871178 -0.000403265 0.00651943 )  
( 0.000123222 6.20027e-05 0.00492824 )  
( 0.00183936 0.000487926 -0.000668507 )  
( 0.00016059 -0.000413115 5.63968e-05 )  
( 0.000154774 0.00198225 0.00159948 )  
( 0.000471672 0.000834908 0.00694005 )  
( -0.000320222 -0.00137741 0.0048541 )  
( 0.000180578 -0.000156808 -5.53877e-05 )  
( 0.000862888 -0.000317493 -0.000380851 )  
( 1.3065e-05 -0.000547542 0.00540726 )  
( 0.00049972 9.9249e-05 0.00593214 )  
( -0.000514876 -0.00108102 0.00359989 )  
( -1.32853e-05 -0.00116928 0.00427557 )  
( 0.000144267 -0.000816851 0.00535758 )  
( -0.000177967 0.00135854 -0.000564543 )  
( -6.89018e-05 4.14513e-05 0.0059343 )  
( 0.000455007 -0.00165823 0.00403334 )  
( -0.0017674 -0.00420522 0.0037156 )  
( 0.000939727 -0.000695915 0.00468378 )  
( 5.80849e-05 -0.000689792 0.00472525 )  
( 6.02749e-05 -0.00119612 0.000299916 )  
( 0.000677056 -0.000148628 0.00340811 )  
( 0.000561567 0.00185589 0.0059201 )  
( -0.00105372 -0.0033791 0.00570993 )  
( 0.000555053 -0.000175798 0.00432902 )  
( -0.000250469 -0.000829867 -0.000653507 )  
( 0.000690814 -6.19021e-05 0.00652437 )  
( 0.000464637 -0.000465073 0.00430409 )  
( 0.000143077 -0.000345288 0.00501049 )  
( 0.000722249 -0.000546233 0.00356928 )  
( -0.000477421 -0.000106133 -2.92222e-05 )  
( 6.42096e-05 -5.92081e-05 0.00578198 )  
( -0.000464509 -0.00160301 0.00490527 )  
( -1.18341e-05 0.00197867 0.00568311 )  
( 3.54896e-05 -1.71052e-05 -0.000159022 )  
( -0.00130738 -0.000483657 -1.55321e-06 )  
( 0.000116322 0.00369471 -0.00200593 )  
( 9.4291e-06 0.000163744 0.000419527 )  
( 3.44777e-05 -0.0014942 0.00713009 )  
( 0.000361376 -0.00074231 -0.000192811 )  
( -0.00162842 -0.00288863 0.00569272 )  
( -0.000950735 0.000351618 -0.000812688 )  
( -0.000410669 0.000841122 -0.00117581 )  
( 0.000288702 -0.00342148 0.00883871 )  
( -5.23818e-05 0.000967896 0.00554674 )  
( 0.00044598 4.59554e-05 9.97894e-05 )  
( -0.000939542 -0.000349571 0.00563163 )  
( 0.00195407 -0.00181445 0.00391293 )  
( 0.00156119 0.000135285 0.00438948 )  
( 0.000725485 0.000637117 0.00438297 )  
( 0.0020632 -0.00157468 -1.13411e-05 )  
( 0.00140953 -0.000698967 0.00668585 )  
( 0.000344429 -0.00043761 7.61629e-05 )  
( -0.00162681 0.00292142 0.00661722 )  
( 0.000113062 0.000867863 0.00693058 )  
( -0.000314081 0.000741778 0.000397131 )  
( -0.000612515 -0.000848359 0.00360766 )  
( 0.000378846 -0.000910721 0.0044384 )  
( -0.000437599 -0.000610244 0.00430844 )  
( 0.00245831 -0.0013291 0.00547508 )  
( 0.000300696 0.000508437 0.000799063 )  
( 0.00158663 0.00102665 -0.000869931 )  
( 0.000482807 -0.00027975 0.000148551 )  
( -0.00084626 -0.00158308 0.00496178 )  
( -0.000178078 -0.00258258 0.00473923 )  
( 0.00126478 0.00035793 0.00448057 )  
( 0.000117934 0.00066133 0.00625364 )  
( -7.40072e-05 -0.000675583 -3.01604e-05 )  
( 0.00027714 -0.00056622 -9.88442e-05 )  
( 0.000747931 -0.000994789 0.00444515 )  
( 8.52035e-05 -0.000310564 0.000159921 )  
( 0.000819264 -0.000315716 2.17836e-06 )  
( -0.000656028 -0.00160568 0.0057886 )  
( 0.000199225 0.00139005 0.00607977 )  
( 0.000378683 0.000177823 -2.71974e-05 )  
( 0.000196359 -0.000109412 -5.68725e-05 )  
( -4.34458e-05 -0.00166746 0.00559735 )  
( -0.000487638 0.00126219 0.00564755 )  
( -0.00111289 -0.000589374 0.00699301 )  
( -0.00107628 -0.000390967 0.00367258 )  
( 0.000554285 -0.00137871 -0.000876825 )  
( 0.000440341 -0.0013175 0.0027408 )  
( -5.44547e-05 -0.00246763 8.01535e-05 )  
( -0.001219 -0.00289738 0.00370863 )  
( 0.000291913 -0.000165663 3.53133e-05 )  
( 0.00625019 -0.000849621 -0.000537688 )  
( 0.000337997 0.00144681 0.0028438 )  
( 0.00222605 -0.00321962 0.00749869 )  
( 0.000861375 -0.00173614 0.00440567 )  
( -0.0013945 -0.00216123 0.00374184 )  
( 0.000131902 -0.000417342 -0.000651745 )  
( -0.00265559 0.00300199 0.010562 )  
( 0.00012709 -0.000302818 9.74525e-05 )  
( 0.00153161 -3.63133e-05 0.00592438 )  
( 0.000394487 -0.000584783 1.51703e-05 )  
( -0.000293254 -0.00058427 1.2781e-07 )  
( 0.000127446 -0.00221291 0.00968028 )  
( 0.000152547 -0.00151464 -0.00013179 )  
( 0.00307515 0.000587491 0.000527464 )  
( 0.000284899 -0.000112692 -3.35482e-05 )  
( -0.00103346 -0.00506231 0.00750775 )  
( 0.00099711 -0.000878843 0.00270417 )  
( 0.000613228 0.000684213 0.00605845 )  
( 0.000328736 0.000215117 0.00546184 )  
( 0.000498697 -0.000256595 0.00523885 )  
( 0.00171096 -0.00613746 0.00456681 )  
( -0.00290193 0.00186981 0.00847325 )  
( 1.47398e-05 0.000171702 0.00473159 )  
( 7.43765e-05 0.000250892 0.00535665 )  
( -0.000879628 0.000673346 0.00432719 )  
( 0.000183919 0.000439192 -4.67334e-05 )  
( -3.59238e-05 -7.71432e-05 -0.000172894 )  
( 0.000766524 -0.00103741 0.00421545 )  
( 0.000946338 -0.00206044 0.00649615 )  
( 0.000267877 0.000664182 0.00490298 )  
( 0.000645235 -0.00114403 0.00602523 )  
( 0.00178595 -0.00150685 0.00246386 )  
( 0.000999705 0.00038664 0.0049027 )  
( -0.000326139 -0.000932413 0.000511804 )  
( -0.000100563 -0.00189539 0.00462138 )  
( 0.000422184 0.000655134 0.000318105 )  
( -0.000205108 -0.000110704 1.87954e-05 )  
( -0.000532368 -0.000679382 -6.32868e-05 )  
( 5.40076e-05 -0.000321657 -7.62196e-07 )  
( 0.00198115 0.00181005 0.000702752 )  
( 0.00020594 2.36164e-06 0.00513887 )  
( 0.0018031 -0.000479297 -0.000722607 )  
( 5.49121e-05 0.000278637 0.0047495 )  
( 0.00215537 -0.00117504 0.00100156 )  
( 0.000308308 -0.0020413 0.00582458 )  
( 0.000427196 4.33845e-05 0.000914261 )  
( 0.00100048 -7.80468e-05 -0.00116426 )  
( -5.56347e-05 -1.32124e-05 -0.000433694 )  
( -0.000769598 7.91928e-05 0.00466877 )  
( 0.00059242 9.16404e-05 0.00453611 )  
( -0.000250685 -0.000188783 -0.000155038 )  
( -0.00317936 0.00130382 0.00626697 )  
( -0.000910888 -0.00107619 0.00345174 )  
( -0.000374375 -0.000976248 -0.000323692 )  
( 0.000718716 0.000103497 5.52923e-05 )  
( 0.00204056 -0.00155732 0.00320452 )  
( 0.000821287 0.000974394 0.00895052 )  
( -0.000460022 -0.00417317 -0.000347998 )  
( -0.0011883 0.000594881 0.00505224 )  
( 0.000410909 -0.000435953 -0.000344835 )  
( 0.000285782 -0.000443073 0.00484766 )  
( 0.000232742 -0.000203018 0.00235703 )  
( 0.000737974 -0.00050044 0.000120271 )  
( 0.00149292 -0.00106404 0.00240617 )  
( -0.000250337 0.00132535 0.00375876 )  
( -0.000759552 0.000463402 0.0047793 )  
( 0.000202407 -0.000791008 0.00278216 )  
( 0.000215932 -0.00103739 0.00399534 )  
( 0.00100724 0.000494285 0.00576967 )  
( 0.000454074 -0.000321689 -5.0773e-05 )  
( -0.000508336 -0.000174973 0.00495888 )  
( -0.000122046 -0.000445758 -0.000646627 )  
( -0.000492976 -0.00262208 0.00915551 )  
( -0.000106271 -0.000878284 0.00501092 )  
( 0.000401524 1.35072e-05 4.39186e-05 )  
( 0.000714834 -0.00318838 -0.000849666 )  
( 0.000195019 -0.00051775 0.00422612 )  
( 0.00154307 -0.000512985 -0.00150438 )  
( -0.00132673 -0.00211601 0.00332374 )  
( 0.000469267 -0.000465577 0.0077714 )  
( -0.000452533 0.000373612 0.00270486 )  
( 0.00241841 -0.000938479 0.00786283 )  
( -0.000312966 0.000730464 0.0049319 )  
( 0.000335205 -0.000627755 -5.35596e-05 )  
( -0.00121819 -0.000688198 0.00350429 )  
( 0.00193836 0.000125938 0.000186995 )  
( 7.23428e-05 -0.000211023 -0.000627765 )  
( 0.000225548 -0.00059585 0.00504593 )  
( -0.000151553 -0.000181054 -3.71159e-05 )  
( 3.27118e-05 0.000582906 0.000359203 )  
( -0.00300618 -0.000881861 0.006269 )  
( 0.0025858 -0.00090806 0.00517886 )  
( -4.71645e-06 -0.000262495 0.000345164 )  
( 0.00145744 0.00067282 0.00635436 )  
( -0.000605863 -0.000685794 2.17515e-05 )  
( -0.000232938 -0.000694758 0.00470141 )  
( 0.00120278 0.00145616 0.00645225 )  
( 0.00256494 -0.0013791 0.00439934 )  
( -0.000375154 6.82286e-05 0.00398035 )  
( -0.000276582 -0.000301952 9.26452e-05 )  
( 0.000866692 -0.00352648 0.00301833 )  
( 0.00213822 0.00353871 -3.81226e-05 )  
( -0.000711942 0.00126054 0.00540241 )  
( -8.43871e-05 -0.000707856 -0.000108366 )  
( -0.000449331 -0.000877975 0.0038863 )  
( 0.00246287 -0.00154162 0.00434931 )  
( 0.000629883 -0.00056192 0.00378302 )  
( 0.000660758 -0.000236644 0.00469423 )  
( 0.000463271 -0.000346685 2.14575e-05 )  
( -0.000998269 0.00157045 0.00558576 )  
( 0.00118019 0.00137406 0.000557617 )  
( 0.00149026 -0.00119447 0.00493305 )  
( 0.000281187 0.000672577 0.00555051 )  
( -6.01518e-05 -0.000265497 -0.000787313 )  
( 0.000506362 -0.00215283 0.00395159 )  
( 0.00162762 -0.000876113 0.00271887 )  
( -0.0016929 -0.00161922 0.00444834 )  
( 0.000262882 -0.00112024 0.00443787 )  
( -0.000306085 0.00363059 0.00740465 )  
( 0.000362134 -0.00214121 0.0054461 )  
( -0.00136516 -0.00100132 0.0040786 )  
( -0.00029509 -0.000264953 1.48881e-05 )  
( -0.000130382 -0.00137811 0.00625411 )  
( -0.000550555 -0.00142671 0.00426277 )  
( 7.7757e-05 -0.000559469 -0.000488252 )  
( -0.00010516 -0.00282073 0.00529719 )  
( 0.000367582 -0.000663102 5.11763e-05 )  
( -0.00146031 -0.00192932 -0.00214674 )  
( -0.0058816 -0.00096217 0.00730025 )  
( -0.00033462 0.00202289 0.00481643 )  
( 4.80762e-05 -0.000597108 0.00489577 )  
( 0.000609942 7.67983e-05 0.00465212 )  
( 0.00139779 -0.000648322 0.00389627 )  
( 0.00129592 0.000638122 0.000397804 )  
( 0.00157009 -0.000898246 0.00478071 )  
( 0.00210914 -0.00387758 -0.00155664 )  
( 0.000860414 0.0013558 0.000533675 )  
( 0.000306917 -0.00176026 0.00435796 )  
( 0.00551141 0.00247261 0.000544004 )  
( -1.78677e-05 -0.000985495 0.00269517 )  
( -0.000674178 0.000790979 0.00398224 )  
( 0.00101621 0.00307099 0.00744165 )  
( -0.000127997 -0.000122608 0.00505827 )  
( 0.00183505 -0.000387234 0.0059191 )  
( -0.00137639 -0.000369864 0.00281634 )  
( 4.8565e-05 -0.00152263 0.00410713 )  
( -0.000253739 4.57933e-05 0.00675628 )  
( 0.000408612 0.00140867 0.00585681 )  
( 0.000312051 -0.000766683 0.00192015 )  
( 0.000309299 -0.00175332 -0.00178267 )  
( -0.000222203 -0.00154442 0.0015059 )  
( 3.17529e-05 -0.00071778 9.91521e-06 )  
( 0.00231976 0.000694198 0.00432194 )  
( -0.000237553 -0.00274131 -0.00116442 )  
( 0.00264759 -0.00184188 -0.00966364 )  
( 0.00273145 -0.000754674 0.00588464 )  
( 0.00117843 0.000739798 0.00301993 )  
( -1.80818e-05 -0.000102912 9.40723e-07 )  
( 0.00302154 0.000941697 0.0112884 )  
( -0.000367329 -0.000453601 -0.000140096 )  
( 0.000794174 -0.000763157 -0.00304517 )  
( -0.000695739 -0.00164166 0.00505731 )  
( 0.000888687 -0.000176506 -0.000505932 )  
( 6.54587e-05 -0.000192726 0.00625412 )  
( -0.000268644 0.00101218 0.0054526 )  
( 0.002216 -0.000590002 0.00435029 )  
( -6.81171e-05 -0.00173047 0.00384361 )  
( 0.000660697 0.000914512 0.00658445 )  
( -0.00118217 9.29549e-05 -0.00105857 )  
( 7.8716e-05 4.21531e-06 -9.19465e-05 )  
( 0.0011157 -0.000194942 0.00406987 )  
( 0.000313943 -0.000333526 0.00586756 )  
( -0.000448185 -7.33288e-05 0.00660638 )  
( 0.000181899 -0.000176326 -5.92304e-05 )  
( -1.32105e-05 -0.00162876 0.00461293 )  
( -0.000333762 -0.00170615 0.00507597 )  
( 0.00152237 -0.000541262 -0.00225057 )  
( -0.000571988 -0.000781797 0.00363798 )  
( -0.00125458 0.000943174 0.00803313 )  
( 0.00189509 -7.33498e-05 0.000357696 )  
( -4.26091e-05 0.000584356 0.0048929 )  
( -0.00562234 -0.00456515 0.0111446 )  
( -0.000318366 -0.000313357 0.00340683 )  
( 0.00140899 -0.00174137 0.0037676 )  
( 0.000630692 -0.000250783 0.00399592 )  
( 3.73598e-05 0.000271128 -0.000232986 )  
( -2.42886e-05 -0.000953492 0.000331384 )  
( 0.000299968 -0.00037134 3.17204e-06 )  
( -0.00141367 -0.00138974 -0.00147381 )  
( -0.000437894 -0.000407341 0.0050536 )  
( -0.000107012 -8.96308e-05 0.00471285 )  
( 7.42966e-05 0.000202025 9.8351e-05 )  
( -0.00183767 -0.000227369 0.00473824 )  
( 0.000342027 -0.000609116 -2.46167e-05 )  
( 0.00141044 -0.00239137 0.00625643 )  
( 0.00307085 -3.57516e-05 0.00746041 )  
( 1.90388e-05 -0.000184951 1.28475e-05 )  
( -0.000433199 -0.00147021 -0.000470841 )  
( -0.000918047 -0.000466197 0.00356486 )  
( 0.0016741 -0.00121211 -0.00151928 )  
( 0.000327224 -0.00337318 0.00427974 )  
( 0.00124899 0.000938808 0.0043521 )  
( -0.000368181 -0.000396636 0.00504601 )  
( 0.000687922 -0.000987889 0.00561625 )  
( -0.000216067 1.15002e-05 0.00265326 )  
( 7.4081e-06 5.62334e-05 0.00224525 )  
( 0.00156082 -0.00596947 0.00689429 )  
( -0.000502093 0.00144713 0.0052519 )  
( -0.000426042 -0.00130478 0.00595545 )  
( -0.000454448 -0.00126585 0.00301484 )  
( 0.000493726 0.000109067 0.00221715 )  
( 0.00015457 -0.000610011 0.000125606 )  
( -0.000394061 -0.00147873 0.00381086 )  
( 0.00144556 -0.00122146 0.000140452 )  
( 0.000252076 -0.000334355 -0.000233337 )  
( 0.000683872 -0.000939743 0.00346056 )  
( -0.000402352 -0.00262491 0.000860283 )  
( -0.000158729 -0.000272175 0.00355414 )  
( 0.00481276 0.000653917 0.0060525 )  
( 0.00142483 0.000422436 0.00355063 )  
( -7.73263e-05 0.000855512 0.00671155 )  
( 0.000703626 -0.0038562 -0.000773925 )  
( 0.000292317 0.00105804 0.0027722 )  
( 0.000270788 -0.00139482 -0.000185066 )  
( -0.00029391 -0.000229988 0.00493376 )  
( 0.000695343 0.00156093 0.00613992 )  
( 0.000373163 -0.00158119 0.00328155 )  
( -0.000635971 -1.26906e-05 0.00459589 )  
( 0.00159698 -0.000986175 0.00460862 )  
( 0.00119102 0.00152115 0.00375336 )  
( -7.42767e-05 -0.0004585 0.00516979 )  
( 0.000415115 0.00227971 0.00499641 )  
( 0.0011364 0.000318025 -0.000603722 )  
( 0.000354774 -0.000310971 0.000126018 )  
( -0.000412164 0.000226045 2.25912e-06 )  
( 0.000135218 -0.000221139 -0.000202262 )  
( 0.00017796 -0.000337327 0.00425754 )  
( -0.0011355 -0.00150681 0.00324618 )  
( 8.41267e-05 -0.0010522 0.0004671 )  
( -0.000427323 -0.000678532 0.00537541 )  
( 0.000109104 -0.00059709 -4.71066e-05 )  
( 0.000172992 -0.000127485 -0.000155245 )  
( -0.000132623 -0.000933964 0.0050603 )  
( 0.00172269 -0.000213661 0.00280141 )  
( -0.00281647 0.000569326 0.0061706 )  
( -0.00189364 0.00261313 0.00864696 )  
( -0.00167467 -0.00112984 0.00707884 )  
( 0.000546412 0.00018561 0.000152129 )  
( -0.000446887 -0.000590089 -6.92488e-05 )  
( -0.00221752 -0.00182701 0.00400968 )  
( 0.000429388 -0.000444191 -0.000155349 )  
( -0.000768247 -0.000389096 0.000122467 )  
( 0.000748236 -0.00131532 0.00478494 )  
( 0.00288128 0.000286899 0.0106617 )  
( -0.00126606 -0.00086686 0.00372676 )  
( 0.000476716 -0.00113294 7.74168e-05 )  
( 0.000526817 -0.00116945 -7.86946e-05 )  
( -0.00389379 -8.15703e-05 0.00614546 )  
( 0.000453136 0.00040499 -0.00111358 )  
( 0.00184463 -0.00111829 0.0059273 )  
( -0.000276671 -0.000190537 6.8712e-05 )  
( -0.000563486 -0.00115108 2.16015e-05 )  
( -0.000300735 -0.000698372 -0.000403253 )  
( 0.00277418 -0.000166004 0.00796322 )  
( 0.000185369 0.000636336 -0.00113555 )  
( 0.000840048 -0.000282812 0.000374894 )  
( 0.000626985 -0.000621142 -0.000143979 )  
( 0.000331151 7.97306e-06 -0.000138279 )  
( -0.000587672 -0.000697835 0.00545811 )  
( 0.00105296 -0.000584524 0.00444379 )  
( -0.00049416 0.000480921 0.000252234 )  
( -0.000671649 -0.000450166 0.00548567 )  
( -0.00122635 0.00317352 0.000922163 )  
( 1.93132e-05 -7.4304e-05 0.00203371 )  
( -0.000117036 0.00113059 0.00602355 )  
( 0.000422519 -0.00226255 0.00603846 )  
( 0.00120783 -0.00118442 0.00455863 )  
( 2.02571e-05 0.000261819 5.86315e-05 )  
( 0.000300219 -0.000386248 -0.000347783 )  
( -0.00332026 -0.00857514 0.0061343 )  
( 0.000885658 -0.00010586 0.00660554 )  
( -0.00134195 -0.0019682 0.00387807 )  
( 0.0051588 -0.00224766 -0.00169061 )  
( 0.00214463 -0.00147087 0.00536255 )  
( -0.000857129 -0.00393556 -0.00236575 )  
( 0.000380074 -0.00065981 -0.000247305 )  
( -0.000681593 -0.000842287 0.00321346 )  
( 0.000162924 -0.000224323 -5.65223e-05 )  
( 0.000889788 -6.83221e-05 0.00167973 )  
( 0.00212138 -0.0017306 0.00601563 )  
( -0.0003309 -0.00115488 0.00494657 )  
( 5.91933e-05 0.00620572 0.00793338 )  
( 0.00012731 -0.00063874 -2.97226e-05 )  
( -0.00166102 -0.00200201 0.00523271 )  
( -1.02132e-05 -0.00014327 -1.18182e-05 )  
( 0.000648197 -0.000426863 0.00311187 )  
( 0.000973582 0.000498558 -0.000684125 )  
( 0.00106724 -0.000565993 0.00411694 )  
( 0.000440494 -0.0016006 0.00589859 )  
( 0.000278972 -0.000260225 7.64567e-06 )  
( 0.00106844 0.00179849 -0.00023638 )  
( -0.00111219 0.000698439 -0.000954221 )  
( 0.00257404 0.000169339 0.00845663 )  
( -0.000339821 -0.00134451 0.00415043 )  
( 0.000567968 -0.00184409 0.00512735 )  
( 0.00168324 -0.00204274 0.00409577 )  
( 0.000727492 -0.000211744 -0.000100331 )  
( 0.00237405 0.0018638 0.00747077 )  
( -0.00158079 -0.00139185 0.00211446 )  
( 0.0003451 -0.00100327 -0.000498706 )  
( 0.00132344 -0.000468483 0.000192636 )  
( 0.00231715 -0.00235299 0.00615817 )  
( 8.39303e-05 -0.000191056 -0.000403038 )  
( 0.000246257 0.000421524 -0.00068799 )  
( 0.000261416 -0.000251288 -1.17184e-05 )  
( 0.000336788 0.00017873 0.00483068 )  
( 0.000213425 -0.000788325 -0.000209037 )  
( -0.000365558 -0.000525767 0.00419077 )  
( 0.00021219 -5.02754e-05 -0.000150034 )  
( 0.000184361 -0.00178317 0.00262954 )  
( 6.68178e-05 -0.000296079 -0.000205584 )  
( 0.000867936 0.00032007 0.00505586 )  
( -7.99607e-05 0.00023093 0.00275642 )  
( 0.000452403 -0.00172476 -0.00115243 )  
( -0.00130085 0.00140119 5.1159e-07 )  
( -0.00108355 -0.000191729 -0.000422934 )  
( 0.000253434 -0.000441336 3.00331e-05 )  
( 0.000406532 -5.43864e-05 0.00512787 )  
( -0.000447322 -0.00104596 0.00339315 )  
( -0.000411182 -0.00187044 -0.00279759 )  
( 0.000355277 -0.00041321 9.19505e-06 )  
( 0.000591743 0.00203101 0.00789508 )  
( -0.000978711 -0.000524796 0.00411594 )  
( 0.00173731 0.00189092 0.00178328 )  