/*--------------------------------*- C++ -*----------------------------------*\
| =========                 |                                                 |
| \\      /  F ield         | OpenFOAM: The Open Source CFD Toolbox           |
|  \\    /   O peration     | Version:  2506                                  |
|   \\  /    A nd           | Website:  www.openfoam.com                      |
|    \\/     M anipulation  |                                                 |
\*---------------------------------------------------------------------------*/
FoamFile
{
    version     2.0;
    format      ascii;
    arch        "LSB;label=32;scalar=64";
    class       surfaceScalarField;
    location    "0.08";
    object      phi;
}
// * * * * * * * * * * * * * * * * * * * * * * * * * * * * * * * * * * * * * //

dimensions      [0 3 -1 0 0 0 0];

oriented        oriented;

internalField   nonuniform List<scalar> 
3120
(
-5.17469e-09
-7.84042e-09
7.91051e-08
2.24876e-09
1.16242e-10
6.90912e-10
4.17132e-08
-5.55682e-10
-1.57818e-09
-3.63767e-09
4.92644e-08
2.00551e-09
2.23556e-09
3.8247e-08
1.76292e-09
3.58627e-09
1.18349e-09
3.72904e-09
3.75059e-08
-7.46633e-09
-1.28117e-09
5.86274e-08
5.25614e-09
3.97482e-09
2.80502e-08
-2.26647e-10
5.95482e-08
-3.45122e-09
-2.61206e-09
4.60015e-10
5.59095e-08
-2.24766e-09
1.77605e-09
4.5385e-08
1.00537e-09
9.52955e-09
3.96598e-08
5.52559e-09
4.93384e-08
-6.10314e-09
-6.03077e-10
2.59201e-08
2.95164e-09
4.39341e-08
-5.47363e-09
6.53135e-08
7.42055e-08
-1.86069e-08
-1.49356e-09
5.87938e-09
6.85145e-08
-1.49512e-09
1.80623e-09
2.70045e-09
3.56349e-08
7.81425e-11
-4.87586e-10
8.17633e-09
5.09991e-08
-7.61718e-09
7.84234e-09
1.96682e-08
6.0742e-09
4.1747e-09
-4.07757e-09
5.52719e-09
3.61606e-08
4.63384e-09
6.78546e-09
4.5831e-08
5.05843e-10
2.84216e-09
3.75124e-08
-6.24801e-09
7.17517e-08
2.39275e-09
-3.0948e-09
5.78766e-09
5.12783e-08
-1.51533e-09
5.04832e-09
4.55428e-08
-7.31262e-09
3.67324e-09
4.4626e-08
2.29979e-09
2.68794e-08
6.59865e-09
-1.04153e-09
4.40395e-08
-5.08554e-09
5.5328e-08
-8.04119e-09
7.75447e-08
4.81028e-08
8.71554e-09
5.27461e-09
7.0696e-09
6.67493e-08
-1.04988e-08
-3.27534e-09
4.22278e-09
4.24902e-08
-2.52811e-09
1.556e-09
9.87453e-09
3.56896e-08
6.03696e-10
5.65333e-09
3.21459e-08
-1.33623e-08
-3.21275e-09
1.53344e-09
8.85372e-09
2.61041e-08
2.5093e-09
7.63715e-09
4.14407e-08
-8.26108e-09
3.44936e-09
5.4708e-08
5.74994e-09
6.30279e-08
3.66093e-10
-5.21285e-09
8.86958e-09
5.61335e-08
-1.01952e-09
8.94476e-09
4.00419e-08
-5.56597e-09
7.38399e-09
4.52379e-08
4.78469e-09
2.33279e-08
-1.04916e-09
-1.51632e-08
1.00603e-07
-6.15343e-09
6.25815e-08
-1.10388e-08
8.96916e-08
3.95784e-08
1.59724e-09
4.79634e-09
7.07294e-09
4.96802e-08
1.10704e-09
2.11548e-09
2.7293e-10
4.60093e-08
-1.11119e-09
-3.04033e-09
7.62745e-10
4.42894e-08
-4.20674e-09
3.45095e-09
3.3054e-08
-1.39341e-09
-6.00591e-09
-3.67672e-09
9.96312e-09
3.28105e-08
3.15986e-09
9.77545e-09
2.51017e-08
-3.42513e-09
1.08935e-08
5.11623e-08
1.06764e-08
5.19738e-08
4.03598e-10
-1.98488e-09
2.28828e-08
4.39509e-08
-3.85722e-09
9.29997e-09
4.23897e-08
2.44886e-09
1.88539e-08
3.09714e-08
2.21636e-09
3.91394e-08
-4.90266e-09
-3.64856e-09
1.42147e-07
-1.60159e-10
5.81952e-08
-4.43863e-09
5.36974e-08
4.71637e-08
-9.68007e-09
1.47408e-09
6.118e-09
3.99321e-08
8.63923e-10
-9.7653e-10
-2.14178e-10
4.99714e-08
-1.2973e-09
3.6968e-09
-5.69965e-09
4.56846e-08
-3.68851e-10
-5.47728e-09
5.23895e-08
-7.65806e-09
-2.50336e-09
-3.35962e-09
-7.45741e-09
5.48775e-08
-3.05192e-09
4.56124e-09
2.00186e-08
2.561e-09
3.48004e-09
3.63697e-08
6.57313e-09
3.78043e-08
4.68009e-09
9.12236e-09
-1.40229e-09
3.399e-08
-3.02275e-09
5.21803e-10
5.85743e-08
3.92069e-10
2.16019e-09
2.88764e-08
4.94213e-09
4.25132e-08
-1.35069e-09
3.95391e-09
4.90462e-08
8.50063e-09
2.70471e-08
3.30307e-09
6.3996e-08
5.55493e-08
-6.20023e-09
4.45503e-10
-6.97742e-09
4.84285e-08
3.21093e-09
-2.23333e-09
-1.07976e-09
5.2828e-08
9.02002e-10
5.36483e-09
1.67347e-09
3.21331e-08
4.27989e-09
-3.19442e-09
5.81193e-08
-6.53929e-10
3.48336e-09
5.48669e-09
-7.45832e-09
6.00336e-08
1.41627e-09
-1.60826e-09
2.46175e-08
2.67421e-10
-8.92754e-10
4.00848e-08
6.40104e-10
3.28659e-08
1.37125e-09
1.00799e-08
-1.5131e-08
3.27222e-08
2.89629e-09
-2.81008e-09
6.69597e-08
1.54334e-09
6.26559e-10
2.87101e-08
9.68264e-10
4.40369e-08
-3.08455e-10
8.25343e-09
1.8815e-08
4.40715e-09
4.12333e-08
2.34956e-09
1.12378e-07
6.85222e-08
1.51983e-10
2.07519e-09
-7.50174e-10
4.75468e-08
2.7542e-10
3.60927e-09
3.12845e-09
4.71922e-08
9.73208e-10
-5.82075e-10
-1.03931e-09
3.76641e-08
-3.00605e-10
6.39543e-10
5.35269e-08
1.39959e-09
1.97102e-09
4.34625e-09
1.86807e-09
5.06522e-08
8.75508e-10
-3.27749e-09
3.44944e-08
3.12011e-09
-6.00461e-10
3.74014e-08
-1.11987e-09
3.60724e-08
1.67293e-09
-9.41736e-10
3.11525e-09
3.63647e-08
4.43015e-09
5.22356e-10
5.77882e-08
2.153e-09
-1.24516e-08
4.28387e-08
-3.31901e-09
4.31124e-08
5.27678e-09
-2.17132e-09
2.87247e-08
-8.6672e-09
4.60759e-08
5.63098e-09
9.61816e-08
6.58257e-08
6.04876e-09
2.79532e-10
-8.77392e-09
5.10858e-08
4.67761e-09
8.20053e-10
-5.16386e-09
4.7207e-08
4.608e-09
1.40661e-09
-6.14109e-09
3.90276e-08
4.19037e-09
-4.67058e-09
4.98788e-08
5.1446e-09
4.58021e-09
2.58515e-09
-1.22256e-08
5.31128e-08
1.30437e-09
-6.54548e-09
3.71562e-08
2.02774e-09
-7.23243e-09
3.7769e-08
-3.73553e-09
3.29749e-08
4.18998e-09
3.08272e-09
-1.84672e-08
3.8114e-08
2.7216e-09
-4.46968e-09
5.60733e-08
4.79197e-09
-1.08533e-08
4.43887e-08
-4.77926e-09
4.23429e-08
6.60464e-09
1.33006e-08
-4.05611e-08
4.51387e-09
4.78997e-08
1.05637e-08
7.72582e-08
6.03654e-08
9.77946e-09
3.71347e-10
3.94393e-09
4.85793e-08
-1.95234e-09
6.85293e-10
9.10406e-10
4.70647e-08
-1.08244e-09
-3.24126e-09
-4.83202e-10
4.40343e-08
-5.97341e-10
2.19051e-09
4.66989e-08
-3.8709e-10
-1.86492e-09
4.7104e-10
8.14001e-09
4.83222e-08
-1.00688e-09
-4.60754e-09
4.41515e-08
-1.46191e-09
-5.60467e-09
4.33455e-08
-4.83361e-09
4.18839e-08
-3.34655e-09
-2.47831e-09
1.11063e-08
4.56342e-08
-1.14102e-09
-9.55659e-10
5.10837e-08
4.99535e-10
-9.95433e-09
4.70974e-08
-7.36156e-09
4.55794e-08
-2.09174e-10
-2.03831e-08
2.91847e-08
-1.54574e-08
4.89808e-08
-9.0368e-10
5.73933e-08
5.26517e-08
1.96044e-09
8.91167e-10
5.77077e-10
4.8049e-08
-4.33297e-10
1.23002e-09
-8.13932e-10
4.73298e-08
2.0988e-10
-2.7506e-10
-1.41587e-09
4.61262e-08
8.28718e-10
-1.02246e-09
4.66674e-08
1.43775e-09
-6.58826e-10
5.77559e-10
1.10869e-09
4.75487e-08
2.81903e-10
-3.10186e-09
4.67352e-08
-3.03238e-10
-3.47243e-09
4.59873e-08
-3.28708e-09
4.55709e-08
-1.72534e-09
-1.2728e-10
1.46195e-09
4.74408e-08
1.09879e-10
-1.3074e-09
4.90523e-08
2.33662e-10
-4.33419e-09
4.78357e-08
-3.78833e-09
4.7189e-08
-8.74316e-10
-5.38925e-09
4.39167e-08
-4.49303e-09
4.8579e-08
-6.4365e-10
5.07813e-08
4.9763e-08
-3.77567e-10
4.63301e-10
1.43913e-10
4.81452e-08
-1.9484e-10
2.72352e-10
-4.12678e-10
4.78098e-08
1.23646e-10
-6.1394e-10
-6.47565e-10
4.73073e-08
3.52638e-10
-4.54033e-10
4.73473e-08
3.24909e-10
-1.16462e-09
1.42769e-10
2.10212e-11
4.7938e-08
-3.06382e-11
-1.27989e-09
4.77758e-08
-5.58855e-10
-1.52936e-09
4.73975e-08
-1.38884e-09
4.72655e-08
-1.31827e-09
-9.02723e-11
-3.85676e-11
4.81878e-08
-1.70835e-10
-7.7093e-10
4.8624e-08
-4.02743e-10
-1.68129e-09
4.82197e-08
-1.63643e-09
4.79853e-08
-9.51111e-10
-1.70726e-09
4.72551e-08
-1.62034e-09
4.86073e-08
-8.01254e-10
4.91478e-08
4.89661e-08
-9.02456e-10
2.98571e-10
-7.63244e-11
4.8256e-08
1.32846e-11
2.00639e-10
-3.52861e-10
4.80811e-08
1.79497e-10
-1.78708e-10
-5.33577e-10
4.78272e-08
3.92894e-10
-5.86584e-10
4.77519e-08
5.05543e-10
-5.02291e-10
9.14728e-11
-2.2508e-10
4.82524e-08
-7.42605e-12
-6.58517e-10
4.81804e-08
-3.05289e-10
-8.33516e-10
4.79954e-08
-8.6069e-10
4.79132e-08
-6.78659e-10
-7.76113e-11
-1.58965e-10
4.84212e-08
-1.61691e-10
-4.78576e-10
4.85281e-08
-3.45724e-10
-8.06984e-10
4.83773e-08
-8.6221e-10
4.82849e-08
-6.43638e-10
-6.39734e-10
4.81974e-08
-6.53171e-10
4.86047e-08
-5.53597e-10
4.87303e-08
4.86965e-08
-7.12334e-10
1.45872e-10
-1.19923e-10
4.83572e-08
7.84744e-11
5.65401e-11
-2.41514e-10
4.82597e-08
1.52264e-10
-1.51115e-10
-3.33056e-10
4.81129e-08
2.55098e-10
-3.6639e-10
4.80127e-08
2.91445e-10
-3.36984e-10
4.63528e-11
-2.00171e-10
4.84248e-08
-3.65121e-11
-3.56695e-10
4.83784e-08
-2.07857e-10
-4.42989e-10
4.82767e-08
-4.67669e-10
4.82029e-08
-3.96149e-10
-6.03431e-11
-1.64312e-10
4.85289e-08
-1.2854e-10
-3.06623e-10
4.85463e-08
-2.43191e-10
-4.28392e-10
4.84774e-08
-4.57537e-10
4.84189e-08
-3.87367e-10
-2.54141e-10
4.8501e-08
-2.97093e-10
4.86214e-08
-3.33043e-10
4.86395e-08
4.86143e-08
-4.33502e-10
7.25536e-11
-1.16286e-10
4.84279e-08
8.78093e-11
1.64484e-11
-1.7087e-10
4.83643e-08
1.2251e-10
-9.00397e-11
-2.20188e-10
4.82612e-08
1.78391e-10
-2.46425e-10
4.81478e-08
2.04005e-10
-1.82789e-10
2.15277e-11
-1.53227e-10
4.85157e-08
-3.41887e-11
-2.16863e-10
4.84802e-08
-1.25201e-10
-2.61458e-10
4.8409e-08
-2.80011e-10
4.83281e-08
-2.16745e-10
-3.5433e-11
-1.44931e-10
4.85903e-08
-8.22563e-11
-2.07011e-10
4.85833e-08
-1.48546e-10
-2.54585e-10
4.85368e-08
-2.6743e-10
4.84757e-08
-2.18027e-10
-1.05971e-10
4.86125e-08
-1.42741e-10
4.86418e-08
-1.84238e-10
4.86275e-08
4.85855e-08
-2.37297e-10
3.53908e-11
-9.5974e-11
4.84759e-08
7.70603e-11
-3.20932e-13
-1.2145e-10
4.84276e-08
9.39593e-11
-5.61875e-11
-1.47298e-10
4.83415e-08
1.22924e-10
-1.62392e-10
4.82213e-08
1.36021e-10
-1.03244e-10
7.7261e-12
-1.14736e-10
4.85682e-08
-2.72722e-11
-1.43367e-10
4.85371e-08
-7.5925e-11
-1.65534e-10
4.84759e-08
-1.75966e-10
4.83867e-08
-1.2087e-10
-1.95625e-11
-1.18319e-10
4.86306e-08
-5.02175e-11
-1.44583e-10
4.86153e-08
-8.75185e-11
-1.63863e-10
4.85724e-08
-1.68371e-10
4.85026e-08
-1.22116e-10
-4.73339e-11
4.86616e-08
-7.36109e-11
4.86613e-08
-1.01521e-10
4.86338e-08
4.85764e-08
-1.28788e-10
1.75356e-11
-7.54779e-11
4.85081e-08
6.20501e-11
-4.97274e-12
-8.74055e-11
4.84671e-08
7.04713e-11
-3.52601e-11
-1.00593e-10
4.83872e-08
8.51986e-11
-1.0862e-10
4.82622e-08
9.1228e-11
-5.88759e-11
3.08016e-12
-8.69552e-11
4.86e-08
-1.85392e-11
-1.00013e-10
4.85713e-08
-4.50539e-11
-1.10757e-10
4.85125e-08
-1.15653e-10
4.84169e-08
-6.83232e-11
-1.01876e-11
-9.22358e-11
4.8657e-08
-2.95697e-11
-1.03619e-10
4.86384e-08
-5.10212e-11
-1.11394e-10
4.85945e-08
-1.12544e-10
4.8517e-08
-6.86682e-11
-2.29309e-11
4.86876e-08
-3.95187e-11
4.86766e-08
-5.58568e-11
4.8642e-08
4.85745e-08
-7.00744e-11
8.41716e-12
-5.77944e-11
4.85301e-08
4.81114e-11
-5.41132e-12
-6.36193e-11
4.84922e-08
5.23556e-11
-2.25831e-11
-6.98817e-11
4.84147e-08
5.96603e-11
-7.36804e-11
4.82864e-08
6.17866e-11
-3.49661e-11
1.34166e-12
-6.57136e-11
4.86205e-08
-1.204e-11
-7.17999e-11
4.85927e-08
-2.67433e-11
-7.66698e-11
4.85339e-08
-7.87356e-11
4.8434e-08
-3.88259e-11
-5.10358e-12
-7.04909e-11
4.86743e-08
-1.71385e-11
-7.55519e-11
4.86542e-08
-2.91183e-11
-7.85228e-11
4.86084e-08
-7.81711e-11
4.85258e-08
-3.8502e-11
-1.07505e-11
4.87029e-08
-2.1164e-11
4.86877e-08
-3.05853e-11
4.86489e-08
4.85751e-08
-3.82049e-11
4.28779e-12
-4.35995e-11
4.85452e-08
3.64994e-11
-4.34196e-12
-4.64218e-11
4.85087e-08
3.86187e-11
-1.40999e-11
-4.9325e-11
4.84318e-08
4.20556e-11
-5.07142e-11
4.83015e-08
4.24176e-11
-2.09702e-11
7.37362e-13
-4.93429e-11
4.8634e-08
-7.55405e-12
-5.21349e-11
4.86066e-08
-1.62215e-11
-5.4142e-11
4.85473e-08
-5.47941e-11
4.84445e-08
-2.27312e-11
-2.34271e-12
-5.3186e-11
4.86857e-08
-9.77568e-12
-5.53545e-11
4.86649e-08
-1.67641e-11
-5.62611e-11
4.86175e-08
-5.54179e-11
4.85316e-08
-2.2014e-11
-4.78183e-12
4.87125e-08
-1.11323e-11
4.86952e-08
-1.66644e-11
4.8654e-08
4.85764e-08
-2.09146e-11
2.31226e-12
-3.23682e-11
4.85556e-08
2.71763e-11
-3.08455e-12
-3.36892e-11
4.85197e-08
2.81977e-11
-8.82192e-12
-3.49082e-11
4.84428e-08
2.96965e-11
-3.52813e-11
4.83113e-08
2.93324e-11
-1.27187e-11
5.38645e-13
-3.65254e-11
4.86431e-08
-4.55953e-12
-3.78051e-11
4.86158e-08
-9.59385e-12
-3.8553e-11
4.85559e-08
-3.84417e-11
4.84514e-08
-1.34737e-11
-9.37504e-13
-3.944e-11
4.86932e-08
-5.4851e-12
-4.03569e-11
4.86719e-08
-9.66063e-12
-4.04436e-11
4.86235e-08
-3.94937e-11
4.85356e-08
-1.27393e-11
-1.9839e-12
4.87184e-08
-5.82009e-12
4.87002e-08
-9.07954e-12
4.86575e-08
4.85777e-08
-1.15689e-11
1.29368e-12
-2.34911e-11
4.85627e-08
1.9774e-11
-2.09203e-12
-2.40867e-11
4.85271e-08
2.02376e-11
-5.55382e-12
-2.45077e-11
4.845e-08
2.08139e-11
-2.44872e-11
4.83178e-08
2.02196e-11
-7.80362e-12
4.05184e-13
-2.64698e-11
4.86491e-08
-2.69337e-12
-2.70496e-11
4.86218e-08
-5.64084e-12
-2.7237e-11
4.85614e-08
-2.68908e-11
4.84561e-08
-7.99826e-12
-3.07961e-13
-2.85404e-11
4.8698e-08
-3.01434e-12
-2.89388e-11
4.86764e-08
-5.39908e-12
-2.87952e-11
4.86274e-08
-2.79042e-11
4.85384e-08
-7.31678e-12
-7.84178e-13
4.87219e-08
-3.02156e-12
4.87032e-08
-4.87614e-12
4.86597e-08
4.85788e-08
-6.3224e-12
7.45737e-13
-1.6464e-11
4.85672e-08
1.38862e-11
-1.36326e-12
-1.67232e-11
4.85318e-08
1.4071e-11
-3.45916e-12
-1.68072e-11
4.84547e-08
1.42465e-11
-1.66351e-11
4.8322e-08
1.36472e-11
-4.76809e-12
2.97658e-13
-1.85434e-11
4.86529e-08
-1.57083e-12
-1.88037e-11
4.86256e-08
-3.30659e-12
-1.8778e-11
4.8565e-08
-1.83902e-11
4.84591e-08
-4.71311e-12
-5.13337e-14
-1.99055e-11
4.87009e-08
-1.64024e-12
-2.01004e-11
4.86792e-08
-3.02173e-12
-1.99306e-11
4.86298e-08
-1.92396e-11
4.85403e-08
-4.12136e-12
-2.90554e-13
4.87238e-08
-1.56429e-12
4.8705e-08
-2.62779e-12
4.8661e-08
4.85794e-08
-3.45893e-12
5.37623e-13
-1.08165e-11
4.857e-08
9.12233e-12
-7.35841e-13
-1.09199e-11
4.85347e-08
9.17523e-12
-1.97476e-12
-1.08861e-11
4.84575e-08
9.19589e-12
-1.07073e-11
4.83246e-08
8.70579e-12
-2.71528e-12
3.13646e-13
-1.21957e-11
4.86551e-08
-7.85101e-13
-1.23012e-11
4.86279e-08
-1.79585e-12
-1.22119e-11
4.85672e-08
-1.18913e-11
4.8461e-08
-2.68373e-12
1.52096e-13
-1.30139e-11
4.87025e-08
-7.61631e-13
-1.312e-11
4.86808e-08
-1.56217e-12
-1.2977e-11
4.86313e-08
-1.24876e-11
4.85414e-08
-2.27305e-12
2.20006e-14
4.87247e-08
-6.78585e-13
4.87058e-08
-1.27402e-12
4.86617e-08
4.85798e-08
-1.7766e-12
7.20572e-13
-6.19228e-12
4.85714e-08
5.19789e-12
1.56568e-14
-6.21104e-12
4.85362e-08
5.18088e-12
-6.7705e-13
-6.14308e-12
4.84591e-08
5.1502e-12
-6.00001e-12
4.83262e-08
4.81574e-12
-1.12954e-12
6.25952e-13
-7.00507e-12
4.86562e-08
2.26867e-14
-7.02176e-12
4.86291e-08
-5.44067e-13
-6.92927e-12
4.85684e-08
-6.70525e-12
4.84621e-08
-1.10573e-12
5.73244e-13
-7.43878e-12
4.87033e-08
7.08041e-14
-7.48972e-12
4.86817e-08
-3.83484e-13
-7.38748e-12
4.86321e-08
-7.08634e-12
4.85421e-08
-8.44419e-13
5.05208e-13
4.87251e-08
1.3394e-13
4.87062e-08
-2.00812e-13
4.86621e-08
4.85801e-08
-5.53306e-13
1.25412e-12
-2.87097e-12
2.37026e-12
8.92364e-13
-2.81912e-12
2.29364e-12
5.13681e-13
-2.72369e-12
2.19863e-12
-2.59859e-12
2.0107e-12
1.50976e-13
1.25539e-12
-3.27817e-12
9.40776e-13
-3.24155e-12
6.26996e-13
-3.15524e-12
-2.98875e-12
2.12675e-13
1.26768e-12
-3.52816e-12
9.95846e-13
-3.5205e-12
7.11181e-13
-3.44289e-12
-3.2509e-12
3.61295e-13
1.26556e-12
1.04909e-12
7.92092e-13
5.41864e-13
-6.85574e-09
-1.61451e-08
1.10594e-07
-8.18659e-11
3.1845e-09
5.71006e-08
5.19706e-09
1.74208e-08
3.56726e-08
-1.29719e-08
6.61533e-08
-2.47047e-10
1.39771e-09
1.57529e-09
4.43135e-08
5.31329e-09
-8.32725e-09
6.75199e-08
-1.58203e-09
-5.77932e-09
8.28838e-08
-2.55774e-09
2.96397e-08
-2.03538e-10
-4.32764e-09
-2.75604e-09
6.76133e-08
7.89953e-09
8.30238e-10
3.25013e-08
-1.53063e-09
-1.11225e-08
6.09365e-08
-9.76459e-09
4.39615e-08
-3.09447e-09
-6.19313e-09
6.03545e-08
3.07511e-09
3.79353e-08
-6.75437e-10
3.3551e-08
2.04245e-08
-2.31978e-10
5.8353e-09
1.45315e-08
7.72403e-08
2.42522e-09
-1.20681e-09
6.30012e-08
2.86603e-09
-1.28385e-08
4.72714e-08
-8.86945e-10
7.03381e-08
-1.97703e-09
-7.62956e-10
6.42829e-09
3.98185e-08
-1.71614e-09
7.52856e-09
5.97377e-08
6.95761e-09
7.56058e-09
5.3811e-08
-5.5467e-09
4.10904e-08
1.66678e-10
1.08982e-09
4.38091e-10
6.73271e-08
-2.84952e-09
1.15341e-09
4.28159e-08
2.31135e-09
1.38308e-09
6.19531e-08
1.25587e-08
2.70729e-08
1.09461e-09
-4.24233e-10
4.70655e-08
-2.52425e-09
4.12668e-08
8.0907e-09
1.67019e-08
4.49619e-08
2.18624e-09
6.29886e-09
1.12116e-08
3.96282e-08
2.13297e-09
3.32578e-09
6.41974e-08
2.62845e-09
4.5786e-10
4.72689e-08
-2.51873e-09
7.52863e-08
6.32377e-10
2.08785e-09
5.08755e-09
3.86061e-08
5.82214e-10
5.62937e-09
5.89398e-08
3.46258e-09
1.22549e-09
5.0163e-08
-2.42397e-09
4.26912e-08
1.767e-09
2.60859e-09
6.22833e-09
5.84916e-08
-1.98787e-09
2.01992e-09
5.10218e-08
2.80948e-09
6.87928e-09
5.1502e-08
4.21491e-09
2.26501e-08
5.93366e-10
3.32171e-09
3.73568e-08
8.64008e-10
4.32164e-08
7.03752e-10
2.43452e-08
3.72135e-08
-6.95231e-10
3.76321e-10
4.42134e-09
3.6204e-08
-2.45312e-09
-1.37248e-09
6.82435e-08
-3.49849e-09
-1.56057e-09
5.0111e-08
-1.16636e-08
8.36188e-08
5.68087e-10
-4.72452e-09
-2.79243e-09
5.40075e-08
-3.84525e-09
7.6999e-10
5.59181e-08
-2.15937e-09
2.18347e-09
4.47331e-08
4.80928e-09
2.20699e-08
1.98909e-09
-3.45769e-09
-3.42949e-09
6.48598e-08
-1.6132e-09
1.92848e-09
4.80189e-08
-4.04508e-10
2.30019e-09
5.01766e-08
2.36392e-09
2.33163e-08
1.37468e-09
1.01494e-09
3.21558e-08
2.79909e-11
4.50206e-08
-1.73494e-10
2.26401e-08
4.04372e-08
-2.42673e-09
-3.1962e-09
1.80594e-09
3.97834e-08
-6.08134e-09
-9.67659e-10
7.09785e-08
-2.68628e-09
1.26864e-09
4.51916e-08
1.48376e-08
6.38785e-08
3.00052e-09
-4.33522e-09
-9.55626e-09
7.65519e-08
-1.56793e-09
3.87593e-09
4.83072e-08
1.07088e-09
5.59949e-09
3.77635e-08
2.7791e-09
3.34837e-08
1.71557e-09
-3.0759e-09
2.64478e-09
5.25644e-08
-5.18304e-09
8.08255e-10
5.31937e-08
1.95241e-09
4.42709e-09
4.42136e-08
2.95657e-09
2.38363e-08
1.255e-09
-1.30734e-09
3.66726e-08
4.54603e-10
4.27696e-08
5.82772e-10
2.65702e-08
3.592e-08
3.98533e-10
-1.15942e-08
-3.78661e-09
5.62428e-08
-1.15469e-09
1.74955e-08
4.36967e-08
3.3934e-09
3.68364e-09
3.68074e-08
4.26914e-09
5.66075e-08
7.05508e-09
-1.90536e-09
3.60927e-09
7.32618e-08
-5.1519e-09
3.75913e-09
6.52901e-08
2.49941e-09
8.44158e-09
2.53542e-08
1.28084e-08
2.18028e-08
5.64116e-09
-1.73807e-09
1.97128e-09
5.82609e-08
-1.83057e-09
-3.29417e-10
5.73747e-08
1.90759e-09
4.09953e-09
4.48175e-08
-1.42136e-10
4.06679e-08
-1.97354e-09
-2.2713e-09
5.25271e-08
9.60006e-10
4.01109e-08
-2.91141e-10
3.62007e-08
3.43491e-08
4.83659e-10
4.95947e-10
-2.62066e-09
5.77167e-08
-1.09034e-09
-2.59067e-09
4.73067e-08
-1.66151e-09
7.9693e-10
3.68775e-08
4.4309e-09
4.90318e-08
7.81147e-10
7.5475e-11
-8.70083e-10
7.08822e-08
2.40197e-10
-9.82288e-10
6.35168e-08
-1.9115e-09
-3.7272e-09
3.203e-08
-4.95124e-09
3.08955e-08
-1.6221e-09
5.93924e-10
-5.27007e-10
6.01494e-08
1.16634e-09
-5.9541e-10
5.64153e-08
-6.87557e-10
-4.60502e-10
4.34045e-08
-3.62221e-09
3.88743e-08
-2.23152e-10
2.58793e-09
5.27076e-08
1.40433e-09
4.16721e-08
-3.62968e-10
3.72068e-08
3.09875e-08
7.75887e-10
-3.62605e-10
-2.52798e-09
5.75573e-08
-4.92327e-10
-4.93021e-09
5.23664e-08
-1.65122e-09
-3.71965e-09
4.1756e-08
-1.38396e-09
4.98609e-08
-1.0961e-09
-1.34958e-09
-4.0119e-09
7.10553e-08
-6.29308e-11
-4.15509e-09
6.14549e-08
-8.12436e-10
-5.23089e-09
3.42908e-08
-6.25351e-09
3.62727e-08
-1.31989e-09
-7.49762e-10
-4.95029e-09
6.20588e-08
-1.25792e-10
-2.95835e-09
5.45944e-08
-9.74783e-10
-4.58327e-09
4.36058e-08
-4.44319e-09
3.64427e-08
-3.52979e-10
-2.63995e-11
5.23278e-08
-3.49675e-10
4.36446e-08
-7.66303e-10
3.72303e-08
3.11021e-08
-1.79526e-10
2.99547e-09
-5.25785e-09
6.65191e-08
-4.90798e-11
-3.61764e-09
5.90284e-08
-4.63039e-09
-2.16841e-09
4.85057e-08
2.1871e-09
4.51419e-08
-2.098e-09
2.08109e-09
-1.5212e-09
6.6273e-08
2.24538e-09
-1.11318e-09
5.8786e-08
-3.92804e-09
-6.21361e-09
4.45096e-08
-1.90293e-09
3.86921e-08
-2.25698e-09
1.65374e-09
1.15168e-09
5.94596e-08
8.85788e-10
1.23153e-09
5.30176e-08
-3.03084e-09
-1.81144e-09
4.31204e-08
-1.11509e-09
3.38607e-08
-1.23618e-09
1.68379e-09
5.14889e-08
1.41049e-10
4.53363e-08
-2.30079e-09
3.72633e-08
2.79427e-08
-6.43597e-10
2.60369e-09
-2.35016e-09
6.90975e-08
1.15209e-09
-2.39427e-09
6.28741e-08
-1.50891e-09
-2.35954e-09
5.35263e-08
-8.55681e-10
4.59953e-08
-1.50636e-09
2.08318e-09
-9.58446e-10
6.38247e-08
1.7363e-09
-1.24653e-09
5.7985e-08
-1.22475e-09
-3.02526e-09
4.81366e-08
-1.52339e-09
3.9597e-08
-1.46136e-09
1.80898e-09
1.50841e-10
5.76227e-08
1.41554e-09
-2.03062e-10
5.23676e-08
-7.64599e-10
-1.46269e-09
4.37381e-08
-1.39246e-09
3.40917e-08
-1.12604e-09
1.58865e-09
5.06547e-08
1.02577e-09
4.5906e-08
-4.76536e-10
3.81317e-08
2.83624e-08
-8.50896e-10
1.26033e-09
-1.3736e-10
6.9385e-08
2.56898e-10
-2.36401e-10
6.41137e-08
-1.04328e-09
-3.83743e-10
5.52102e-08
3.24141e-10
4.54627e-08
-8.34506e-10
9.96933e-10
-1.13972e-10
6.36542e-08
3.47634e-10
-3.15968e-10
5.87138e-08
-9.72902e-10
-9.18718e-10
4.99922e-08
-1.5691e-10
3.99187e-08
-8.13246e-10
8.29184e-10
1.03202e-10
5.73403e-08
2.73385e-10
-1.22666e-10
5.27301e-08
-8.16642e-10
-6.27057e-10
4.45366e-08
-3.38503e-10
3.41627e-08
-7.05765e-10
6.49286e-10
5.06147e-08
1.82764e-10
4.63736e-08
-6.31563e-10
3.86717e-08
2.83208e-08
-6.03528e-10
7.33379e-10
-1.77299e-10
6.95257e-08
2.98204e-10
-2.70594e-10
6.48193e-08
-3.59097e-10
-4.36028e-10
5.63035e-08
-1.98372e-10
4.57906e-08
-4.88483e-10
6.16442e-10
-1.07956e-10
6.34984e-08
3.05173e-10
-2.32051e-10
5.89865e-08
-3.47878e-10
-5.12737e-10
5.07222e-08
-2.92799e-10
4.01427e-08
-4.77245e-10
5.2712e-10
-1.45264e-11
5.7188e-08
2.66704e-10
-1.55741e-10
5.29143e-08
-2.9397e-10
-4.24673e-10
4.50093e-08
-3.95303e-10
3.44228e-08
-4.51309e-10
4.22101e-10
5.06115e-08
2.00473e-10
4.6619e-08
-2.41403e-10
3.90819e-08
2.8606e-08
-4.16274e-10
3.37884e-10
-5.90051e-11
6.96081e-08
1.06724e-10
-8.98919e-11
6.51403e-08
-2.22712e-10
-1.56925e-10
5.67899e-08
-4.50582e-11
4.58898e-08
-2.76655e-10
2.97371e-10
-7.61276e-11
6.35252e-08
9.60524e-11
-1.26675e-10
5.92246e-08
-2.25328e-10
-2.47612e-10
5.11345e-08
-1.46207e-10
4.02948e-08
-2.75949e-10
2.47969e-10
-6.77144e-11
5.72043e-08
7.36543e-11
-1.33198e-10
5.30952e-08
-2.11161e-10
-2.55754e-10
4.53024e-08
-2.30054e-10
3.45671e-08
-2.7141e-10
1.92103e-10
5.06812e-08
4.05884e-11
4.67896e-08
-1.89662e-10
3.93116e-08
2.87383e-08
-2.6025e-10
1.65587e-10
-4.47059e-11
6.96761e-08
4.65776e-11
-5.27591e-11
6.53121e-08
-1.16446e-10
-9.65192e-11
5.70496e-08
-5.61958e-11
4.59901e-08
-1.60372e-10
1.37637e-10
-7.13203e-11
6.35859e-08
3.06333e-11
-8.91346e-11
5.93682e-08
-1.24975e-10
-1.52187e-10
5.13461e-08
-1.13479e-10
4.03895e-08
-1.62121e-10
1.16373e-10
-7.95469e-11
5.72571e-08
1.86846e-11
-1.08258e-10
5.32122e-08
-1.24994e-10
-1.71885e-10
4.5466e-08
-1.65491e-10
3.46578e-08
-1.63414e-10
9.06106e-11
5.07417e-08
3.01068e-12
4.68915e-08
-1.18492e-10
3.94398e-08
2.88195e-08
-1.60636e-10
7.50433e-11
-3.54888e-11
6.97408e-08
1.25654e-11
-3.65346e-11
6.54113e-08
-6.87539e-11
-5.95572e-11
5.71907e-08
-3.86955e-11
4.60534e-08
-9.31302e-11
6.48078e-11
-5.84902e-11
6.3643e-08
6.51417e-12
-6.58474e-11
5.9456e-08
-7.49659e-11
-9.59043e-11
5.14643e-08
-7.76411e-11
4.04496e-08
-9.59306e-11
5.36636e-11
-7.01681e-11
5.73065e-08
-3.29198e-12
-8.38736e-11
5.32873e-08
-7.80047e-11
-1.14556e-10
4.55595e-08
-1.11496e-10
3.47126e-08
-9.88227e-11
4.04626e-11
5.07884e-08
-1.33718e-11
4.69554e-08
-7.75202e-11
3.95125e-08
2.88666e-08
-9.94117e-11
3.58273e-11
-2.6968e-11
6.97913e-08
1.23e-12
-2.70732e-11
6.54731e-08
-4.21786e-11
-3.77422e-11
5.72721e-08
-2.76255e-11
4.60948e-08
-5.57664e-11
3.00005e-11
-4.57458e-11
6.36881e-08
-4.25162e-12
-4.89237e-11
5.95123e-08
-4.71179e-11
-6.27404e-11
5.15325e-08
-5.3593e-11
4.0487e-08
-5.84024e-11
2.38085e-11
-5.64204e-11
5.73454e-08
-1.07339e-11
-6.33004e-11
5.33363e-08
-5.05001e-11
-7.76924e-11
4.56142e-08
-7.56407e-11
3.47456e-08
-6.13758e-11
1.75332e-11
5.08223e-08
-1.65094e-11
4.69966e-08
-5.14334e-11
3.9555e-08
2.8894e-08
-6.26352e-11
1.69223e-11
-2.01917e-11
6.98288e-08
-3.73007e-12
-2.00537e-11
6.5514e-08
-2.71517e-11
-2.4636e-11
5.73204e-08
-1.92129e-11
4.61214e-08
-3.44211e-11
1.37676e-11
-3.48044e-11
6.37216e-08
-7.41851e-12
-3.61071e-11
5.95497e-08
-3.05871e-11
-4.20924e-11
5.15733e-08
-3.67962e-11
4.05106e-08
-3.65208e-11
1.03256e-11
-4.39189e-11
5.73741e-08
-1.15983e-11
-4.66974e-11
5.33688e-08
-3.3521e-11
-5.33537e-11
4.56474e-08
-5.15842e-11
3.47659e-08
-3.90346e-11
5.90861e-12
5.08466e-08
-1.52118e-11
4.70233e-08
-3.45623e-11
3.95807e-08
2.89106e-08
-4.02231e-11
8.15403e-12
-1.50345e-11
6.9856e-08
-4.82298e-12
-1.46156e-11
6.55417e-08
-1.78495e-11
-1.64917e-11
5.73501e-08
-1.34183e-11
4.61388e-08
-2.17879e-11
5.89214e-12
-2.61108e-11
6.37459e-08
-7.38298e-12
-2.63601e-11
5.95748e-08
-2.01939e-11
-2.87341e-11
5.15986e-08
-2.54636e-11
4.05258e-08
-2.33644e-11
3.47585e-12
-3.3101e-11
5.73949e-08
-1.02008e-11
-3.43738e-11
5.33905e-08
-2.24778e-11
-3.71752e-11
4.5668e-08
-3.55784e-11
3.47789e-08
-2.5335e-11
1.41465e-12
5.08638e-08
-1.21785e-11
4.7041e-08
-2.34172e-11
3.95969e-08
2.8921e-08
-2.62936e-11
3.79233e-12
-1.09762e-11
6.98753e-08
-4.50451e-12
-1.05692e-11
6.55607e-08
-1.19187e-11
-1.12361e-11
5.73689e-08
-9.33901e-12
4.61504e-08
-1.41025e-11
2.2135e-12
-1.91777e-11
6.37631e-08
-6.19197e-12
-1.91302e-11
5.95919e-08
-1.35387e-11
-1.9837e-11
5.16147e-08
-1.76808e-11
4.05358e-08
-1.52401e-11
8.35639e-13
-2.45222e-11
5.74096e-08
-7.97177e-12
-2.50305e-11
5.34052e-08
-1.51831e-11
-2.60172e-11
4.56813e-08
-2.46808e-11
3.47873e-08
-1.6687e-11
-3.02751e-13
5.08758e-08
-9.20828e-12
4.7053e-08
-1.59548e-11
3.96073e-08
2.89278e-08
-1.73734e-11
1.68543e-12
-7.81553e-12
6.98888e-08
-3.60883e-12
-7.55489e-12
6.55737e-08
-7.97911e-12
-7.6471e-12
5.7381e-08
-6.4628e-12
4.61582e-08
-9.21834e-12
6.88806e-13
-1.37961e-11
6.37751e-08
-4.75312e-12
-1.36559e-11
5.96035e-08
-9.05104e-12
-1.36569e-11
5.16251e-08
-1.22175e-11
4.05425e-08
-1.0014e-11
-1.91016e-13
-1.77647e-11
5.74198e-08
-5.94066e-12
-1.78992e-11
5.34152e-08
-1.02502e-11
-1.81098e-11
4.569e-08
-1.70734e-11
3.47929e-08
-1.10578e-11
-8.38809e-13
5.08841e-08
-6.69717e-12
4.70611e-08
-1.08537e-11
3.96141e-08
2.89323e-08
-1.15385e-11
7.57607e-13
-5.38087e-12
6.98979e-08
-2.63392e-12
-5.21905e-12
6.55823e-08
-5.24112e-12
-5.11862e-12
5.73888e-08
-4.36944e-12
4.61633e-08
-5.96765e-12
9.47409e-14
-9.58234e-12
6.37831e-08
-3.40914e-12
-9.43017e-12
5.96112e-08
-5.96233e-12
-9.21071e-12
5.16319e-08
-8.27617e-12
4.05469e-08
-6.50735e-12
-4.80964e-13
-1.23983e-11
5.74266e-08
-4.18838e-12
-1.23864e-11
5.34217e-08
-6.79305e-12
-1.23168e-11
4.56956e-08
-1.15875e-11
3.47966e-08
-7.22915e-12
-8.58446e-13
5.08896e-08
-4.66282e-12
4.70663e-08
-7.22699e-12
3.96186e-08
2.89352e-08
-7.56385e-12
4.52404e-13
-3.4801e-12
6.99036e-08
-1.65369e-12
-3.38354e-12
6.55878e-08
-3.19555e-12
-3.25619e-12
5.73936e-08
-2.79398e-12
4.61665e-08
-3.6473e-12
2.06263e-14
-6.23221e-12
6.37882e-08
-2.15323e-12
-6.11063e-12
5.96161e-08
-3.65824e-12
-5.88208e-12
5.1636e-08
-5.30649e-12
4.05497e-08
-3.99497e-12
-3.46952e-13
-8.09126e-12
5.74309e-08
-2.64679e-12
-8.04178e-12
5.34259e-08
-4.20801e-12
-7.91237e-12
4.56991e-08
-7.44598e-12
3.47989e-08
-4.46397e-12
-5.75753e-13
5.0893e-08
-2.94111e-12
4.70696e-08
-4.49394e-12
3.96213e-08
2.8937e-08
-4.67547e-12
6.1571e-13
-1.98076e-12
6.99068e-08
-5.98821e-13
-1.92762e-12
6.55909e-08
-1.49012e-12
-1.83588e-12
5.73964e-08
-1.58299e-12
4.61685e-08
-1.82348e-12
3.64686e-13
-3.53416e-12
6.37909e-08
-8.76812e-13
-3.45592e-12
5.96188e-08
-1.75118e-12
-3.28694e-12
5.16384e-08
-2.9832e-12
4.05513e-08
-2.03071e-12
1.6099e-13
-4.59603e-12
5.74332e-08
-1.14582e-12
-4.54544e-12
5.34281e-08
-2.04365e-12
-4.43375e-12
4.5701e-08
-4.17237e-12
3.48002e-08
-2.28934e-12
4.35294e-14
5.08948e-08
-1.30293e-12
4.70714e-08
-2.20454e-12
3.96229e-08
2.89381e-08
-2.39279e-12
1.08417e-12
-9.01852e-13
4.36007e-13
-8.727e-13
-1.04527e-13
-8.12242e-13
-6.74867e-13
-4.15521e-13
9.78377e-13
-1.62677e-12
3.00499e-13
-1.58844e-12
-2.44699e-13
-1.48848e-12
-1.30959e-12
-5.35783e-13
9.04327e-13
-2.11755e-12
1.92437e-13
-2.06699e-12
-3.84754e-13
-1.97111e-12
-1.80066e-12
-6.64103e-13
8.7558e-13
1.40566e-13
-4.70689e-13
-7.25664e-13
6.80202e-09
-3.96006e-09
2.96578e-08
8.17807e-09
-4.67517e-09
3.50471e-08
1.85455e-08
-1.57237e-09
3.23212e-08
-4.03093e-10
6.48716e-08
-7.90004e-10
-2.14737e-09
3.47422e-08
1.9402e-09
3.2981e-09
3.4116e-08
1.11254e-08
3.65986e-09
3.77183e-08
-4.8284e-09
7.07375e-08
7.18608e-09
-2.15862e-09
3.3146e-08
1.22845e-09
-6.58671e-09
6.79984e-08
-2.54337e-10
-1.63417e-10
6.60355e-08
1.14103e-09
6.04143e-08
1.42628e-09
1.79341e-08
1.40755e-08
2.46444e-08
-4.78609e-10
7.85785e-08
7.31614e-08
-2.31627e-09
1.77754e-09
3.65575e-08
-2.20304e-09
1.82235e-09
3.42061e-08
-7.10355e-10
7.41766e-09
2.35776e-08
1.09117e-08
5.14888e-08
2.39261e-10
1.60181e-09
3.70714e-08
9.33418e-09
-1.16852e-09
2.80119e-08
-2.78089e-09
-4.26253e-09
6.15136e-08
-1.75328e-09
7.91817e-08
-1.23762e-09
5.64436e-09
3.69398e-08
1.41934e-09
2.13794e-09
6.2035e-08
3.06281e-09
-8.22288e-10
6.09518e-08
4.19878e-09
5.60282e-08
-1.64197e-10
4.28452e-08
9.20754e-10
3.00132e-08
1.60007e-08
5.77534e-08
9.50533e-08
-4.13501e-09
-6.39811e-10
3.74244e-08
-4.11831e-09
-5.37938e-11
3.48366e-08
4.38841e-09
3.77295e-09
1.30649e-08
-1.25128e-09
5.748e-08
-5.46568e-10
2.94493e-09
3.43993e-08
-2.10665e-09
-1.3083e-09
3.08265e-08
-1.0301e-08
1.60577e-09
7.18751e-08
9.12704e-09
5.88052e-08
-5.59932e-09
7.45558e-09
3.69793e-08
5.51941e-09
7.52684e-09
4.20812e-08
1.14419e-08
-2.6138e-10
5.68964e-08
1.8096e-09
7.30021e-08
1.13339e-09
5.71312e-08
-7.23017e-09
4.68489e-08
2.00071e-08
3.00106e-08
1.25924e-07
1.01866e-08
3.3195e-09
1.54857e-08
2.00938e-09
3.40017e-09
4.09884e-08
-5.55297e-09
1.99743e-09
2.06189e-08
4.00544e-09
4.73721e-08
1.75739e-09
3.18623e-09
3.31788e-08
-1.94906e-09
3.81035e-09
3.41228e-08
6.10879e-09
9.69621e-09
5.61185e-08
1.84989e-09
6.59308e-08
2.07082e-10
4.3944e-10
3.46164e-08
-5.79152e-10
3.62643e-09
4.30513e-08
-8.71292e-09
1.4034e-09
7.3323e-08
5.30219e-09
6.23419e-08
3.58092e-09
4.15889e-08
3.82834e-09
5.37217e-08
-2.0885e-09
5.20781e-08
1.33501e-07
5.33196e-10
6.33739e-11
1.27843e-08
6.60538e-09
-1.0044e-09
3.71756e-08
-2.15639e-09
-1.08864e-09
3.21849e-08
-4.11032e-09
5.25738e-08
-1.98303e-09
4.74015e-10
3.94313e-08
3.00161e-09
-1.14477e-09
2.92785e-08
-9.4059e-09
-4.30056e-09
7.17379e-08
-2.64903e-09
5.48438e-08