/*--------------------------------*- C++ -*----------------------------------*\
| =========                 |                                                 |
| \\      /  F ield         | OpenFOAM: The Open Source CFD Toolbox           |
|  \\    /   O peration     | Version:  2506                                  |
|   \\  /    A nd           | Website:  www.openfoam.com                      |
|    \\/     M anipulation  |                                                 |
\*---------------------------------------------------------------------------*/
FoamFile
{
    version     2.0;
    format      ascii;
    arch        "LSB;label=32;scalar=64";
    class       volVectorField;
    location    "0.08";
    object      stored_U;
}
// * * * * * * * * * * * * * * * * * * * * * * * * * * * * * * * * * * * * * //

dimensions      [0 1 -1 0 0 0 0];

internalField   nonuniform List<vector> 
1152
(
(0.00895376 -0.00503545 0.041947)
(-0.000247611 5.12446e-05 0.0208817)
(0.00056395 -0.00230009 0.0174555)
(0.00201245 -0.000882989 0.0231828)
(0.00167622 -0.000391003 0.0149768)
(-0.00105941 -0.00030536 0.0331415)
(0.000635691 0.000494244 0.00740332)
(0.00242394 0.000946175 0.0201696)
(0.00129299 0.00225279 0.0228936)
(0.00018837 0.000459686 0.0206398)
(0.000736224 0.00346588 0.021002)
(5.66522e-05 0.00133272 0.0282868)
(0.000356054 0.00326631 0.014143)
(0.00126614 0.00256959 0.0263192)
(0.00159181 0.00394144 0.0373563)
(-0.00739268 -0.0023856 0.044004)
(-0.00350145 0.00167582 0.0281835)
(-0.000181872 0.000188852 0.0261333)
(0.00160615 0.00483474 0.0421608)
(0.00236042 0.000758255 0.0159499)
(-0.00336042 0.00311279 0.0309475)
(0.000305872 0.00293703 0.0231103)
(0.00263514 0.00347679 0.0354524)
(0.0024516 -0.000687889 0.0516226)
(-0.00325668 0.00397155 0.0385126)
(-0.000450522 0.00387928 0.0333825)
(-0.00248582 0.000855755 0.0276421)
(0.000130255 -0.00038861 0.0212526)
(-0.000303267 0.00137424 0.0189446)
(-0.00148728 0.000779958 0.0171351)
(-0.00152726 0.000103173 0.00298814)
(0.00143145 0.00370736 0.0244159)
(0.0031407 0.00298853 0.0681769)
(-0.000431886 0.00114505 0.0234079)
(-0.000203042 0.00272778 0.0346284)
(2.21805e-05 0.00105815 0.00587578)
(-0.00100161 0.00334449 0.0251337)
(0.00207332 0.00306731 0.0451949)
(-0.00108561 0.00266131 0.0213509)
(-0.00259423 0.000993011 0.0478397)
(-0.00172927 0.00350053 0.028337)
(-0.00196486 0.00264685 0.0322228)
(-0.00200229 0.0014451 0.038233)
(-0.00109298 0.00173576 0.0225936)
(0.000774858 -0.0116412 0.0536501)
(-0.00234646 -0.00064664 0.0617862)
(-0.00297901 0.000595096 0.0668337)
(-0.000449903 0.00162712 0.0454639)
(-0.000809096 0.00226913 0.0321721)
(0.00270892 -0.000479934 0.0447605)
(-0.000438429 0.00112084 0.0200189)
(-0.00488687 0.00162461 0.0297301)
(-0.000639057 0.00268322 0.0208046)
(-0.000975249 0.00185901 0.0204892)
(0.00076762 0.00213432 0.0570753)
(-0.000548347 0.00583339 0.0408484)
(0.00173345 0.00748046 0.0541519)
(-0.00109191 0.00413278 0.0303713)
(0.00049353 0.00471419 0.0355282)
(-0.000192734 0.00218143 0.0200947)
(-0.000489868 0.000321847 0.00711183)
(-0.00143042 0.00437745 0.0287102)
(0.000262245 0.0143531 0.0449437)
(-0.000902212 -0.000246093 0.0129742)
(-0.000195661 0.00224278 0.0475489)
(0.000135031 0.00034711 0.0283258)
(0.000716277 -0.00276281 0.0488928)
(-3.12458e-05 -0.000251948 0.0260585)
(0.000211722 -0.000857117 0.0332342)
(-0.00217204 0.00101397 0.0247431)
(-0.000524178 0.000434202 0.0222363)
(0.00266526 -0.000581858 0.0428341)
(0.0014955 -0.00151165 0.0205432)
(0.00147919 -0.00186205 0.0439288)
(-0.000439587 0.00117078 0.0187878)
(2.88982e-05 0.00289274 0.044232)
(-0.00049375 0.0152925 0.0573812)
(2.49341e-05 0.000562679 0.00692822)
(0.00518472 0.00139005 0.0625494)
(-0.00118598 0.0037409 0.0527813)
(0.00127168 -0.00121168 0.0132077)
(-0.00178094 -0.000674695 0.0329509)
(0.000519491 -0.000564417 0.0176904)
(0.00418091 -0.00165156 0.0361002)
(0.0043163 -0.00486654 0.0359397)
(0.000771244 -8.20192e-05 0.0107411)
(-0.0002805 0.000572753 0.0260027)
(0.000287805 -0.000109406 0.00729453)
(0.00157231 -0.0051271 0.0243408)
(0.00372507 -0.000608485 0.0356018)
(0.00111551 0.000568232 0.0216321)
(0.000393987 0.000755559 0.0155752)
(0.00248838 -0.000915426 0.0189045)
(0.00248716 -0.000811705 0.0114649)
(0.00168818 -0.00756978 0.0233633)
(0.000273737 -0.000821919 0.0210293)
(0.000690449 0.000250079 0.0200617)
(0.000981145 0.00101451 0.0254624)
(0.000701336 -6.88724e-05 0.016252)
(-0.000223865 0.000311697 0.0285551)
(-0.00102813 0.000810326 0.0267612)
(0.000802508 0.000107695 0.0117077)
(0.000423792 7.22325e-05 0.020409)
(0.000733636 0.000259685 0.0125108)
(4.46716e-05 0.0020843 0.0153671)
(0.000222016 -0.000493515 0.0309238)
(0.000962644 -0.000439386 0.0143996)
(0.000973704 -0.000167767 0.020852)
(0.000456802 0.000853073 0.00869198)
(-0.00330064 0.000771423 0.0178606)
(-0.002104 -0.0037413 0.0482525)
(0.00193389 -0.000340217 0.0304516)
(-6.44939e-05 -0.00127326 0.0314663)
(0.000173278 -0.000866545 0.029959)
(-2.03516e-05 -0.00105162 0.0234186)
(0.000472372 -0.00117841 0.0327389)
(0.000813101 -0.00178817 0.0324455)
(0.000465169 -0.000936509 0.0180445)
(-4.42631e-06 -0.00100001 0.0229655)
(0.000411841 -0.000590183 0.0192304)
(0.000688016 -0.00602545 0.0187471)
(0.00106473 -0.00159107 0.0353182)
(0.000466455 -0.00221231 0.024228)
(0.000920423 -0.000974811 0.0262489)
(0.000527612 -0.000143767 -0.0527339)
(0.00430326 0.000380534 0.0270911)
(0.000465312 -0.000379655 0.0467773)
(0.00225228 0.000114094 0.0369242)
(3.68636e-05 0.000761621 0.0100235)
(0.000446523 0.000676969 0.00917555)
(-0.000323575 0.000424917 0.00794972)
(-0.000993444 0.000773612 0.00904302)
(0.000270346 0.00114767 0.0106838)
(6.59022e-05 -0.000531243 0.00843935)
(-0.000280883 -0.000466928 0.00784491)
(-0.000781915 8.78844e-05 0.00709135)
(0.00127972 0.00413884 0.010088)
(-0.00116299 -0.00042074 0.0108465)
(0.000288647 -0.00215289 0.00920707)
(-0.000199644 -0.00185679 0.00835282)
(0.000536561 -0.00166207 0.00891907)
(-0.0061823 -0.000505007 0.0110736)
(-0.00174456 -0.00155943 0.0138923)
(0.000505051 -0.00100185 0.0112579)
(0.000218853 0.000178369 0.0180919)
(0.000380021 1.50499e-05 0.0177965)
(8.836e-05 -0.000144206 0.0172415)
(-0.0002461 -0.000178513 0.0177045)
(0.00020798 4.70191e-05 0.0176964)
(0.000152655 -0.000516493 0.0172092)
(3.194e-05 -0.000537823 0.0169991)
(-0.000336753 -0.000397495 0.0168499)
(0.00050408 0.00078978 0.0171901)
(-0.000222005 -0.000520297 0.0183494)
(0.000171452 -0.00110092 0.0177221)
(-0.000184239 -0.0010423 0.0175489)
(0.000107508 -0.000525662 0.0142378)
(-0.00176747 -0.000310032 0.0177387)
(-0.00055115 -0.000663327 0.0192126)
(-7.00065e-05 -0.000548573 0.0187686)
(0.000144753 7.50279e-05 0.0155854)
(0.000122334 -1.26417e-05 0.0154097)
(-5.25232e-05 -6.41113e-05 0.0151295)
(-0.000301208 -3.89046e-05 0.0151655)
(0.000106572 -3.99653e-05 0.0154949)
(1.50946e-05 -0.000228618 0.0153469)
(-7.22692e-05 -0.000252231 0.015162)
(-0.000296358 -0.000195672 0.0150782)
(0.000158614 9.62702e-05 0.0155614)
(-0.000106955 -0.000267937 0.0158177)
(-4.62598e-05 -0.00045349 0.0155446)
(-0.0002289 -0.000445596 0.0154387)
(-2.91772e-05 -0.000196678 0.0148652)
(-0.000559597 -0.000205358 0.0157428)
(-0.000288369 -0.000314297 0.0160514)
(-0.000235084 -0.00028661 0.0159302)
(8.82768e-05 -3.54067e-06 0.0161061)
(6.70443e-05 -5.33413e-05 0.0160346)
(-7.36508e-06 -0.000101659 0.015934)
(-0.000123704 -0.000129173 0.0159512)
(5.28237e-05 -6.02011e-05 0.016077)
(4.79392e-06 -0.000137372 0.0160418)
(-4.62902e-05 -0.000173021 0.0159694)
(-0.000157342 -0.000180886 0.0159577)
(4.4014e-05 -3.13842e-05 0.0161448)
(-5.4617e-05 -0.000156535 0.0162111)
(-6.48335e-05 -0.000229984 0.0161279)
(-0.000157318 -0.000246161 0.0161044)
(-4.28951e-05 -9.63509e-05 0.0159879)
(-0.000207121 -0.000128443 0.0162221)
(-0.000154944 -0.000169179 0.0162985)
(-0.000183551 -0.000165904 0.0162909)
(4.34165e-05 -2.51769e-05 0.0161182)
(2.2564e-05 -4.7578e-05 0.0160775)
(-2.07123e-05 -7.14194e-05 0.016017)
(-8.32376e-05 -8.29179e-05 0.0159871)
(2.15861e-05 -5.02519e-05 0.0161324)
(-6.33783e-06 -8.26987e-05 0.0161142)
(-4.03895e-05 -0.000102883 0.0160745)
(-9.66411e-05 -0.000109971 0.0160549)
(6.68939e-06 -4.80072e-05 0.0161758)
(-3.4558e-05 -9.44372e-05 0.01619)
(-5.43201e-05 -0.000122544 0.0161591)
(-9.97926e-05 -0.000131624 0.0161453)
(-3.08226e-05 -6.2367e-05 0.0161441)
(-8.73058e-05 -8.27741e-05 0.016215)
(-8.71471e-05 -9.97706e-05 0.0162323)
(-0.000114501 -9.86919e-05 0.0162332)
(2.0275e-05 -2.80953e-05 0.0161437)
(6.26699e-06 -3.87793e-05 0.0161202)
(-1.70107e-05 -5.17639e-05 0.0160837)
(-4.73979e-05 -5.97583e-05 0.0160514)
(8.01857e-06 -3.98418e-05 0.0161711)
(-8.12775e-06 -5.47246e-05 0.0161591)
(-2.83856e-05 -6.62203e-05 0.0161352)
(-5.56737e-05 -7.20405e-05 0.0161139)
(-2.62517e-06 -4.3008e-05 0.0161999)
(-2.19582e-05 -6.10211e-05 0.0162012)
(-3.68752e-05 -7.32577e-05 0.0161855)
(-5.89172e-05 -7.81541e-05 0.0161709)
(-1.87367e-05 -4.68749e-05 0.0162017)
(-4.07852e-05 -5.70037e-05 0.0162234)
(-4.89388e-05 -6.40127e-05 0.0162238)
(-6.50414e-05 -6.29928e-05 0.0162172)
(8.83087e-06 -2.45453e-05 0.0161659)
(-1.54513e-07 -2.9783e-05 0.0161493)
(-1.30728e-05 -3.65768e-05 0.0161205)
(-2.82438e-05 -4.09578e-05 0.0160835)
(2.16631e-06 -3.0965e-05 0.0161969)
(-7.41869e-06 -3.80016e-05 0.0161872)
(-1.91591e-05 -4.41464e-05 0.0161677)
(-3.25999e-05 -4.754e-05 0.0161416)
(-4.03261e-06 -3.424e-05 0.0162199)
(-1.41332e-05 -4.17218e-05 0.0162168)
(-2.36755e-05 -4.72203e-05 0.016204)
(-3.44885e-05 -4.94796e-05 0.0161847)
(-1.11855e-05 -3.641e-05 0.0162301)
(-2.12809e-05 -4.09298e-05 0.0162347)
(-2.82153e-05 -4.37733e-05 0.0162286)
(-3.67407e-05 -4.26893e-05 0.0162142)
(3.47857e-06 -1.97735e-05 0.0161809)
(-2.1824e-06 -2.2369e-05 0.0161673)
(-9.45102e-06 -2.58224e-05 0.0161412)
(-1.72331e-05 -2.80674e-05 0.0161015)
(-7.84814e-08 -2.38211e-05 0.0162123)
(-5.87933e-06 -2.72108e-05 0.0162034)
(-1.26181e-05 -3.03554e-05 0.0161849)
(-1.93884e-05 -3.21102e-05 0.0161554)
(-3.42297e-06 -2.63935e-05 0.0162327)
(-9.11689e-06 -2.96634e-05 0.0162278)
(-1.48482e-05 -3.21101e-05 0.0162146)
(-2.02599e-05 -3.30142e-05 0.0161914)
(-6.70563e-06 -2.80287e-05 0.0162439)
(-1.19552e-05 -3.00398e-05 0.0162424)
(-1.65445e-05 -3.10575e-05 0.0162329)
(-2.09248e-05 -3.01147e-05 0.0162133)
(1.07617e-06 -1.53381e-05 0.0161908)
(-2.49544e-06 -1.6617e-05 0.0161785)
(-6.64975e-06 -1.82987e-05 0.0161531)
(-1.07616e-05 -1.93489e-05 0.0161116)
(-8.21901e-07 -1.81111e-05 0.0162217)
(-4.3555e-06 -1.97746e-05 0.016213)
(-8.19921e-06 -2.12782e-05 0.0161943)
(-1.17437e-05 -2.2094e-05 0.0161625)
(-2.56403e-06 -2.00207e-05 0.0162407)
(-5.90034e-06 -2.15226e-05 0.0162349)
(-9.23555e-06 -2.25622e-05 0.0162207)
(-1.20297e-05 -2.28204e-05 0.0161948)
(-4.10476e-06 -2.13374e-05 0.0162513)
(-7.07691e-06 -2.22044e-05 0.0162473)
(-9.81098e-06 -2.24832e-05 0.0162358)
(-1.2053e-05 -2.16931e-05 0.016213)
(5.7862e-08 -1.16301e-05 0.0161975)
(-2.19112e-06 -1.22552e-05 0.0161857)
(-4.62612e-06 -1.3042e-05 0.0161605)
(-6.86847e-06 -1.34638e-05 0.0161178)
(-9.66387e-07 -1.36075e-05 0.0162278)
(-3.13913e-06 -1.44372e-05 0.0162192)
(-5.32142e-06 -1.51277e-05 0.0162)
(-7.20415e-06 -1.54119e-05 0.0161667)
(-1.86577e-06 -1.49989e-05 0.0162458)
(-3.86906e-06 -1.5706e-05 0.0162395)
(-5.76218e-06 -1.61066e-05 0.0162245)
(-7.1937e-06 -1.60869e-05 0.0161969)
(-2.58915e-06 -1.60275e-05 0.0162556)
(-4.35628e-06 -1.63762e-05 0.0162506)
(-5.9044e-06 -1.63524e-05 0.0162377)
(-7.008e-06 -1.5744e-05 0.016213)
(-3.22583e-07 -8.65051e-06 0.0162021)
(-1.7403e-06 -8.9449e-06 0.0161905)
(-3.19655e-06 -9.28259e-06 0.0161652)
(-4.437e-06 -9.43206e-06 0.0161218)
(-8.82322e-07 -1.00791e-05 0.0162318)
(-2.21238e-06 -1.04906e-05 0.0162231)
(-3.48468e-06 -1.07832e-05 0.0162037)
(-4.50947e-06 -1.08217e-05 0.0161694)
(-1.35254e-06 -1.10817e-05 0.0162491)
(-2.55428e-06 -1.14174e-05 0.0162425)
(-3.63219e-06 -1.15434e-05 0.0162269)
(-4.38269e-06 -1.13975e-05 0.0161983)
(-1.70142e-06 -1.18263e-05 0.0162581)
(-2.74807e-06 -1.1964e-05 0.0162526)
(-3.60463e-06 -1.18505e-05 0.016239)
(-4.14929e-06 -1.13761e-05 0.0162132)
(-4.01011e-07 -6.29263e-06 0.0162053)
(-1.29022e-06 -6.42055e-06 0.0161937)
(-2.1727e-06 -6.54552e-06 0.0161683)
(-2.87809e-06 -6.58245e-06 0.0161244)
(-7.06493e-07 -7.31478e-06 0.0162345)
(-1.51323e-06 -7.51024e-06 0.0162257)
(-2.2727e-06 -7.61035e-06 0.016206)
(-2.84446e-06 -7.56435e-06 0.0161712)
(-9.54527e-07 -8.02449e-06 0.0162512)
(-1.6628e-06 -8.17925e-06 0.0162444)
(-2.29632e-06 -8.19177e-06 0.0162285)
(-2.70379e-06 -8.02084e-06 0.0161993)
(-1.13173e-06 -8.52976e-06 0.0162596)
(-1.73206e-06 -8.5867e-06 0.0162538)
(-2.21266e-06 -8.47395e-06 0.0162398)
(-2.49244e-06 -8.10877e-06 0.0162133)
(-3.34607e-07 -4.42478e-06 0.0162074)
(-8.82614e-07 -4.47235e-06 0.0161958)
(-1.42196e-06 -4.50648e-06 0.0161703)
(-1.83751e-06 -4.49503e-06 0.0161262)
(-4.9982e-07 -5.13397e-06 0.0162362)
(-9.82103e-07 -5.22055e-06 0.0162274)
(-1.43963e-06 -5.24087e-06 0.0162075)
(-1.77743e-06 -5.17027e-06 0.0161724)
(-6.31772e-07 -5.62263e-06 0.0162525)
(-1.04259e-06 -5.68867e-06 0.0162456)
(-1.41762e-06 -5.66333e-06 0.0162295)
(-1.65154e-06 -5.51469e-06 0.0161999)
(-7.25833e-07 -5.94722e-06 0.0162605)
(-1.05853e-06 -5.97227e-06 0.0162546)
(-1.33393e-06 -5.88332e-06 0.0162403)
(-1.48134e-06 -5.62458e-06 0.0162134)
(-1.93821e-07 -2.91671e-06 0.0162087)
(-5.19817e-07 -2.92777e-06 0.0161971)
(-8.47348e-07 -2.92791e-06 0.0161716)
(-1.09237e-06 -2.90498e-06 0.0161273)
(-2.8098e-07 -3.38077e-06 0.0162374)
(-5.61779e-07 -3.41464e-06 0.0162285)
(-8.40315e-07 -3.40844e-06 0.0162085)
(-1.03397e-06 -3.34798e-06 0.0161732)
(-3.51747e-07 -3.70094e-06 0.0162534)
(-5.83313e-07 -3.72508e-06 0.0162464)
(-8.11329e-07 -3.69375e-06 0.0162301)
(-9.41212e-07 -3.58225e-06 0.0162004)
(-4.04776e-07 -3.89352e-06 0.016261)
(-5.78797e-07 -3.90752e-06 0.016255)
(-7.43563e-07 -3.84492e-06 0.0162405)
(-8.2502e-07 -3.6705e-06 0.0162135)
(1.18649e-08 -1.66635e-06 0.0162096)
(-1.65967e-07 -1.6613e-06 0.016198)
(-3.56351e-07 -1.65121e-06 0.0161723)
(-4.91899e-07 -1.63137e-06 0.016128)
(-2.7844e-08 -1.93241e-06 0.016238)
(-1.81083e-07 -1.94117e-06 0.0162291)
(-3.46132e-07 -1.92875e-06 0.016209)
(-4.56875e-07 -1.886e-06 0.0161737)
(-6.12814e-08 -2.11917e-06 0.0162539)
(-1.86555e-07 -2.12529e-06 0.0162468)
(-3.23354e-07 -2.10078e-06 0.0162305)
(-4.02164e-07 -2.0285e-06 0.0162006)
(-9.05956e-08 -2.22452e-06 0.0162613)
(-1.78804e-07 -2.23212e-06 0.0162552)
(-2.79311e-07 -2.19419e-06 0.0162407)
(-3.30996e-07 -2.08886e-06 0.0162135)
(2.83865e-07 -7.27685e-07 0.01621)
(1.98735e-07 -7.09326e-07 0.0161984)
(9.24303e-08 -6.85786e-07 0.0161728)
(6.59498e-09 -6.65863e-07 0.0161284)
(2.78168e-07 -8.51083e-07 0.0162384)
(2.02593e-07 -8.42631e-07 0.0162295)
(1.05699e-07 -8.23803e-07 0.0162094)
(3.05614e-08 -7.89989e-07 0.016174)
(2.72953e-07 -9.44404e-07 0.0162541)
(2.07898e-07 -9.39189e-07 0.0162471)
(1.25612e-07 -9.19642e-07 0.0162307)
(6.31329e-08 -8.71923e-07 0.0162009)
(2.64331e-07 -1.0033e-06 0.0162615)
(2.1598e-07 -1.00177e-06 0.0162554)
(1.52996e-07 -9.7971e-07 0.0162408)
(9.96263e-08 -9.24975e-07 0.0162136)
(0.0049608 -0.00401325 0.0278506)
(-0.00109877 0.0003996 0.0144842)
(0.000978077 0.00182026 0.0107554)
(0.00436146 -0.000622102 0.0224258)
(0.000967235 -0.00138207 0.0156728)
(0.00219546 -0.00121866 0.0212451)
(0.00120228 0.00417174 0.0356139)
(0.00174152 -0.00255922 0.0224734)
(-0.00114332 -0.000163956 0.0183578)
(0.00083768 -0.000721284 0.010432)
(0.0056992 -0.00274465 0.0279221)
(0.00124799 -0.00441273 0.0316525)
(0.000935249 -0.00192668 0.0306826)
(-0.00017957 0.000143888 0.0216695)
(0.00286175 -0.00278607 0.0241287)
(0.000388292 -0.00063048 0.00397729)
(-0.00593261 0.00417116 0.0479529)
(0.00311776 0.000366406 0.0378202)
(0.00265212 -0.00119902 0.0280806)
(0.000191154 -0.000168446 0.0587172)
(-0.00277818 0.00223685 0.0217634)
(-0.000391019 0.00146853 0.0420705)
(0.00396988 -6.84754e-06 0.0381083)
(0.00234742 -0.000501047 0.0121454)
(5.68232e-05 0.00111403 0.0529253)
(-0.00070574 0.00138266 0.0302647)
(-0.000270086 0.00175268 0.0419846)
(0.00229043 0.000970823 0.0266856)
(-0.00271551 0.000305491 0.0322373)
(-0.00150213 -0.000201749 0.021286)
(0.000466205 0.00207757 0.0137942)
(0.00423536 0.00303673 0.046595)
(-0.00187525 0.002264 0.0207496)
(0.00398921 0.00144737 0.0327969)
(0.00102505 0.000797816 0.0321273)
(0.00160573 0.000802207 0.0322591)
(-0.000698736 0.00465849 0.0300126)
(0.000698972 0.00254023 0.0264717)
(0.00112934 0.00111337 0.0288848)
(0.00188699 -0.00128896 0.0557443)
(-0.00153066 0.0022388 0.0236513)
(0.000425963 0.00200764 0.0306378)
(-0.000295207 0.00228934 0.0490512)
(0.00149906 0.00090729 0.030704)
(-0.000643436 0.00129806 0.00598492)
(0.00203702 0.00123225 0.0467675)
(-9.4481e-05 0.0011547 0.019224)
(-0.000327681 0.00299609 0.0602275)
(0.000153093 0.0012243 0.0236435)
(-0.000696713 -0.000769834 0.0371648)
(-0.00129632 -0.000630618 0.0272784)
(0.00168024 -0.00377824 0.0738614)
(-0.000147671 0.000456195 0.0141392)
(-0.00356714 -0.000559134 0.0458367)
(-0.00355041 -0.00081147 0.0449845)
(0.000574327 0.00104476 0.01108)
(-0.000160814 -0.00249241 0.0488545)
(-0.00195701 0.000833275 0.0419175)
(-0.00155326 0.000814941 0.0289962)
(-0.00103959 0.00273534 0.0235769)
(-0.000272185 -0.00130812 0.0327787)
(0.000291129 0.00044943 0.0204987)
(-0.00114065 0.00170846 0.0319628)
(-0.00225484 0.000212817 0.0260708)
(-0.000597589 1.65133e-05 0.0210726)
(-0.0032847 -0.00164387 0.0388893)
(-0.00283713 -0.000791691 0.0346036)
(-0.00105929 0.00540513 0.0395157)
(5.57999e-05 -0.00146199 0.0439614)
(-0.00190115 0.000620449 0.0259713)
(-0.000543945 0.00104009 0.0192125)
(-0.00152403 0.00441725 0.0292437)
(-0.00109454 -0.000840261 0.0423123)
(-0.000682215 0.000217803 0.00591419)
(-0.0021523 0.00363977 0.0508106)
(0.000334516 0.00170117 0.028493)
(-0.000350066 2.292e-05 0.0230907)
(-0.000903348 0.0003208 0.0499482)
(9.34269e-06 0.000686397 0.0147914)
(-0.000773857 0.00310596 0.0659193)
(-0.000338389 4.3306e-05 0.00287911)
(-0.00370703 0.00367688 0.0298972)
(0.000360792 0.000914356 0.017568)
(0.00280288 0.00244925 0.0318499)
(0.000629082 0.00245212 0.028467)
(-0.00305715 0.00350987 0.0229192)
(-0.00233367 0.00327624 0.0261727)
(-0.000265488 0.0046617 0.0276115)
(0.000184436 0.00120601 0.0177534)
(-0.00210796 0.000682914 0.0271754)
(-0.000710887 0.00243459 0.016424)
(-0.00129182 0.00181095 0.0194522)
(0.00115206 -0.000844333 0.0229978)
(-0.000253787 5.99357e-06 0.0149215)
(-0.00027715 -0.000273084 0.0244736)
(0.000251684 -4.99831e-05 0.00673797)
(0.000464514 -0.000544082 0.00565204)
(-0.000677576 -0.000424126 0.0132679)
(-0.000767034 -0.000180423 0.0155637)
(-0.000376679 0.000393996 0.026102)
(0.000506284 -0.00175318 0.0278374)
(0.000280377 -0.000464277 0.0260266)
(-0.000616425 -0.00051184 0.0109034)
(-0.0011848 -0.000256191 0.0123569)
(0.000499713 -0.000152361 0.0225303)
(0.000466383 0.000119706 0.0258869)
(0.000648042 -0.000843225 0.0233941)
(0.000833323 -0.00150189 0.0286568)
(0.000933745 0.000290762 0.0222707)
(0.000709577 -0.000124171 0.0191462)
(0.000529546 4.33567e-05 0.0215055)
(0.000688668 -0.000610376 0.0181649)
(-0.000433749 -0.0003162 0.0198358)
(0.000264487 -0.000536891 0.0244012)
(-0.000472487 -0.00063497 0.0218891)
(-0.000270915 -0.00027635 0.0325531)
(-0.000549869 -0.00101898 0.0340243)
(0.000303694 -0.00112869 0.0329472)
(0.00013934 -0.0010305 0.018576)
(0.00017679 -0.000823546 0.0257862)
(-2.7784e-05 -0.00108529 0.0327686)
(0.000164093 -0.000693506 0.0319013)
(0.000201053 -0.00113734 0.029941)
(0.000481034 -0.00114068 0.032351)
(3.35997e-06 -0.000778146 0.0306315)
(0.000241308 -0.000739388 0.0277341)
(8.15947e-05 -0.000862289 0.028562)
(0.000358035 -0.0010389 0.0330964)
(0.00188685 -0.00040477 0.0087916)
(0.000764308 -0.000244342 0.00709975)
(-0.000866552 -0.000524518 0.00648189)
(-0.00145479 -0.000574057 0.00894207)
(0.000717001 -0.000611585 0.0101642)
(0.00116448 -0.000358784 0.00884581)
(-5.11118e-05 -0.00100335 0.00672315)
(-0.00141826 -0.000703148 0.00826478)
(0.000754346 7.42578e-05 0.0101836)
(0.000588798 0.000176235 0.00919729)
(-7.228e-05 -0.00105171 0.00851897)
(-0.000842075 -0.000756981 0.00903336)
(0.000569077 0.000405778 0.0100043)
(0.000397875 0.000225347 0.00892075)
(-0.000433597 -3.90361e-05 0.00864677)
(-0.000864181 -0.000204067 0.00916941)
(0.00104855 -0.000164628 0.0178781)
(0.000703426 -8.84021e-05 0.0172215)
(-8.69107e-05 -0.000290169 0.0166539)
(-0.000557657 -0.000467781 0.0181215)
(0.000601481 -0.000313013 0.018445)
(0.0008114 -0.000264353 0.0178257)
(0.000220644 -0.000553782 0.0168009)
(-0.00047944 -0.000534626 0.0178551)
(0.00053514 -1.65024e-05 0.0185129)
(0.000602775 -3.7676e-05 0.0179976)
(0.00024062 -0.000467298 0.0174856)
(-0.000318466 -0.000469034 0.0179621)
(0.000407827 0.000100535 0.0182944)
(0.000465436 -1.92485e-05 0.0178102)
(0.00014982 -0.000203061 0.0175355)
(-0.000248274 -0.00037082 0.0179011)
(0.000489197 3.22108e-05 0.0151335)
(0.000271895 4.80553e-05 0.0147652)
(-0.0001625 -0.000112996 0.0143958)
(-0.00039692 -0.000228417 0.0148635)
(0.000326352 2.3248e-06 0.0154621)
(0.00027431 -5.88192e-06 0.0151126)
(-9.11976e-05 -0.000182022 0.0146449)
(-0.000411419 -0.000190808 0.0149389)
(0.000269727 1.45065e-05 0.0156037)
(0.000216188 -1.80617e-05 0.0152964)
(-5.49264e-05 -0.000203143 0.0149536)
(-0.000339992 -0.000183586 0.0150333)
(0.000206145 3.94818e-05 0.0155926)
(0.000157712 -1.9135e-05 0.015337)
(-5.81364e-05 -0.000117378 0.0150859)
(-0.000296632 -0.000125892 0.0150911)
(0.000245204 4.33921e-06 0.0158115)
(0.000167297 1.7867e-05 0.0156719)
(-1.32334e-05 -5.45445e-05 0.0155217)
(-0.000161855 -0.000138286 0.0157719)
(0.000187662 -1.579e-05 0.0159428)
(0.000161477 -2.05356e-05 0.0158087)
(1.12833e-05 -0.000105043 0.015649)
(-0.000157416 -0.000141921 0.0158276)
(0.000153499 -2.9455e-06 0.0160467)
(0.000134276 -2.15902e-05 0.0159253)
(1.77915e-05 -0.000105798 0.0157994)
(-0.00014114 -0.000132013 0.0158863)
(0.000120528 -8.95466e-07 0.0160863)
(0.000102679 -3.33884e-05 0.0159885)
(1.49088e-05 -9.57983e-05 0.0158903)
(-0.000120287 -0.00012952 0.0159218)
(0.000113451 4.20369e-06 0.0157679)
(6.63129e-05 9.60347e-06 0.0156915)
(-2.25688e-05 -2.87568e-05 0.015581)
(-9.78305e-05 -7.4756e-05 0.0156476)
(9.27607e-05 -7.74766e-06 0.0159128)
(6.14864e-05 -9.53248e-06 0.0158364)
(-1.57443e-05 -5.23167e-05 0.0157284)
(-9.98654e-05 -7.48285e-05 0.015758)
(7.69792e-05 -1.30985e-05 0.0160177)
(5.21418e-05 -2.13311e-05 0.0159472)
(-1.18072e-05 -6.26415e-05 0.0158545)
(-9.14756e-05 -7.70801e-05 0.0158467)
(6.0555e-05 -1.86545e-05 0.0160784)
(3.99436e-05 -3.37799e-05 0.0160219)
(-1.0972e-05 -6.68445e-05 0.0159469)
(-8.05436e-05 -7.99225e-05 0.0159146)
(5.27775e-05 1.532e-07 0.0157867)
(2.77926e-05 2.97787e-06 0.0157523)
(-1.25097e-05 -1.67797e-05 0.0156911)
(-5.25102e-05 -4.42161e-05 0.0157144)
(4.48063e-05 -9.34678e-06 0.0159232)
(2.48801e-05 -9.59028e-06 0.0158854)
(-1.12327e-05 -3.26676e-05 0.0158241)
(-5.32337e-05 -4.85223e-05 0.0158237)
(3.75213e-05 -1.61337e-05 0.0160266)
(2.09462e-05 -2.01168e-05 0.0159897)
(-1.06826e-05 -4.14644e-05 0.0159344)
(-5.02594e-05 -5.19186e-05 0.015914)
(2.94117e-05 -2.20677e-05 0.0160968)
(1.53893e-05 -2.98886e-05 0.0160653)
(-1.07924e-05 -4.75048e-05 0.0160185)
(-4.55388e-05 -5.61288e-05 0.0159837)
(2.49189e-05 -1.34604e-06 0.0158047)
(1.04006e-05 -5.37836e-07 0.0157839)
(-9.87764e-06 -1.11286e-05 0.0157411)
(-3.02135e-05 -2.62504e-05 0.0157368)
(2.14023e-05 -8.70735e-06 0.0159409)
(8.86039e-06 -9.19299e-06 0.0159162)
(-9.548e-06 -2.13451e-05 0.0158714)
(-3.06231e-05 -3.04386e-05 0.0158503)
(1.79315e-05 -1.46069e-05 0.0160442)
(7.04377e-06 -1.6854e-05 0.0160193)
(-9.5697e-06 -2.80068e-05 0.0159772)
(-2.92554e-05 -3.39995e-05 0.0159442)
(1.38395e-05 -1.97865e-05 0.0161167)
(4.52958e-06 -2.4028e-05 0.0160948)
(-9.68231e-06 -3.33568e-05 0.0160579)
(-2.70707e-05 -3.79709e-05 0.0160165)
(1.18631e-05 -1.66557e-06 0.0158197)
(3.11047e-06 -1.67395e-06 0.0158035)
(-7.60228e-06 -7.67679e-06 0.0157706)
(-1.80859e-05 -1.62877e-05 0.0157545)
(1.01495e-05 -7.27066e-06 0.0159559)
(2.23701e-06 -7.84246e-06 0.0159363)
(-7.58035e-06 -1.44849e-05 0.0158993)
(-1.82837e-05 -1.98141e-05 0.0158687)
(8.32656e-06 -1.19884e-05 0.0160588)
(1.32864e-06 -1.33652e-05 0.0160388)
(-7.73283e-06 -1.92912e-05 0.0160026)
(-1.76825e-05 -2.27311e-05 0.0159635)
(6.18712e-06 -1.61667e-05 0.0161314)
(1.95459e-07 -1.85293e-05 0.0161137)
(-7.74648e-06 -2.34485e-05 0.0160808)
(-1.66166e-05 -2.58256e-05 0.0160362)
(5.64169e-06 -1.53457e-06 0.0158308)
(1.7062e-07 -1.84333e-06 0.0158162)
(-5.81275e-06 -5.40832e-06 0.0157876)
(-1.12873e-05 -1.04325e-05 0.0157654)
(4.66601e-06 -5.73656e-06 0.015967)
(-3.38559e-07 -6.30001e-06 0.0159492)
(-5.84576e-06 -1.00116e-05 0.0159155)
(-1.13708e-05 -1.31252e-05 0.0158799)
(3.65406e-06 -9.36804e-06 0.0160694)
(-8.15316e-07 -1.02734e-05 0.0160515)
(-5.94767e-06 -1.34313e-05 0.0160176)
(-1.10746e-05 -1.53557e-05 0.015975)
(2.52037e-06 -1.26205e-05 0.0161417)
(-1.30467e-06 -1.39634e-05 0.0161257)
(-5.86263e-06 -1.65391e-05 0.0160944)
(-1.04912e-05 -1.76734e-05 0.0160476)
(2.62427e-06 -1.26155e-06 0.0158389)
(-8.51427e-07 -1.6438e-06 0.0158248)
(-4.3388e-06 -3.83515e-06 0.0157981)
(-7.24387e-06 -6.84707e-06 0.0157726)
(2.01795e-06 -4.37629e-06 0.015975)
(-1.16513e-06 -4.86547e-06 0.015958)
(-4.36612e-06 -6.99213e-06 0.0159256)
(-7.26445e-06 -8.84167e-06 0.0158872)
(1.43029e-06 -7.11681e-06 0.0160771)
(-1.4239e-06 -7.70538e-06 0.01606)
(-4.4188e-06 -9.42471e-06 0.0160269)
(-7.11022e-06 -1.04984e-05 0.0159823)
(8.26994e-07 -9.58897e-06 0.0161489)
(-1.61602e-06 -1.03575e-05 0.0161337)
(-4.29591e-06 -1.17088e-05 0.0161028)
(-6.76683e-06 -1.22167e-05 0.0160548)
(1.16573e-06 -9.80893e-07 0.0158447)
(-1.07489e-06 -1.32508e-06 0.0158307)
(-3.17169e-06 -2.71738e-06 0.0158048)
(-4.75252e-06 -4.56848e-06 0.0157774)
(7.73451e-07 -3.2568e-06 0.0159808)
(-1.27507e-06 -3.63908e-06 0.0159639)
(-3.18635e-06 -4.89905e-06 0.015932)
(-4.73779e-06 -6.01015e-06 0.015892)
(4.19508e-07 -5.28455e-06 0.0160826)
(-1.41852e-06 -5.67319e-06 0.0160658)
(-3.20923e-06 -6.62181e-06 0.0160329)
(-4.64508e-06 -7.21929e-06 0.0159871)
(8.98492e-08 -7.13028e-06 0.016154)
(-1.4744e-06 -7.57974e-06 0.016139)
(-3.07949e-06 -8.28213e-06 0.0161083)
(-4.42156e-06 -8.48298e-06 0.0160595)
(4.83076e-07 -7.29997e-07 0.0158488)
(-9.73024e-07 -1.00643e-06 0.0158348)
(-2.26149e-06 -1.89682e-06 0.015809)
(-3.1396e-06 -3.05819e-06 0.0157807)
(2.22405e-07 -2.36444e-06 0.0159848)
(-1.09745e-06 -2.64708e-06 0.015968)
(-2.26528e-06 -3.39874e-06 0.0159362)
(-3.1149e-06 -4.08151e-06 0.0158952)
(2.57786e-09 -3.83527e-06 0.0160864)
(-1.17541e-06 -4.0883e-06 0.0160697)
(-2.26663e-06 -4.61638e-06 0.0160368)
(-3.05419e-06 -4.9507e-06 0.0159902)
(-1.78655e-07 -5.18235e-06 0.0161575)
(-1.17322e-06 -5.44544e-06 0.0161426)
(-2.14839e-06 -5.81108e-06 0.0161118)
(-2.90132e-06 -5.87097e-06 0.0160625)
(1.89669e-07 -5.18754e-07 0.0158516)
(-7.46471e-07 -7.19571e-07 0.0158376)
(-1.54379e-06 -1.28426e-06 0.0158118)
(-2.04584e-06 -2.01455e-06 0.0157829)
(1.76687e-08 -1.65969e-06 0.0159876)
(-8.21381e-07 -1.8526e-06 0.0159708)
(-1.53997e-06 -2.29998e-06 0.0159389)
(-2.01965e-06 -2.72169e-06 0.0158974)
(-1.19022e-07 -2.6937e-06 0.016089)
(-8.60704e-07 -2.84897e-06 0.0160723)
(-1.53141e-06 -3.14255e-06 0.0160394)
(-1.97659e-06 -3.33328e-06 0.0159923)
(-2.15722e-07 -3.64234e-06 0.0161599)
(-8.35631e-07 -3.79179e-06 0.0161451)
(-1.43526e-06 -3.98161e-06 0.0161142)
(-1.87318e-06 -3.98461e-06 0.0160645)
(1.04577e-07 -3.41157e-07 0.0158535)
(-4.73776e-07 -4.68086e-07 0.0158394)
(-9.58677e-07 -8.0919e-07 0.0158136)
(-1.25153e-06 -1.25169e-06 0.0157843)
(-3.33284e-09 -1.09247e-06 0.0159894)
(-5.1676e-07 -1.20924e-06 0.0159726)
(-9.51366e-07 -1.46624e-06 0.0159406)
(-1.22702e-06 -1.71634e-06 0.0158988)
(-8.58318e-08 -1.77523e-06 0.0160908)
(-5.34458e-07 -1.86032e-06 0.0160741)
(-9.40643e-07 -2.0179e-06 0.016041)
(-1.19602e-06 -2.12364e-06 0.0159937)
(-1.34192e-07 -2.40017e-06 0.0161615)
(-5.05099e-07 -2.4784e-06 0.0161466)
(-8.70547e-07 -2.57338e-06 0.0161157)
(-1.12698e-06 -2.55674e-06 0.0160659)
(1.57395e-07 -1.85168e-07 0.0158546)
(-1.63911e-07 -2.38489e-07 0.0158406)
(-4.40092e-07 -4.0982e-07 0.0158147)
(-6.13868e-07 -6.43052e-07 0.0157852)
(9.83124e-08 -6.16282e-07 0.0159906)
(-1.85117e-07 -6.66063e-07 0.0159737)
(-4.31835e-07 -7.8967e-07 0.0159416)
(-5.91006e-07 -9.18414e-07 0.0158996)
(5.54879e-08 -1.00904e-06 0.0160919)
(-1.89786e-07 -1.04095e-06 0.0160751)
(-4.212e-07 -1.11034e-06 0.016042)
(-5.6766e-07 -1.16025e-06 0.0159945)
(3.59203e-08 -1.36867e-06 0.0161624)
(-1.64949e-07 -1.39862e-06 0.0161476)
(-3.74985e-07 -1.438e-06 0.0161166)
(-5.22105e-07 -1.41828e-06 0.0160667)
(3.11087e-07 -5.64113e-08 0.0158552)
(1.58621e-07 -3.83388e-08 0.0158412)
(9.23063e-09 -7.81994e-08 0.0158153)
(-1.01653e-07 -1.53699e-07 0.0157857)
(2.92101e-07 -2.48236e-07 0.0159912)
(1.5541e-07 -2.36123e-07 0.0159743)
(1.96875e-08 -2.61001e-07 0.0159422)
(-8.40586e-08 -2.9336e-07 0.0159002)
(2.82221e-07 -4.26996e-07 0.0160924)
(1.63029e-07 -4.15077e-07 0.0160757)
(3.82842e-08 -4.21613e-07 0.0160426)
(-5.72175e-08 -4.21565e-07 0.015995)
(2.82922e-07 -5.90937e-07 0.016163)
(1.84458e-07 -5.82952e-07 0.0161481)
(7.2215e-08 -5.76869e-07 0.0161171)
(-1.8797e-08 -5.52148e-07 0.0160672)
(0.00365575 -0.00240155 0.0336687)
(0.00358678 -0.00418457 0.0255372)
(0.00357355 -0.00322201 0.0185388)
(0.00485218 -0.000881271 0.0317476)
(-0.000794144 -0.00178605 0.0218437)
(0.00129553 0.000260499 0.0169684)
(0.00160088 0.000200552 0.00371836)
(0.00349723 -0.00200839 0.0117227)
(0.00154716 -0.00123364 0.0130311)
(0.00436179 -0.00114893 0.0176254)
(0.00245986 0.00241657 0.0253747)
(0.000204926 0.000322121 0.0181127)
(-0.000788039 0.000337751 0.00506148)
(0.00356283 -0.000687774 0.0122291)
(0.00616413 -0.00118992 0.0259895)
(0.000614016 0.000690267 0.0327214)
(0.00117524 0.000540124 0.00714872)
(-0.00145772 0.00212352 0.0290937)
(0.000857665 0.00278605 0.026019)
(0.00184604 0.00343712 0.0337546)
(0.00107819 0.000845297 0.0248429)
(0.00254312 6.95229e-05 0.0247378)
(0.00338371 0.000851566 0.0432638)
(0.00220961 0.00449173 0.0601991)
(0.00357884 0.00286886 0.0299244)