/*--------------------------------*- C++ -*----------------------------------*\
| =========                 |                                                 |
| \\      /  F ield         | OpenFOAM: The Open Source CFD Toolbox           |
|  \\    /   O peration     | Version:  2506                                  |
|   \\  /    A nd           | Website:  www.openfoam.com                      |
|    \\/     M anipulation  |                                                 |
\*---------------------------------------------------------------------------*/
FoamFile
{
    version     2.0;
    format      ascii;
    arch        "LSB;label=32;scalar=64";
    class       volVectorField;
    location    "0.08";
    object      Us;
}
// * * * * * * * * * * * * * * * * * * * * * * * * * * * * * * * * * * * * * //

dimensions      [0 1 -1 0 0 0 0];

internalField   nonuniform List<vector> 
1152
(
(0.000273805 -0.000113011 -0.000130008)
(-0.000470955 0.000209148 -0.000607748)
(-0.000296565 0.000615624 -0.00103807)
(0.000487452 0.000349791 -0.0005166)
(-0.000315926 0.000430577 -0.000929342)
(0.000123935 0.000385279 -0.000308125)
(0.000258414 0.000900734 -0.000143332)
(0.000274784 0.00125956 -0.000153593)
(0.00029763 0.000516614 -0.000799665)
(0.000145114 -9.9939e-05 2.32306e-06)
(-0.000468685 0.000649316 -0.000120725)
(-0.000547014 0.000806715 -0.000311714)
(0.000230913 6.2857e-05 -0.000922914)
(0.000364089 0.000243238 -0.000229357)
(-0.000502827 0.000727381 -1.62117e-05)
(-0.00024212 0.000449229 -0.000114027)
(-0.00194517 0.000283993 0.00308864)
(-0.00171544 0.000702167 0.00168268)
(0.000347963 0.00178501 0.00224478)
(0.00155153 0.0014564 0.00273838)
(-0.00166922 0.00113871 0.00295093)
(-0.000512554 0.00211408 0.00301777)
(0.00105817 0.00295356 0.00400348)
(0.0019275 0.00166148 0.00474881)
(-0.00158771 0.00140831 0.00424719)
(-0.00072056 0.00125483 0.00350945)
(-0.000986084 0.000979527 0.00211164)
(-0.000251933 0.00118348 0.00183977)
(-0.000390964 0.00144538 0.00361992)
(-0.000868575 0.000464996 0.00164441)
(-0.00103577 -8.52919e-05 0.00140824)
(-0.000442103 0.000711316 0.00219889)
(0.000645545 0.000688538 0.00486401)
(0.000619073 0.000567822 0.00494886)
(-0.000515469 0.00104166 0.00467113)
(0.000213985 0.000774568 0.00442516)
(-4.00584e-05 0.000567765 0.00552693)
(-0.000396253 0.000648818 0.00547456)
(-0.000373973 0.00077189 0.0045892)
(0.000550924 0.00079178 0.00497125)
(-0.000532707 0.000662508 0.00577505)
(-0.000717669 0.000364902 0.00641055)
(-0.000754509 0.000341865 0.0052502)
(7.17696e-05 0.00087955 0.00503547)
(-0.000231099 0.000178762 0.00601718)
(-0.000414684 -2.84188e-05 0.00528628)
(-0.000396954 0.000180483 0.00519297)
(0.000867075 0.00062961 0.0054514)
(0.00015504 0.000559927 0.00627583)
(-0.000318902 0.000314634 0.0054631)
(-3.22947e-05 0.000672859 0.00479633)
(0.000147833 0.000650228 0.00441301)
(-0.000383418 5.26666e-05 0.0060304)
(-0.000189691 0.000377644 0.00565853)
(0.000200765 0.000757108 0.00506488)
(0.000651943 0.000762035 0.00489195)
(-0.000144 1.45041e-05 0.00622698)
(0.000436414 0.000244967 0.00600582)
(0.000689687 0.000493357 0.00596178)
(6.77632e-05 0.000285448 0.00515702)
(2.6311e-05 0.000210368 0.0064115)
(0.000127451 0.000317071 0.00583202)
(0.000188388 3.60904e-05 0.00586961)
(-2.81699e-05 -0.000146778 0.00530552)
(-3.9256e-06 0.00031881 0.00631754)
(0.000130022 0.000119815 0.00548548)
(-3.19454e-05 0.000355475 0.00513147)
(0.000110664 0.000178699 0.00478927)
(5.14365e-05 6.71468e-05 0.00654074)
(6.28251e-05 0.00034395 0.00567403)
(-1.33788e-05 0.000336059 0.00540755)
(0.000152525 0.000427945 0.00512746)
(7.78765e-05 -9.89564e-06 0.00660958)
(4.10789e-05 0.000319286 0.00632915)
(6.0158e-05 0.000159868 0.00591342)
(3.91072e-05 0.000179163 0.00537455)
(-0.000147759 0.000118612 0.00647253)
(-2.58039e-05 0.000322124 0.00631035)
(0.000247052 0.000135274 0.00594472)
(-0.000227866 0.000203195 0.00562496)
(0.000657002 8.23143e-06 0.00595925)
(0.000547464 3.16261e-06 0.00564346)
(0.00037631 6.40654e-05 0.00553959)
(0.000381045 -5.1735e-05 0.00513836)
(0.000430639 6.65952e-05 0.0063844)
(0.000473245 0.000169855 0.00604775)
(0.000439527 1.93075e-05 0.00592683)
(0.000198751 3.42762e-05 0.00515033)
(0.000130985 5.54899e-05 0.0066782)
(0.000277281 0.000136493 0.00628693)
(0.000491843 7.56192e-05 0.00623188)
(0.000268217 2.00003e-05 0.00578187)
(8.75719e-05 0.000491483 0.0066197)
(0.000398271 0.000395877 0.00626693)
(0.000465426 2.63199e-05 0.00640881)
(0.000352177 0.000178076 0.00586539)
(0.000887474 0.000259135 0.0059164)
(0.00097172 1.1744e-05 0.00582412)
(0.00092581 -0.000168108 0.00575734)
(1.47069e-05 -0.000774841 0.00509623)
(0.000576122 0.000240583 0.00641367)
(0.000793545 0.000307309 0.00600425)
(0.00106662 -0.000177229 0.00595794)
(0.0009085 -2.20255e-05 0.00542911)
(-0.000122614 0.000542799 0.00592432)
(0.000654656 0.00042326 0.00585647)
(0.000945496 -0.000244031 0.00594457)
(0.00099532 -4.06209e-05 0.00592152)
(0.000319945 0.00075304 0.00618595)
(3.76108e-05 0.000459036 0.00576471)
(-0.0014824 6.12352e-05 0.00542421)
(0.000481023 -8.13343e-05 0.00604767)
(0 0 0)
(0 0 0)
(0 0 0)
(0 0 0)
(0 0 0)
(0 0 0)
(0 0 0)
(0 0 0)
(0 0 0)
(0 0 0)
(0 0 0)
(0 0 0)
(0.000540357 0.000233454 0.00605447)
(0 0 0)
(0 0 0)
(0 0 0)
(0 0 0)
(0 0 0)
(0 0 0)
(0 0 0)
(0 0 0)
(0 0 0)
(0 0 0)
(0 0 0)
(0 0 0)
(0 0 0)
(0 0 0)
(0 0 0)
(0 0 0)
(0 0 0)
(0 0 0)
(0 0 0)
(0 0 0)
(0 0 0)
(0 0 0)
(0 0 0)
(0 0 0)
(0 0 0)
(0 0 0)
(0 0 0)
(0 0 0)
(0 0 0)
(0 0 0)
(0 0 0)
(0 0 0)
(0 0 0)
(0 0 0)
(0 0 0)
(0 0 0)
(0 0 0)
(0 0 0)
(0 0 0)
(0 0 0)
(0 0 0)
(0 0 0)
(0 0 0)
(0 0 0)
(0 0 0)
(0 0 0)
(0 0 0)
(0 0 0)
(0 0 0)
(0 0 0)
(0 0 0)
(0 0 0)
(0 0 0)
(0 0 0)
(0 0 0)
(0 0 0)
(0 0 0)
(0 0 0)
(0 0 0)
(0 0 0)
(0 0 0)
(0 0 0)
(0 0 0)
(0 0 0)
(0 0 0)
(0 0 0)
(0 0 0)
(0 0 0)
(0 0 0)
(0 0 0)
(0 0 0)
(0 0 0)
(0 0 0)
(0 0 0)
(0 0 0)
(0 0 0)
(0 0 0)
(0 0 0)
(0 0 0)
(0 0 0)
(0 0 0)
(0 0 0)
(0 0 0)
(0 0 0)
(0 0 0)
(0 0 0)
(0 0 0)
(0 0 0)
(0 0 0)
(0 0 0)
(0 0 0)
(0 0 0)
(0 0 0)
(0 0 0)
(0 0 0)
(0 0 0)
(0 0 0)
(0 0 0)
(0 0 0)
(0 0 0)
(0 0 0)
(0 0 0)
(0 0 0)
(0 0 0)
(0 0 0)
(0 0 0)
(0 0 0)
(0 0 0)
(0 0 0)
(0 0 0)
(0 0 0)
(0 0 0)
(0 0 0)
(0 0 0)
(0 0 0)
(0 0 0)
(0 0 0)
(0 0 0)
(0 0 0)
(0 0 0)
(0 0 0)
(0 0 0)
(0 0 0)
(0 0 0)
(0 0 0)
(0 0 0)
(0 0 0)
(0 0 0)
(0 0 0)
(0 0 0)
(0 0 0)
(0 0 0)
(0 0 0)
(0 0 0)
(0 0 0)
(0 0 0)
(0 0 0)
(0 0 0)
(0 0 0)
(0 0 0)
(0 0 0)
(0 0 0)
(0 0 0)
(0 0 0)
(0 0 0)
(0 0 0)
(0 0 0)
(0 0 0)
(0 0 0)
(0 0 0)
(0 0 0)
(0 0 0)
(0 0 0)
(0 0 0)
(0 0 0)
(0 0 0)
(0 0 0)
(0 0 0)
(0 0 0)
(0 0 0)
(0 0 0)
(0 0 0)
(0 0 0)
(0 0 0)
(0 0 0)
(0 0 0)
(0 0 0)
(0 0 0)
(0 0 0)
(0 0 0)
(0 0 0)
(0 0 0)
(0 0 0)
(0 0 0)
(0 0 0)
(0 0 0)
(0 0 0)
(0 0 0)
(0 0 0)
(0 0 0)
(0 0 0)
(0 0 0)
(0 0 0)
(0 0 0)
(0 0 0)
(0 0 0)
(0 0 0)
(0 0 0)
(0 0 0)
(0 0 0)
(0 0 0)
(0 0 0)
(0 0 0)
(0 0 0)
(0 0 0)
(0 0 0)
(0 0 0)
(0 0 0)
(0 0 0)
(0 0 0)
(0 0 0)
(0 0 0)
(0 0 0)
(0 0 0)
(0 0 0)
(0 0 0)
(0 0 0)
(0 0 0)
(0 0 0)
(0 0 0)
(0 0 0)
(0 0 0)
(0 0 0)
(0 0 0)
(0 0 0)
(0 0 0)
(0 0 0)
(0 0 0)
(0 0 0)
(0 0 0)
(0 0 0)
(0 0 0)
(0 0 0)
(0 0 0)
(0 0 0)
(0 0 0)
(0 0 0)
(0 0 0)
(0 0 0)
(0 0 0)
(0 0 0)
(0 0 0)
(0 0 0)
(0 0 0)
(0 0 0)
(0 0 0)
(0 0 0)
(0 0 0)
(0 0 0)
(0 0 0)
(0 0 0)
(0 0 0)
(0 0 0)
(0 0 0)
(0 0 0)
(0 0 0)
(0 0 0)
(0 0 0)
(0 0 0)
(0 0 0)
(0 0 0)
(0 0 0)
(0 0 0)
(0 0 0)
(0 0 0)
(0 0 0)
(0 0 0)
(0 0 0)
(0 0 0)
(5.84763e-05 0.000115855 -0.000156978)
(-2.96709e-05 -7.59391e-06 -9.77375e-05)
(0.000341988 0.000200472 -0.000225063)
(0.000281792 0.000137968 0.000114069)
(0.000119204 0.0003873 -0.000375275)
(7.45316e-05 8.27286e-05 -0.000253659)
(0.000321445 0.000146859 1.40002e-05)
(0.000112855 -3.82443e-05 -4.4218e-05)
(-0.00041577 0.000295162 -0.000155732)
(0.000185943 0.000342022 -7.62345e-05)
(0.000177666 -9.08294e-05 -9.31138e-05)
(0.000309463 0.000148135 -0.000129946)
(-0.000177432 -0.000209151 -0.000116336)
(-0.000206763 -9.32264e-05 -0.000206131)
(4.84326e-05 0.00018417 -0.000514267)
(0.000395156 0.000165549 -0.000263628)
(-0.00258146 0.00219945 0.00212779)
(0.00102504 0.000822773 0.00400914)
(0.00130069 0.000341315 0.00224614)
(0.000970356 6.30208e-05 0.00577826)
(-0.00191137 0.00188551 0.0032831)
(-0.000158584 0.00187098 0.0040218)
(0.00175924 0.000722363 0.00391817)
(0.00172058 0.000143654 0.0015058)
(-0.00241365 0.00296552 0.00518249)
(-0.00127722 0.00160033 0.0041642)
(0.000192496 0.00123064 0.00428733)
(0.00146853 0.000736678 0.00318981)
(-0.00197019 0.00117525 0.00374123)
(-0.00238548 0.000921142 0.0016945)
(-0.000176008 0.00166892 0.00148753)
(0.00113105 0.000890485 0.00402344)
(-0.00133216 0.000454751 0.00456682)
(0.000633463 0.00034568 0.00339054)
(9.60453e-06 0.000438007 0.0033845)
(0.00105098 0.0010772 0.00459562)
(-0.000870406 0.00107449 0.00512245)
(-0.000509967 0.0012534 0.00380761)
(0.000237468 0.00111196 0.00402751)
(0.000852967 0.00134671 0.00421844)
(-0.000575109 0.00123569 0.00423223)
(-0.00010332 0.00126664 0.00372086)
(9.44515e-05 0.00125065 0.00389382)
(0.000925379 0.000916927 0.0045372)
(-7.32134e-05 0.000994611 0.0043462)
(0.000181458 0.000810493 0.00493513)
(-4.04009e-05 0.00119871 0.00428858)
(-0.000160006 0.000830563 0.00430833)
(-0.00011414 -6.45485e-05 0.0029101)
(-0.000487387 -0.000213496 0.0026205)
(-0.000213276 -7.26572e-06 0.00251953)
(5.75493e-05 0.00038557 0.0038627)
(-0.000230667 0.000327658 0.00347764)
(-0.000527902 9.84386e-05 0.00354141)
(-0.000154409 0.000124686 0.0031035)
(0.000764463 0.000798836 0.00412437)
(-0.000471032 0.000723322 0.00421612)
(-0.000176405 0.000609272 0.00378054)
(-7.81675e-06 0.000326783 0.00373844)
(0.000195279 0.00047359 0.00413212)
(-0.00040401 0.000592508 0.00579551)
(0.000355527 0.000436691 0.00492489)
(0.000292051 0.000537762 0.00454)
(0.000160667 0.00083442 0.00382366)
(-0.000592834 -0.000212366 0.00291987)
(-0.00121772 -0.000833069 0.00303552)
(-0.000464064 -0.000361808 0.00249153)
(-0.000395633 7.28877e-05 0.00391149)
(-0.000766291 0.00023884 0.00324782)
(-0.000112945 0.000661593 0.00312371)
(0.000205617 0.000159086 0.002854)
(-0.000427408 -0.000169981 0.00367977)
(-0.000795837 -6.27784e-05 0.00441445)
(-0.000688956 0.000232093 0.00411541)
(-0.000455031 0.000151397 0.00387985)
(0.00053827 0.000159473 0.00454901)
(-0.000354896 -0.000123235 0.00621759)
(-0.000201674 4.05037e-05 0.00466129)
(4.81869e-05 0.000404606 0.00433093)
(-0.000114189 0.000234373 0.00412535)
(-0.00032219 8.84059e-05 0.00241915)
(-8.33065e-05 0.000233881 0.00167716)
(-5.4703e-05 -9.9671e-05 0.00262172)
(0.000542224 0.000758428 0.00287947)
(-0.000302126 -8.80636e-06 0.00354054)
(-0.000154133 0.000266022 0.0026707)
(-3.6266e-05 0.00013172 0.00300836)
(-0.000293368 0.000546893 0.00312274)
(0.000195264 -8.06872e-05 0.00463631)
(-0.000136257 0.000104261 0.00421987)
(-0.000180213 9.93753e-05 0.00421834)
(-0.000252246 0.000366351 0.00360317)
(0.000590186 -0.000155953 0.00548144)
(0.000389958 7.54281e-05 0.00527933)
(7.00413e-05 8.17814e-05 0.00506973)
(0.000151838 6.22629e-05 0.00449085)
(0.000705378 -0.000493802 0.00166207)
(-0.000320017 -0.00028571 0.00161778)
(-0.000823261 -0.000331731 0.00200228)
(-3.8366e-05 -0.000316867 0.00186609)
(0.00064637 -0.000588006 0.00326407)
(3.70437e-05 -0.000830845 0.00257026)
(-0.000623378 -0.000490727 0.00363803)
(-0.00128858 -0.000285253 0.00300278)
(0.00054103 -0.000710109 0.00389054)
(0.000758374 -0.000709693 0.00434586)
(0.000501744 -0.000331368 0.00437367)
(4.83345e-05 -0.000546659 0.00403172)
(0.000990614 -0.000154527 0.00494272)
(0.00100549 -0.000560903 0.00527733)
(0.000636745 -0.000158428 0.00524019)
(0.000683927 -0.000839012 0.00483652)
(0 0 0)
(0 0 0)
(0 0 0)
(0 0 0)
(0 0 0)
(0 0 0)
(0 0 0)
(0 0 0)
(0 0 0)
(0 0 0)
(0 0 0)
(0 0 0)
(0 0 0)
(0 0 0)
(0 0 0)
(0 0 0)
(0 0 0)
(0 0 0)
(0 0 0)
(0 0 0)
(0 0 0)
(0 0 0)
(0 0 0)
(0 0 0)
(0 0 0)
(0 0 0)
(0 0 0)
(0 0 0)
(0 0 0)
(0 0 0)
(0 0 0)
(0 0 0)
(0 0 0)
(0 0 0)
(0 0 0)
(0 0 0)
(0 0 0)
(0 0 0)
(0 0 0)
(0 0 0)
(0 0 0)
(0 0 0)
(0 0 0)
(0 0 0)
(0 0 0)
(0 0 0)
(0 0 0)
(0 0 0)
(0 0 0)
(0 0 0)
(0 0 0)
(0 0 0)
(0 0 0)
(0 0 0)
(0 0 0)
(0 0 0)
(0 0 0)
(0 0 0)
(0 0 0)
(0 0 0)
(0 0 0)
(0 0 0)
(0 0 0)
(0 0 0)
(0 0 0)
(0 0 0)
(0 0 0)
(0 0 0)
(0 0 0)
(0 0 0)
(0 0 0)
(0 0 0)
(0 0 0)
(0 0 0)
(0 0 0)
(0 0 0)
(0 0 0)
(0 0 0)
(0 0 0)
(0 0 0)
(0 0 0)
(0 0 0)
(0 0 0)
(0 0 0)
(0 0 0)
(0 0 0)
(0 0 0)
(0 0 0)
(0 0 0)
(0 0 0)
(0 0 0)
(0 0 0)
(0 0 0)
(0 0 0)
(0 0 0)
(0 0 0)
(0 0 0)
(0 0 0)
(0 0 0)
(0 0 0)
(0 0 0)
(0 0 0)
(0 0 0)
(0 0 0)
(0 0 0)
(0 0 0)
(0 0 0)
(0 0 0)
(0 0 0)
(0 0 0)
(0 0 0)
(0 0 0)
(0 0 0)
(0 0 0)
(0 0 0)
(0 0 0)
(0 0 0)
(0 0 0)
(0 0 0)
(0 0 0)
(0 0 0)
(0 0 0)
(0 0 0)
(0 0 0)
(0 0 0)
(0 0 0)
(0 0 0)
(0 0 0)
(0 0 0)
(0 0 0)
(0 0 0)
(0 0 0)
(0 0 0)
(0 0 0)
(0 0 0)
(0 0 0)
(0 0 0)
(0 0 0)
(0 0 0)
(0 0 0)
(0 0 0)
(0 0 0)
(0 0 0)
(0 0 0)
(0 0 0)
(0 0 0)
(0 0 0)
(0 0 0)
(0 0 0)
(0 0 0)
(0 0 0)
(0 0 0)
(0 0 0)
(0 0 0)
(0 0 0)
(0 0 0)
(0 0 0)
(0 0 0)
(0 0 0)
(0 0 0)
(0 0 0)
(0 0 0)
(0 0 0)
(0 0 0)
(0 0 0)
(0 0 0)
(0 0 0)
(0 0 0)
(0 0 0)
(0 0 0)
(0 0 0)
(0 0 0)
(0 0 0)
(0 0 0)
(0 0 0)
(0 0 0)
(0 0 0)
(0 0 0)
(0 0 0)
(0 0 0)
(0 0 0)
(0 0 0)
(0 0 0)
(0 0 0)
(0 0 0)
(0 0 0)
(0 0 0)
(0 0 0)
(0 0 0)
(0 0 0)
(0 0 0)
(0 0 0)
(0 0 0)
(0 0 0)
(0 0 0)
(0 0 0)
(0 0 0)
(0 0 0)
(0 0 0)
(0 0 0)
(0 0 0)
(0 0 0)
(0 0 0)
(0 0 0)
(0 0 0)
(0 0 0)
(0 0 0)
(0 0 0)
(0 0 0)
(0 0 0)
(0 0 0)
(0 0 0)
(0 0 0)
(0 0 0)
(0 0 0)
(0 0 0)
(0 0 0)
(0 0 0)
(0 0 0)
(0 0 0)
(0 0 0)
(0 0 0)
(0 0 0)
(0 0 0)
(0 0 0)
(0 0 0)
(0 0 0)
(0 0 0)
(0 0 0)
(0 0 0)
(0 0 0)
(0 0 0)
(0 0 0)
(0 0 0)
(0 0 0)
(0 0 0)
(0 0 0)
(0 0 0)
(0 0 0)
(0 0 0)
(0 0 0)
(0 0 0)
(0 0 0)
(0 0 0)
(0 0 0)
(0 0 0)
(0 0 0)
(0 0 0)
(0 0 0)
(0 0 0)
(0 0 0)
(0 0 0)
(0 0 0)
(0 0 0)
(0 0 0)
(0 0 0)
(0 0 0)
(0 0 0)
(0 0 0)
(0 0 0)
(0 0 0)
(0 0 0)
(0 0 0)
(0 0 0)
(0 0 0)
(0 0 0)
(0 0 0)
(0 0 0)
(0 0 0)
(0 0 0)
(0 0 0)
(0 0 0)
(0.0007166 -9.76722e-05 -0.000120266)
(0.00152071 -0.000213115 -0.000307003)
(0.0011395 0.000372956 -9.2244e-05)
(0.000864284 0.000208453 1.2383e-05)
(0.000431982 -0.000107605 -0.000367414)
(0.000812176 0.000253602 -0.000595439)
(0.000774781 0.000848901 -0.000193856)
(0.00101344 0.000154549 -0.000508275)
(4.17835e-05 0.000313951 -0.000382443)
(0.00112735 -0.000426593 -0.000645354)
(0.00141937 3.32765e-05 -1.5207e-05)
(0.000672478 0.00118111 2.24108e-06)
(-0.000356429 -0.000357619 -0.00053296)
(0.000938916 -0.000819815 -0.000457865)
(0.00109932 -0.000801298 -0.000406876)
(0.000357474 -0.000129168 0.000494497)
(0.00134589 0.000763303 0.000891278)
(0.000608016 0.000752633 0.00130482)
(0.00163724 0.00171062 0.00327254)
(0.00216985 0.0027735 0.00478065)
(0.00112108 0.00134528 0.00242475)
(0.00156619 0.000450061 0.00200285)
(0.00155189 0.00111264 0.00438378)
(0.002092 0.00284009 0.00562884)
(0.00167399 0.000852556 0.00256254)
(0.00197468 -0.000210765 0.00373477)
(0.00214022 0.000158181 0.00468847)
(0.000940078 0.00103167 0.00550406)
(0.00120557 -0.000562121 0.0035892)
(0.00261644 -0.000875402 0.00172141)
(0.00281015 -0.000126804 0.00527163)
(0.00100644 0.000327851 0.00428509)
(0.000334157 0.000321425 0.00387855)
(0.000216805 0.00101578 0.00415096)
(0.000492477 0.00116769 0.00393698)
(0.00129723 0.00140468 0.00594492)
(0.00147535 0.00060925 0.00454589)
(0.000780376 8.53725e-06 0.00388994)
(0.000567221 0.00134777 0.00445662)
(0.00158014 0.00322085 0.00644034)
(0.000660155 0.000911324 0.00415242)
(0.000711265 0.00083563 0.00374264)
(0.00109181 0.000836814 0.00348229)
(0.00146536 0.00220028 0.00449031)
(0.0015996 -0.00020413 0.00483885)
(0.0019753 -0.000458975 0.0034213)
(0.00146495 -0.000418134 0.00412998)
(0.000911035 0.000508768 0.00381823)
(-4.67786e-05 0.0010236 0.00400966)
(0.000320158 0.000758756 0.00389803)
(0.00042943 0.000553373 0.00357622)
(-0.000363836 -0.00111663 0.00413696)
(0.000351253 0.000949627 0.00456328)
(0.000121985 0.000810498 0.0038385)
(0.000955855 0.00129107 0.00494294)
(0.000782169 0.000497866 0.00464169)
(-9.83167e-05 0.000146499 0.00428743)
(4.24369e-05 0.000530677 0.00374587)
(-0.000230156 0.00122319 0.00338776)
(-0.000325789 0.000823424 0.00325942)
(-9.04675e-05 -0.000106398 0.00435922)
(-5.11026e-05 -0.000181623 0.00372616)
(-0.000501451 -0.000117753 0.00342993)
(-0.000205939 0.000254454 0.00315216)
(2.40289e-05 0.000303093 0.00409942)
(-0.000150827 0.000285291 0.00364456)
(-0.000882994 0.000436542 0.00323259)
(-0.000633367 -0.000592327 0.00348429)
(1.55912e-05 0.000344101 0.00449463)
(-5.07179e-05 -2.43505e-05 0.00402329)
(-0.000204615 0.000212519 0.00398763)
(1.90893e-05 -0.000146604 0.0031662)
(-0.000183323 0.000307003 0.00475277)
(-0.00072213 -8.03399e-06 0.00457818)
(-0.000794559 -0.000892041 0.00407129)
(-0.000458395 1.49439e-05 0.00335925)
(-0.000410481 0.000152247 0.00520893)
(-0.00100559 0.000129046 0.00454918)
(-0.00165755 0.00049241 0.00417514)
(-0.00210319 0.000162525 0.005355)
(0.000223647 6.96408e-05 0.00441251)
(-0.000339111 -9.92177e-05 0.00393838)
(-0.000183326 0.00070536 0.00343338)
(2.04009e-05 0.000972761 0.00344997)
(9.22373e-05 -7.50305e-05 0.00477131)
(0.000268059 -0.000502524 0.00451695)
(0.000561075 0.000141824 0.00504197)
(0.000250962 0.00034793 0.00353605)
(1.54011e-05 -6.6137e-05 0.00539539)
(-0.000393749 -0.000288074 0.00531614)
(-0.000536039 0.000159525 0.00500783)
(-8.22271e-05 -3.80544e-05 0.00362133)
(-0.00011196 0.000204565 0.00561422)
(-0.000439693 9.83552e-05 0.00527685)
(-0.000910875 -6.20797e-05 0.00489843)
(-0.00102262 -0.000121887 0.0049056)
(-0.000134079 -0.000357123 0.0046608)
(9.31545e-06 -0.000796408 0.00384558)
(-0.000182838 -0.000254879 0.000534456)
(-0.000339762 -0.000264182 0.00141241)
(0.000558571 -0.000553938 0.00518033)
(0.000222046 -0.000854434 0.00540715)
(0.000230471 -1.9012e-05 0.00527723)
(-9.73654e-05 0.000318122 0.0038788)
(0.00164712 0.000766389 0.00508947)
(0.000201834 7.62104e-05 0.0056874)
(-0.000207475 7.16153e-06 0.00567428)
(0.000325969 -0.000293445 0.0036166)
(-0.000238712 -0.000238588 0.00520476)
(0.000235481 0.000493246 0.00580613)
(-0.000970834 -0.000421314 0.00506539)
(-0.00106513 0.00139135 0.00231105)
(0 0 0)
(0 0 0)
(0 0 0)
(0 0 0)
(0 0 0)
(0 0 0)
(0 0 0)
(0 0 0)
(0 0 0)
(0 0 0)
(0 0 0)
(0 0 0)
(0 0 0)
(0 0 0)
(0 0 0)
(0 0 0)
(0 0 0)
(0 0 0)
(0 0 0)
(0 0 0)
(0 0 0)
(0 0 0)
(0 0 0)
(0 0 0)
(0 0 0)
(0 0 0)
(0 0 0)
(0 0 0)
(0 0 0)
(0 0 0)
(0 0 0)
(0 0 0)
(0 0 0)
(0 0 0)
(0 0 0)
(0 0 0)
(0 0 0)
(0 0 0)
(0 0 0)
(0 0 0)
(0 0 0)
(0 0 0)
(0 0 0)
(0 0 0)
(0 0 0)
(0 0 0)
(0 0 0)
(0 0 0)
(0 0 0)
(0 0 0)
(0 0 0)
(0 0 0)
(0 0 0)
(0 0 0)
(0 0 0)
(0 0 0)
(0 0 0)
(0 0 0)
(0 0 0)
(0 0 0)
(0 0 0)
(0 0 0)
(0 0 0)
(0 0 0)
(0 0 0)
(0 0 0)
(0 0 0)
(0 0 0)
(0 0 0)
(0 0 0)
(0 0 0)
(0 0 0)
(0 0 0)
(0 0 0)
(0 0 0)
(0 0 0)
(0 0 0)
(0 0 0)
(0 0 0)
(0 0 0)
(0 0 0)
(0 0 0)
(0 0 0)
(0 0 0)
(0 0 0)
(0 0 0)
(0 0 0)
(0 0 0)
(0 0 0)
(0 0 0)
(0 0 0)
(0 0 0)
(0 0 0)
(0 0 0)
(0 0 0)
(0 0 0)
(0 0 0)
(0 0 0)
(0 0 0)
(0 0 0)
(0 0 0)
(0 0 0)
(0 0 0)
(0 0 0)
(0 0 0)
(0 0 0)
(0 0 0)
(0 0 0)
(0 0 0)
(0 0 0)
(0 0 0)
(0 0 0)
(0 0 0)
(0 0 0)
(0 0 0)
(0 0 0)
(0 0 0)
(0 0 0)
(0 0 0)
(0 0 0)
(0 0 0)
(0 0 0)
(0 0 0)
(0 0 0)
(0 0 0)
(0 0 0)
(0 0 0)
(0 0 0)
(0 0 0)
(0 0 0)
(0 0 0)
(0 0 0)
(0 0 0)
(0 0 0)
(0 0 0)
(0 0 0)
(0 0 0)
(0 0 0)
(0 0 0)
(0 0 0)
(0 0 0)
(0 0 0)
(0 0 0)
(0 0 0)
(0 0 0)
(0 0 0)
(0 0 0)
(0 0 0)
(0 0 0)
(0 0 0)
(0 0 0)
(0 0 0)
(0 0 0)
(0 0 0)
(0 0 0)
(0 0 0)
(0 0 0)
(0 0 0)
(0 0 0)
(0 0 0)
(0 0 0)
(0 0 0)
(0 0 0)
(0 0 0)
(0 0 0)
(0 0 0)
(0 0 0)
(0 0 0)
(0 0 0)
(0 0 0)
(0 0 0)
(0 0 0)
(0 0 0)
(0 0 0)
(0 0 0)
(0 0 0)
(0 0 0)
(0 0 0)
(0 0 0)
(0 0 0)
(0 0 0)
(0 0 0)
(0 0 0)
(0 0 0)
(0 0 0)
(0 0 0)
(0 0 0)
(0 0 0)
(0 0 0)
(0 0 0)
(0 0 0)
(0 0 0)
(0 0 0)
(0 0 0)
(0 0 0)
(0 0 0)
(0 0 0)
(0 0 0)
(0 0 0)
(0 0 0)
(0 0 0)
(0 0 0)
(0 0 0)
(0 0 0)
(0 0 0)
(0 0 0)
(0 0 0)
(0 0 0)
(0 0 0)
(0 0 0)
(0 0 0)
(0 0 0)
(0 0 0)
(0 0 0)
(0 0 0)
(0 0 0)
(0 0 0)
(0 0 0)
(0 0 0)
(0 0 0)
(0 0 0)
(0 0 0)
(0 0 0)
(0 0 0)
(0 0 0)
(0 0 0)
(0 0 0)
(0 0 0)
(0 0 0)
(0 0 0)
(0 0 0)
(0 0 0)
(0 0 0)
(0 0 0)
(0 0 0)
(0 0 0)
(0 0 0)
(0 0 0)
(0 0 0)
(0 0 0)
(0 0 0)
(0 0 0)
(0 0 0)
(0 0 0)
(0 0 0)
(0 0 0)
(0 0 0)
(0 0 0)
(0 0 0)
(0 0 0)
(0 0 0)
(0 0 0)
(0 0 0)
(0 0 0)
(0 0 0)
(0 0 0)
(0 0 0)
(0 0 0)
(0 0 0)
(0 0 0)
(0 0 0)
(0 0 0)
(0 0 0)
(0 0 0)
(0 0 0)
(0 0 0)
(0 0 0)
(0 0 0)
(0 0 0)
(0 0 0)
(0 0 0)
(0 0 0)
)
;

boundaryField
{
    inlet
    {
        type            zeroGradient;
    }
    outlet
    {
        type            zeroGradient;
    }
    wall
    {
        type            zeroGradient;
    }
    procBoundary1to0
    {
        type            processor;
        value           nonuniform List<vector> 
192
(
(9.89865e-05 0.00010597 -0.000291076)
(0.000283321 0.000395149 -0.000394541)
(0.000589252 0.000165221 -0.000281433)
(0.000820182 2.29769e-05 -0.000722461)
(-8.73826e-05 0.00107596 0.00377242)
(0.000123857 0.00017426 0.00508918)
(0.000267246 -7.53833e-05 0.00453923)
(0.000525411 0.000686534 0.00523234)
(0.000378498 0.000522439 0.00503666)
(-0.000242466 0.000681842 0.00582551)
(-0.00028541 0.000537984 0.0057206)
(-0.000597474 1.93737e-05 0.00626254)
(-9.00855e-05 0.000668899 0.00558401)
(-0.000240612 -0.000248802 0.0060231)
(-0.00044074 -0.000266474 0.00629442)
(-0.000482055 6.56502e-05 0.00654096)
(4.69501e-05 0.0004955 0.00606712)
(0.000516063 0.000338327 0.00718459)
(0.000365885 1.04962e-05 0.0067137)
(-0.000232485 -0.000241671 0.00673315)
(0.000435768 0.000102179 0.00618877)
(0.000272165 0.000194662 0.00649569)
(0.000168839 0.000135563 0.00702579)
(-3.17276e-06 -8.74474e-05 0.0069718)
(0.000129156 -0.000523811 0.00583757)
(0.000284592 -0.000137394 0.00638883)
(0.000300919 0.000156559 0.0068102)
(0.000403217 0.00103248 0.00651403)
(0 0 0)
(0 0 0)
(0 0 0)
(0 0 0)
(0 0 0)
(0 0 0)
(0 0 0)
(0 0 0)
(0 0 0)
(0 0 0)
(0 0 0)
(0 0 0)
(0 0 0)
(0 0 0)
(0 0 0)
(0 0 0)
(0 0 0)
(0 0 0)
(0 0 0)
(0 0 0)
(0 0 0)
(0 0 0)
(0 0 0)
(0 0 0)
(0 0 0)
(0 0 0)
(0 0 0)
(0 0 0)
(0 0 0)
(0 0 0)
(0 0 0)
(0 0 0)
(0 0 0)
(0 0 0)
(0 0 0)
(0 0 0)
(0 0 0)
(0 0 0)
(0 0 0)
(0 0 0)
(0 0 0)
(0 0 0)
(0 0 0)
(0 0 0)
(0 0 0)
(0 0 0)
(0 0 0)
(0 0 0)
(0 0 0)
(0 0 0)
(0 0 0)
(0 0 0)
(0 0 0)
(0 0 0)
(0 0 0)
(0 0 0)
(0 0 0)
(0 0 0)
(0 0 0)
(0 0 0)
(0 0 0)
(0 0 0)
(0 0 0)
(0 0 0)
(0 0 0)
(0 0 0)
(0 0 0)
(0 0 0)
(0.000254495 5.71832e-05 -2.49862e-05)
(-0.000215223 0.000470772 -7.70111e-05)
(0.000276293 -6.17535e-05 -0.00452822)
(0.000192631 0.000335563 -1.50708e-05)
(-0.0011788 4.72005e-05 0.00527782)
(-0.0035428 -0.00018702 0.00694082)
(-0.00119347 0.00151825 0.00394421)
(0.000689868 0.00131718 0.0049513)
(-0.00189915 -0.000247123 0.00545369)
(-0.00218756 0.000741911 0.00574348)
(-0.000305076 0.000505259 0.00502439)
(-0.000233382 0.000718599 0.00531738)
(-6.33999e-05 -3.03604e-05 0.00425429)
(-0.000450674 0.000588308 0.00429021)
(-9.68138e-05 -8.70696e-05 0.00482474)
(-4.25121e-05 0.00101305 0.00599843)
(5.36583e-05 -0.000346095 0.00346534)
(-0.000429622 7.3815e-05 0.00419262)
(-0.000456365 -0.00034575 0.00556225)
(-0.000111635 0.000191896 0.00653574)
(-0.000657097 0.0010708 0.00356651)
(-0.000693815 0.000363187 0.00443997)
(0.000392879 1.84481e-05 0.00546762)
(0.000471783 6.98478e-05 0.00570658)
(0.000574977 0.000152895 0.00275531)
(-0.0001387 -0.000254889 0.00460598)
(0.000673216 9.41671e-05 0.0054506)
(0.000762111 -0.00023267 0.00583663)
(0 0 0)
(0 0 0)
(0 0 0)
(0 0 0)
(0 0 0)
(0 0 0)
(0 0 0)
(0 0 0)
(0 0 0)
(0 0 0)
(0 0 0)
(0 0 0)
(0 0 0)
(0 0 0)
(0 0 0)
(0 0 0)
(0 0 0)
(0 0 0)
(0 0 0)
(0 0 0)
(0 0 0)
(0 0 0)
(0 0 0)
(0 0 0)
(0 0 0)
(0 0 0)
(0 0 0)
(0 0 0)
(0 0 0)
(0 0 0)
(0 0 0)
(0 0 0)
(0 0 0)
(0 0 0)
(0 0 0)
(0 0 0)
(0 0 0)
(0 0 0)
(0 0 0)
(0 0 0)
(0 0 0)
(0 0 0)
(0 0 0)
(0 0 0)
(0 0 0)
(0 0 0)
(0 0 0)
(0 0 0)
(0 0 0)
(0 0 0)
(0 0 0)
(0 0 0)
(0 0 0)
(0 0 0)
(0 0 0)
(0 0 0)
(0 0 0)
(0 0 0)
(0 0 0)
(0 0 0)
(0 0 0)
(0 0 0)
(0 0 0)
(0 0 0)
(0 0 0)
(0 0 0)
(0 0 0)
(0 0 0)
)
;
    }
    procBoundary1to3
    {
        type            processor;
        value           nonuniform List<vector> 
192
(
(-5.6672e-05 0.000680071 -0.000563241)
(-9.36984e-05 -2.6299e-06 -3.33516e-05)
(-0.000296564 -0.00121743 -1.70387e-05)
(0.000313828 -0.000292273 -0.000265672)
(-0.002113 -0.000226162 0.00422237)
(-0.000851109 -0.000223281 0.00312775)
(0.00056202 -0.00127201 0.00399104)
(-0.000607745 -0.000866755 0.00463255)
(0.000436389 0.000563655 0.006121)
(0.000162079 -0.000459632 0.00503171)
(-0.000646025 -9.03397e-05 0.00584864)
(0.000218264 0.000350955 0.00559416)
(-3.23052e-05 0.000199018 0.00582797)
(5.60915e-05 -2.42218e-05 0.00546348)
(-0.000115294 -0.000210876 0.00500784)
(-0.000499393 0.000147835 0.00538292)
(8.07566e-05 0.000192412 0.00644479)
(0.000290976 0.000138622 0.00598841)
(0.000155479 -0.000175508 0.00588416)
(-6.96318e-05 5.23172e-05 0.00542285)
(0.000309273 0.000306353 0.0065183)
(0.000450431 0.00039645 0.00603558)
(0.000666254 0.000139973 0.00590772)
(0.00040466 0.000314431 0.00548182)
(0.00060028 0.000987667 0.00605073)
(0.000383916 0.00052156 0.00591106)
(0.000831205 0.000824536 0.0056737)
(0.000462467 0.00025867 0.0057221)
(0 0 0)
(-0.000106223 0.000311866 0.00547435)
(0 0 0)
(0 0 0)
(0 0 0)
(0 0 0)
(0 0 0)
(0 0 0)
(0 0 0)
(0 0 0)
(0 0 0)
(0 0 0)
(0 0 0)
(0 0 0)
(0 0 0)
(0 0 0)
(0 0 0)
(0 0 0)
(0 0 0)
(0 0 0)
(0 0 0)
(0 0 0)
(0 0 0)
(0 0 0)
(0 0 0)
(0 0 0)
(0 0 0)
(0 0 0)
(0 0 0)
(0 0 0)
(0 0 0)
(0 0 0)
(0 0 0)
(0 0 0)
(0 0 0)
(0 0 0)
(0 0 0)
(0 0 0)
(0 0 0)
(0 0 0)
(0 0 0)
(0 0 0)
(0 0 0)
(0 0 0)
(0 0 0)
(0 0 0)
(0 0 0)
(0 0 0)
(0 0 0)
(0 0 0)
(0 0 0)
(0 0 0)
(0 0 0)
(0 0 0)
(0 0 0)
(0 0 0)
(0 0 0)
(0 0 0)
(0 0 0)
(0 0 0)
(0 0 0)
(0 0 0)
(0 0 0)
(0 0 0)
(0 0 0)
(0 0 0)
(0 0 0)
(0 0 0)
(-3.66404e-05 -0.000718985 -0.000453404)
(0.000804786 -0.000571927 -0.000124726)
(0.00130374 0.000113936 -0.000652808)
(0.000532901 -0.000661553 -0.00011117)
(-0.000276441 -0.00105597 0.00355273)
(0.00234465 -0.00117343 0.00148474)
(0.00327316 -0.00115687 0.00537631)
(0.000607053 -0.00260086 0.00502443)
(0.000561466 -0.000453994 0.00432503)
(0.00135208 -0.000899262 0.00435026)
(0.00052535 -0.00116766 0.00345461)
(1.7169e-06 -0.00250702 0.00449055)
(1.48895e-05 -0.000430536 0.00486467)
(5.53206e-05 -0.000127719 0.0039338)
(0.000111224 -0.000622956 0.00286852)
(9.75307e-05 -0.000386999 0.00213558)
(-0.000132383 -9.48805e-05 0.00508191)
(-0.000375673 -9.45608e-05 0.00441967)
(-0.000616311 0.00060896 0.00363934)
(-0.000599806 0.000209381 0.00254786)
(0.000233898 0.000310907 0.00544063)
(-5.78484e-05 0.000266178 0.00521379)
(8.85144e-05 9.82531e-06 0.00459493)
(-0.000346181 4.9743e-05 0.00351353)
(0.000368427 0.000542584 0.00539491)
(0.000380331 0.00024946 0.00529236)
(0.000213005 0.000306926 0.00492098)
(-0.000572057 0.00134068 0.00438733)
(0 0 0)
(0 0 0)
(0 0 0)
(0 0 0)
(0 0 0)
(0 0 0)
(0 0 0)
(0 0 0)
(0 0 0)
(0 0 0)
(0 0 0)
(0 0 0)
(0 0 0)
(0 0 0)
(0 0 0)
(0 0 0)
(0 0 0)
(0 0 0)
(0 0 0)
(0 0 0)
(0 0 0)
(0 0 0)
(0 0 0)
(0 0 0)
(0 0 0)
(0 0 0)
(0 0 0)
(0 0 0)
(0 0 0)
(0 0 0)
(0 0 0)
(0 0 0)
(0 0 0)
(0 0 0)
(0 0 0)
(0 0 0)
(0 0 0)
(0 0 0)
(0 0 0)
(0 0 0)
(0 0 0)
(0 0 0)
(0 0 0)
(0 0 0)
(0 0 0)
(0 0 0)
(0 0 0)
(0 0 0)
(0 0 0)
(0 0 0)
(0 0 0)
(0 0 0)
(0 0 0)
(0 0 0)
(0 0 0)
(0 0 0)
(0 0 0)
(0 0 0)
(0 0 0)
(0 0 0)
(0 0 0)
(0 0 0)
(0 0 0)
(0 0 0)
(0 0 0)
(0 0 0)
(0 0 0)
(0 0 0)
)
;
    }
}


// ************************************************************************* //
