/*--------------------------------*- C++ -*----------------------------------*\
| =========                 |                                                 |
| \\      /  F ield         | OpenFOAM: The Open Source CFD Toolbox           |
|  \\    /   O peration     | Version:  2506                                  |
|   \\  /    A nd           | Website:  www.openfoam.com                      |
|    \\/     M anipulation  |                                                 |
\*---------------------------------------------------------------------------*/
FoamFile
{
    version     2.0;
    format      ascii;
    arch        "LSB;label=32;scalar=64";
    class       surfaceScalarField;
    location    "0.06";
    object      phi;
}
// * * * * * * * * * * * * * * * * * * * * * * * * * * * * * * * * * * * * * //

dimensions      [0 3 -1 0 0 0 0];

oriented        oriented;

internalField   nonuniform List<scalar> 
3120
(
5.51775e-09
2.55132e-09
2.03853e-08
5.15827e-09
-4.51834e-09
-5.70618e-09
5.76161e-08
-2.6681e-09
1.3986e-09
-4.53739e-10
3.13289e-08
1.89831e-09
-1.05942e-09
3.12781e-08
3.46569e-09
4.3622e-09
-2.29797e-09
-3.36678e-09
4.73518e-08
3.41985e-10
-1.90919e-09
3.16179e-08
-1.99521e-10
-1.27758e-09
3.89511e-08
2.31144e-09
2.99111e-08
3.08532e-09
-4.17556e-10
3.02322e-09
3.03273e-08
2.47681e-09
-5.05136e-10
3.36638e-08
4.41445e-09
2.35742e-09
3.03734e-08
-2.40928e-10
4.43723e-08
-2.99368e-10
-1.77076e-09
3.03896e-08
4.32252e-09
2.19323e-08
2.00837e-09
3.32721e-08
3.12765e-08
6.56058e-09
-2.17559e-09
-2.89976e-09
3.01516e-08
-2.71111e-09
3.56152e-09
1.81236e-09
5.02941e-08
-2.27503e-10
7.44239e-10
-1.35579e-09
3.5084e-08
4.17888e-10
-1.2567e-10
2.90574e-08
1.69132e-09
1.39933e-09
6.02864e-09
3.43723e-09
3.23085e-08
1.2982e-09
1.19538e-09
3.69653e-08
2.03622e-09
1.27878e-09
3.55785e-08
-4.11218e-10
3.0231e-08
2.00196e-09
2.16255e-09
2.67354e-09
2.50273e-08
1.97792e-09
-1.29089e-09
3.63347e-08
5.03188e-10
6.52488e-10
3.24745e-08
6.03345e-09
3.24941e-08
5.93672e-09
1.20699e-09
3.42623e-08
4.48395e-09
1.88112e-08
3.62771e-09
3.88251e-08
3.75043e-08
-7.45602e-10
-4.13485e-09
7.5976e-10
3.41131e-08
-1.68321e-09
4.83728e-10
3.01986e-09
4.12231e-08
1.43248e-09
2.43657e-09
1.37043e-09
3.10514e-08
7.09284e-10
2.06775e-09
3.53478e-08
-4.20445e-09
-1.71723e-09
-2.12447e-10
1.78682e-10
3.36321e-08
2.59058e-10
2.03464e-09
3.7479e-08
3.0891e-09
-2.99891e-10
3.44187e-08
-8.8328e-11
3.45308e-08
9.45396e-10
2.1746e-09
5.60367e-11
2.45112e-08
-2.02964e-09
2.05327e-09
4.05202e-08
2.03507e-09
1.50147e-10
2.79597e-08
-3.98774e-10
3.21737e-08
2.66586e-09
3.26698e-09
3.88606e-08
-3.14644e-09
3.3415e-08
-1.07843e-10
3.67868e-08
3.06603e-08
3.14541e-09
-5.44939e-10
2.51871e-09
2.48164e-08
2.81509e-09
1.513e-09
2.38995e-09
3.09452e-08
5.83e-09
2.73826e-09
2.61183e-09
2.76874e-08
-4.73087e-10
2.03463e-09
3.40221e-08
-8.89351e-10
2.91884e-09
-7.13066e-10
3.02555e-09
2.63681e-08
2.44533e-09
3.1763e-09
3.35342e-08
1.95957e-09
2.79889e-09
3.47174e-08
2.14684e-09
3.52778e-08
1.10023e-09
-9.54705e-10
-1.58821e-09
3.57121e-08
1.37324e-09
6.15877e-09
3.52098e-08
6.24948e-10
-4.1542e-10
3.19223e-08
2.27082e-09
3.55246e-08
-2.84991e-09
7.09878e-09
2.77726e-08
-5.79803e-09
5.80289e-08
2.43031e-09
3.0047e-08
4.83698e-08
-4.65885e-09
-2.57819e-09
-1.37255e-09
3.33492e-08
2.23835e-09
1.71262e-10
-2.3661e-09
2.85424e-08
2.01945e-09
8.51698e-10
-1.17112e-09
2.67592e-08
1.41899e-09
4.56133e-10
2.93176e-08
-2.32249e-10
5.33235e-09
-2.32055e-09
3.39131e-10
2.85255e-08
1.76546e-09
4.24054e-09
2.28416e-08
2.47569e-09
1.04497e-09
3.1791e-08
-1.26396e-09
3.17662e-08
7.70737e-09
1.98265e-12
-1.20211e-09
3.60111e-08
-1.77663e-09
-1.00705e-09
4.22361e-08
1.20587e-09
2.62138e-10
2.97227e-08
3.66852e-09
2.96399e-08
2.15815e-09
1.0431e-09
1.68536e-08
-9.20728e-10
4.79348e-08
3.95394e-09
2.15512e-08
6.0855e-08
-1.97625e-09
-4.41386e-10
-9.7719e-09
4.1602e-08
1.32968e-09
-8.0038e-10
-5.17291e-09
3.53763e-08
-1.30209e-09
1.85143e-09
-4.86922e-09
2.2575e-08
6.40151e-09
-2.75235e-09
4.12455e-08
7.57247e-10
-8.08129e-09
3.43748e-10
-5.20801e-10
2.05531e-08
3.70582e-10
-9.16732e-10
1.85586e-08
4.99198e-09
-2.86307e-09
2.51635e-08
-7.04311e-10
3.49861e-08
-2.76065e-10
1.85165e-10
1.47291e-09
3.13089e-08
-2.36358e-09
-1.37665e-09
4.52447e-08
3.98172e-09
2.70106e-09
1.78132e-08
2.26631e-09
2.59372e-08
4.71374e-09
-1.85926e-09
1.39999e-08
2.4361e-09
3.26926e-08
5.52447e-09
1.72854e-08
6.18527e-08
7.98922e-10
-3.22698e-10
2.00367e-09
4.08989e-08
-1.38668e-09
3.09876e-10
1.01167e-09
3.27309e-08
1.00122e-09
-1.99992e-09
-3.14575e-10
2.76992e-08
-2.49874e-09
9.74538e-11
3.91772e-08
3.71619e-10
-3.9906e-10
-5.20492e-11
3.17742e-10
2.87003e-08
-4.10737e-10
-1.36088e-09
2.129e-08
-2.69558e-10
3.73922e-10
2.43343e-08
3.6813e-10
3.52997e-08
-8.53203e-10
-1.1236e-09
1.18615e-09
3.10264e-08
1.47241e-09
1.0249e-09
4.02633e-08
-9.45483e-10
-2.10393e-11
2.06266e-08
-2.51285e-09
2.97163e-08
-1.84241e-09
-1.27497e-09
1.88542e-08
6.33804e-10
3.17056e-08
-3.9862e-09
2.35411e-08
4.8274e-08
3.18919e-09
9.46703e-10
-4.10946e-10
4.13801e-08
-2.00071e-10
1.03278e-09
-1.83384e-09
3.28671e-08
1.61079e-09
1.43251e-09
-2.35659e-09
2.9619e-08
3.70299e-11
-2.76056e-09
3.78613e-08
2.28683e-09
3.22092e-09
-2.95052e-10
-1.81253e-09
2.9801e-08
-4.32463e-10
-4.50379e-09
2.40955e-08
6.62532e-10
-3.70915e-09
2.45917e-08
-3.56393e-09
3.64097e-08
3.55627e-10
-2.24241e-09
-1.35642e-09
3.13799e-08
-5.22309e-10
-2.0421e-09
3.60801e-08
7.0331e-10
-2.07815e-09
1.77696e-08
-4.99088e-09
3.26813e-08
-8.34281e-10
-3.13875e-09
2.33917e-08
-1.12336e-09
2.76355e-08
4.41e-11
2.10253e-08
4.22618e-08
2.64539e-09
3.57316e-09
4.87834e-09
3.81008e-08
-2.93095e-09
8.6349e-10
3.39767e-09
3.47703e-08
-2.59206e-09
-2.90845e-09
4.17188e-09
3.3815e-08
-4.59708e-09
1.59063e-09
3.65999e-08
-8.81153e-10
-2.35831e-09
3.01345e-09
1.894e-09
3.34507e-08
-3.13033e-10
-4.51646e-10
3.12708e-08
-5.33118e-09
2.49529e-09
3.12862e-08
8.2435e-10
3.61535e-08
-4.30794e-09
1.17127e-09
2.24896e-10
3.32603e-08
2.63798e-09
-8.7107e-11
3.4248e-08
-5.0493e-09
-1.60932e-09
2.95616e-08
-2.15224e-09
3.51387e-08
-4.52986e-09
7.14412e-10
3.10147e-08
-7.00906e-10
3.2236e-08
-6.04688e-09
3.06615e-08
3.77903e-08
-1.9536e-09
1.72786e-09
2.78694e-09
3.70777e-08
-2.26555e-09
5.59666e-10
2.00401e-09
3.59269e-08
-1.99252e-09
-8.96922e-10
1.88245e-09
3.56706e-08
-2.28104e-09
2.32366e-10
3.66192e-08
-1.03135e-10
-1.0445e-09
1.25406e-09
1.23542e-09
3.53261e-08
-2.30945e-10
1.89742e-10
3.45699e-08
-2.31027e-09
6.84344e-10
3.45637e-08
-2.72635e-10
3.63574e-08
-2.00833e-09
3.72086e-10
-4.00088e-11
3.49106e-08
1.17658e-10
-3.69664e-10
3.50617e-08
-2.61352e-09
-1.14557e-09
3.41232e-08
-1.38591e-09
3.61465e-08
-2.50696e-09
-2.01018e-11
3.43519e-08
-8.40263e-10
3.46323e-08
-3.02565e-09
3.45338e-08
3.67752e-08
-1.81967e-09
6.17029e-10
1.43271e-09
3.70031e-08
-1.30091e-09
-1.87048e-11
1.12933e-09
3.66134e-08
-1.18047e-09
-6.72918e-10
1.0362e-09
3.65822e-08
-1.2938e-09
4.47665e-10
3.69327e-08
-5.03327e-10
-9.3064e-10
4.0597e-10
7.58978e-10
3.62821e-08
-2.79897e-10
3.39469e-10
3.60451e-08
-1.11416e-09
3.33413e-10
3.61005e-08
-1.2886e-11
3.67698e-08
-1.06576e-09
8.43499e-11
-6.17297e-12
3.60074e-08
-3.14172e-10
-2.17923e-10
3.60174e-08
-1.28716e-09
-5.22132e-10
3.59518e-08
-6.22018e-10
3.67163e-08
-1.2472e-09
-1.93918e-10
3.58602e-08
-6.73458e-10
3.59488e-08
-1.43107e-09
3.60999e-08
3.69098e-08
-1.11737e-09
2.706e-10
7.58272e-10
3.71305e-08
-7.83921e-10
-2.52262e-11
5.95566e-10
3.69918e-08
-6.78487e-10
-2.85632e-10
4.78023e-10
3.70021e-08
-6.37852e-10
1.74695e-10
3.71341e-08
-2.41493e-10
-4.20367e-10
1.32285e-10
4.15367e-10
3.68136e-08
-1.8988e-10
2.24933e-10
3.67379e-08
-5.14325e-10
1.09707e-10
3.67932e-08
-9.18808e-11
3.70451e-08
-5.22791e-10
-3.75601e-11
-1.11282e-11
3.6665e-08
-3.07986e-10
-1.58219e-10
3.66712e-08
-6.6519e-10
-3.1186e-10
3.6731e-08
-4.07336e-10
3.70364e-08
-6.6937e-10
-1.92041e-10
3.6618e-08
-4.74978e-10
3.66701e-08
-7.66858e-10
3.6799e-08
3.71274e-08
-6.97746e-10
1.1878e-10
3.88087e-10
3.72586e-08
-4.32492e-10
-3.08418e-11
2.98878e-10
3.72053e-08
-3.62917e-10
-1.48303e-10
2.19164e-10
3.72172e-08
-3.17002e-10
7.7149e-11
3.72707e-08
-1.39308e-10
-2.22815e-10
3.52485e-11
2.08864e-10
3.71117e-08
-1.2325e-10
1.08469e-10
3.7087e-08
-2.58186e-10
2.43864e-11
3.7123e-08
-8.39251e-11
3.7224e-08
-2.75598e-10
-5.71863e-11
-2.06758e-11
3.70341e-08
-2.08716e-10
-1.11521e-10
3.70432e-08
-3.51388e-10
-1.97984e-10
3.70965e-08
-2.65215e-10
3.7227e-08
-3.60125e-10
-1.46505e-10
3.70198e-08
-2.9695e-10
3.70532e-08
-4.17378e-10
3.71345e-08
3.72799e-08
-3.99849e-10
5.53317e-11
1.92591e-10
3.7347e-08
-2.28024e-10
-1.90389e-11
1.40884e-10
3.73241e-08
-1.85327e-10
-7.40388e-11
9.11003e-11
3.73311e-08
-1.50026e-10
1.89329e-11
3.73537e-08
-6.43389e-11
-1.11641e-10
6.39156e-12
9.59627e-11
3.7276e-08
-7.2944e-11
3.95952e-11
3.72678e-08
-1.33121e-10
-1.35925e-11
3.72882e-08
-7.40372e-11
3.73321e-08
-1.47796e-10
-4.77204e-11
-2.8447e-11
3.72371e-08
-1.26992e-10
-8.25828e-11
3.72449e-08
-1.88356e-10
-1.33547e-10
3.72783e-08
-1.76983e-10
3.73385e-08
-1.96425e-10
-1.00428e-10
3.72337e-08
-1.77887e-10
3.72552e-08
-2.30278e-10
3.73023e-08
3.73725e-08
-2.26208e-10
2.62022e-11
9.23659e-11
3.74019e-08
-1.16814e-10
-1.19027e-11
6.21058e-11
3.73913e-08
-9.11378e-11
-3.95062e-11
3.18072e-11
3.73946e-08
-6.76222e-11
-6.56479e-12
3.74048e-08
-2.46332e-11
-5.92282e-11
-3.24744e-12
3.88394e-11
3.7367e-08
-4.36773e-11
6.12639e-12
3.73644e-08
-7.27591e-11
-2.61491e-11
3.73755e-08
-6.02667e-11
3.73963e-08
-8.28075e-11
-3.52753e-11
-2.95435e-11
3.73483e-08
-7.63296e-11
-6.1895e-11
3.73542e-08
-1.04946e-10
-9.23295e-11
3.73734e-08
-1.19086e-10
3.74033e-08
-1.10575e-10
-6.69683e-11
3.73489e-08
-1.06602e-10
3.73628e-08
-1.3077e-10
3.73897e-08
3.74259e-08
-1.29724e-10
1.13767e-11
4.17091e-11
3.7435e-08
-5.76216e-11
-8.48978e-12
2.3794e-11
3.74298e-08
-4.2344e-11
-2.3069e-11
5.56256e-12
3.74313e-08
-2.74434e-11
-1.5402e-11
3.74361e-08
-4.97712e-12
-3.37655e-11
-6.28677e-12
1.14142e-11
3.7418e-08
-2.73178e-11
-7.9617e-12
3.74173e-08
-4.22328e-11
-2.7258e-11
3.74235e-08
-4.66842e-11
3.74341e-08
-4.84664e-11
-2.54352e-11
-2.66964e-11
3.74095e-08
-4.67712e-11
-4.61518e-11
3.74137e-08
-6.08822e-11
-6.43983e-11
3.74248e-08
-8.04579e-11
3.74405e-08
-6.42364e-11
-4.4598e-11
3.74117e-08
-6.49207e-11
3.74206e-08
-7.64389e-11
3.74361e-08
3.74559e-08
-7.57852e-11
3.82388e-12
1.67848e-11
3.74547e-08
-2.6922e-11
-6.76868e-12
6.07673e-12
3.74521e-08
-1.77597e-11
-1.47727e-11
-4.84683e-12
3.74528e-08
-8.58098e-12
-1.65849e-11
3.74552e-08
3.37108e-12
-2.05862e-11
-6.85418e-12
-6.21519e-13
3.74466e-08
-1.79619e-11
-1.22475e-11
3.74467e-08
-2.58732e-11
-2.37744e-11
3.74503e-08
-3.49361e-11
3.7456e-08
-2.95277e-11
-1.84082e-11
-2.21049e-11
3.74433e-08
-2.95427e-11
-3.38909e-11
3.74463e-08
-3.66967e-11
-4.48611e-11
3.74528e-08
-5.43883e-11
3.74616e-08
-3.84722e-11
-3.00748e-11
3.74459e-08
-4.04596e-11
3.74517e-08
-4.59624e-11
3.74609e-08
3.74721e-08
-4.52419e-11
1.01889e-13
5.13962e-12
3.74664e-08
-1.15167e-11
-5.58649e-12
-1.34704e-12
3.74651e-08
-5.98678e-12
-1.01041e-11
-7.92389e-12
3.74655e-08
-2.70768e-13
-1.45791e-11
3.74668e-08
6.15407e-12
-1.32621e-11
-6.39095e-12
-4.95147e-12
3.74627e-08
-1.22721e-11
-1.2048e-11
3.74632e-08
-1.65341e-11
-1.89643e-11
3.74654e-08
-2.5432e-11
3.74687e-08
-1.85892e-11
-1.34503e-11
-1.7127e-11
3.74618e-08
-1.91936e-11
-2.43572e-11
3.7464e-08
-2.28311e-11
-3.09966e-11
3.7468e-08
-3.66403e-11
3.74732e-08
-2.36674e-11
-2.06292e-11
3.74643e-08
-2.58045e-11
3.74682e-08
-2.83394e-11
3.74738e-08
3.74805e-08
-2.7595e-11
-1.45897e-12
1.41001e-13
3.74732e-08
-4.1116e-12
-4.54903e-12
-3.82091e-12
3.74727e-08
-7.18543e-13
-7.08181e-12
-7.77009e-12
3.74729e-08
2.7186e-12
-1.15905e-11
3.74736e-08
6.3519e-12
-8.82061e-12
-5.4229e-12
-5.76295e-12
3.74718e-08
-8.51323e-12
-1.0134e-11
3.74723e-08
-1.08139e-11
-1.42877e-11
3.74738e-08
-1.80592e-11
3.74758e-08
-1.19508e-11
-9.77227e-12
-1.26583e-11
3.74719e-08
-1.2652e-11
-1.71217e-11
3.74736e-08
-1.44842e-11
-2.11577e-11
3.74762e-08
-2.45031e-11
3.74794e-08
-1.48293e-11
-1.42075e-11
3.74739e-08
-1.66721e-11
3.74767e-08
-1.77561e-11
3.74803e-08
3.74845e-08
-1.70867e-11
-1.83672e-12
-1.68387e-12
3.74773e-08
-7.8184e-13
-3.49501e-12
-4.07604e-12
3.74771e-08
1.25751e-12
-4.91485e-12
-6.41193e-12
3.74772e-08
3.34429e-12
-8.61141e-12
3.74775e-08
5.43282e-12
-5.87757e-12
-4.21879e-12
-5.15286e-12
3.74768e-08
-5.81939e-12
-7.81679e-12
3.74774e-08
-7.064e-12
-1.02842e-11
3.74784e-08
-1.24743e-11
3.74796e-08
-7.69972e-12
-6.86481e-12
-9.05857e-12
3.74774e-08
-8.26682e-12
-1.17589e-11
3.74787e-08
-9.1872e-12
-1.41819e-11
3.74805e-08
-1.61399e-11
3.74825e-08
-9.3142e-12
-9.54878e-12
3.74789e-08
-1.0678e-11
3.7481e-08
-1.11028e-11
3.74834e-08
3.74861e-08
-1.0591e-11
-1.59912e-12
-2.03655e-12
3.74797e-08
5.0668e-13
-2.49876e-12
-3.43603e-12
3.74797e-08
1.72162e-12
-3.28803e-12
-4.77907e-12
3.74797e-08
2.96023e-12
-6.02652e-12
3.74797e-08
4.16331e-12
-3.82951e-12
-2.98165e-12
-4.06723e-12
3.74798e-08
-3.82234e-12
-5.63229e-12
3.74803e-08
-4.50078e-12
-7.05747e-12
3.74809e-08
-8.30258e-12
3.74816e-08
-4.87448e-12
-4.53404e-12
-6.2786e-12
3.74804e-08
-5.22892e-12
-7.8318e-12
3.74814e-08
-5.69935e-12
-9.22285e-12
3.74826e-08
-1.03274e-11
3.74839e-08
-5.75802e-12
-6.0769e-12
3.74816e-08
-6.60927e-12
3.74831e-08
-6.77732e-12
3.74848e-08
3.74865e-08
-6.4638e-12
-1.17084e-12
-1.74273e-12
3.74812e-08
8.17953e-13
-1.66507e-12
-2.51027e-12
3.74812e-08
1.51997e-12
-2.09902e-12
-3.25017e-12
3.7481e-08
2.23569e-12
-3.93723e-12
3.74808e-08
2.91603e-12
-2.40765e-12
-1.92909e-12
-2.88393e-12
3.74814e-08
-2.38593e-12
-3.7517e-12
3.74818e-08
-2.76089e-12
-4.53978e-12
3.74821e-08
-5.22704e-12
3.74825e-08
-2.99639e-12
-2.78574e-12
-4.10913e-12
3.74821e-08
-3.15822e-12
-4.95025e-12
3.74828e-08
-3.41572e-12
-5.69587e-12
3.74836e-08
-6.28952e-12
3.74844e-08
-3.46608e-12
-3.61865e-12
3.74831e-08
-3.89578e-12
3.74841e-08
-3.99146e-12
3.74852e-08
3.74863e-08
-3.8465e-12
-9.19642e-13
-1.18883e-12
3.7482e-08
7.00517e-13
-1.14317e-12
-1.59228e-12
3.74819e-08
1.0867e-12
-1.33506e-12
-1.99026e-12
3.74816e-08
1.47194e-12
-2.37149e-12
3.74812e-08
1.83561e-12
-1.51552e-12
-1.31714e-12
-1.79486e-12
3.74823e-08
-1.52807e-12
-2.25363e-12
3.74825e-08
-1.69858e-12
-2.67877e-12
3.74827e-08
-3.05989e-12
3.74828e-08
-1.84644e-12
-1.7674e-12
-2.41404e-12
3.74829e-08
-1.94075e-12
-2.84508e-12
3.74834e-08
-2.05771e-12
-3.22779e-12
3.74839e-08
-3.5404e-12
3.74845e-08
-2.08619e-12
-2.19322e-12
3.74838e-08
-2.31725e-12
3.74845e-08
-2.35653e-12
3.74852e-08
3.7486e-08
-2.28861e-12
-1.1347e-12
-6.8805e-13
4.51042e-13
-1.19129e-12
-9.28509e-13
6.74122e-13
-1.21095e-12
-1.16821e-12
8.89612e-13
-1.39674e-12
1.088e-12
-1.23689e-12
-1.37242e-12
-9.956e-13
-1.42381e-12
-1.25456e-12
-1.43038e-12
-1.498e-12
-1.7179e-12
-1.42411e-12
-1.62749e-12
-1.29251e-12
-1.65934e-12
-1.5309e-12
-1.6358e-12
-1.74498e-12
-1.92165e-12
-1.55559e-12
-1.86271e-12
-1.86793e-12
-1.80075e-12
-1.66294e-12
1.19214e-11
-5.14381e-09
6.10492e-08
4.28517e-09
1.88658e-10
4.83446e-08
-3.33825e-09
-1.24751e-08
6.69004e-08
-8.30863e-10
3.29854e-08
1.72392e-09
2.46338e-09
2.21346e-09
4.08589e-08
2.33658e-10
-1.88224e-09
5.1146e-08
3.32971e-10
-1.72778e-09
2.99383e-08
6.04028e-09
2.58048e-08
2.38005e-10
-1.54517e-10
-3.97878e-09
5.25917e-08
1.33272e-10
-3.81503e-09
4.39227e-08
4.6533e-09
-3.81606e-09
3.3587e-08
-1.14863e-08
5.18778e-08
-1.76722e-09
-1.2847e-09
4.57051e-08
2.09124e-10
2.84525e-08
1.02887e-09
2.83788e-08
1.52736e-08
3.76078e-10
-1.79145e-09
-2.87099e-09
6.13674e-08
-4.15973e-09
-2.80098e-09
5.32892e-08
2.76983e-09
2.94757e-09
5.78335e-08
-7.45015e-09
4.48289e-08
-2.88726e-09
-5.87397e-10
-8.59264e-09
4.67337e-08
-1.67492e-09
-6.56275e-09
5.59952e-08
3.08805e-10
2.80185e-09
2.81002e-08
-5.34079e-09
2.44985e-08
-4.94107e-10
1.10833e-09
-7.52043e-09
4.7455e-08
2.58493e-09
-3.23705e-09
3.91203e-08
-3.94235e-09
-4.57641e-09
4.74927e-08
-8.76349e-10
4.46876e-08
-1.2165e-09
2.5348e-09
2.76111e-08
2.01762e-09
2.55051e-08
8.35258e-10
2.54027e-08
1.73487e-08
-4.2499e-10
-3.35745e-09
-1.75985e-09
6.63994e-08
-9.93067e-10
-2.90289e-09
5.33442e-08
4.74858e-09
2.77478e-09
4.93138e-08
-8.39511e-09
6.05052e-08
-3.16602e-09
-3.28183e-09
-3.01925e-09
4.96861e-08
9.63719e-10
7.46485e-09
4.13818e-08
1.32896e-10
-1.42868e-09
3.31344e-08
-7.79277e-09
2.39975e-08
3.15651e-11
1.28397e-09
-9.12307e-10
4.35954e-08
-3.17685e-09
-5.21953e-10
5.15679e-08
-3.93984e-09
8.97661e-10
4.59294e-08
4.69862e-09
2.67318e-08
1.5245e-09
-3.24658e-10
2.28164e-08
-2.62997e-10
2.6354e-08
-1.85564e-10
2.69322e-08
1.67934e-08
8.6388e-10
-1.1877e-09
-3.42434e-09
7.26763e-08
2.80576e-09
-1.10638e-09
5.03227e-08
-3.82849e-09
-2.28743e-09
5.84891e-08
-1.60006e-09
5.4258e-08
4.24695e-09
-4.79588e-10
7.97664e-09
3.90985e-08
1.97139e-09
6.50575e-09
3.13187e-08
-1.595e-09
-5.95757e-09
4.03709e-08
-5.99366e-10
1.94441e-08
1.95771e-09
-2.78881e-09
2.19155e-09
5.74354e-08
-3.64299e-09
4.16637e-09
5.47614e-08
1.44505e-09
8.47046e-10
3.40367e-08
3.29723e-09
2.25769e-08
1.70337e-09
-8.56023e-10
3.26866e-08
-3.80192e-09
3.92963e-08
1.56087e-09
2.19434e-08
1.9516e-08
1.24624e-09
2.39659e-09
1.00321e-10
6.94478e-08
-3.54624e-09
-4.00837e-09
6.01374e-08
-3.90907e-09
2.56264e-09
5.61705e-08
6.84247e-09
3.95103e-08
3.03706e-09
-1.55236e-10
2.8746e-09
3.86229e-08
4.88714e-10
-6.46356e-10
2.73128e-08
-4.09581e-10
-1.86659e-09
4.56985e-08
-5.2718e-10
2.5872e-08
5.32184e-10
-3.61804e-09
1.06538e-08
5.53708e-08
1.60539e-09
7.21098e-09
4.16806e-08
4.9235e-10
2.92044e-09
3.03627e-08
4.51585e-09
1.74973e-08
5.28879e-10
-6.05036e-09
5.95407e-08
2.52127e-10
4.22242e-08
4.76276e-10
2.60585e-08
2.15686e-08
2.70728e-09
8.42489e-10
7.05593e-09
5.89132e-08
-1.94007e-09
8.47045e-09
5.48506e-08
-3.81762e-09
-2.24884e-10
5.83273e-08
1.13784e-08
2.25811e-08
1.70796e-09
4.61453e-10
-9.1064e-10
4.38929e-08
-4.18108e-09
2.42678e-09
3.7999e-08
-1.2059e-09
1.02129e-08
3.22857e-08
8.76493e-09
2.6892e-08
3.87561e-10
2.74251e-09
-1.54817e-09
5.01027e-08
-3.96419e-10
-6.66664e-09
5.3913e-08
-2.26266e-09
2.13078e-09
4.03109e-08
4.81181e-09
1.92622e-08
-7.45013e-11
-3.02267e-09
5.63693e-08
6.02872e-09
2.5204e-08
-3.01935e-09
4.36389e-08
2.78515e-08
-3.73321e-09
-4.29312e-10
1.04359e-10
5.74741e-08
-1.11707e-09
4.33039e-10
5.33955e-08
3.11247e-10
2.75651e-09
5.65145e-08
-6.84312e-10
2.39135e-08
-5.88149e-10
3.63912e-10
-1.62393e-09
4.58739e-08
-8.60406e-11
-2.03273e-09
4.09146e-08
-7.86016e-11
-7.21612e-10
3.57553e-08
-2.62569e-10
2.50509e-08
1.3409e-09
8.09026e-11
-1.89089e-09
4.90073e-08
4.92732e-10
1.62315e-09
4.98447e-08
8.31907e-10
5.4959e-10
3.86997e-08
-2.40374e-09
2.18117e-08
4.23743e-10
-1.69649e-09
5.2207e-08
-4.80742e-09
3.09388e-08
-7.39576e-10
3.76201e-08
2.47832e-08
2.98202e-10
1.27999e-09
-1.68618e-09
5.87909e-08
1.41476e-09
-2.05141e-09
5.53126e-08
1.8359e-09
-8.48113e-10
5.69408e-08
-3.0262e-09
2.93493e-08
-5.75222e-10
1.93917e-09
-2.79931e-09
4.76382e-08
2.15671e-09
-4.45695e-09
4.31035e-08
1.31357e-09
-5.5012e-09
4.12525e-08
-3.91718e-09
2.7402e-08
-1.45715e-10
3.12804e-10
-2.42371e-09
4.85727e-08
2.00753e-09
-1.13033e-10
4.38064e-08
2.19124e-09
-3.70318e-09
3.67173e-08
-4.85131e-09
2.47464e-08
1.90882e-10
1.26364e-09
4.86035e-08
-7.08806e-10
3.44084e-08
1.8135e-09
3.14292e-08
2.35154e-08
5.18744e-10
-4.86357e-10
7.0831e-10
5.8057e-08
-4.38528e-10
1.42382e-09
5.38405e-08
1.69517e-09
4.27165e-09
5.05367e-08
-1.62968e-09
3.33163e-08
-6.41897e-10
4.50883e-10
-1.52239e-09
5.04042e-08
-6.03156e-10
-3.11594e-10
4.58927e-08
8.65282e-10
2.40189e-09
4.16561e-08
-1.84015e-09
2.94347e-08
-9.56166e-10
3.81199e-10
-6.29994e-10
4.67855e-08
1.89529e-10
1.54033e-09
4.2146e-08
6.213e-10
2.72165e-09
3.5966e-08
-1.3006e-09
2.54336e-08
-6.0553e-10
2.62155e-09
4.24964e-08
4.89224e-10
3.54887e-08
-8.15855e-11
3.01253e-08
2.15958e-08
-3.43227e-10
5.1765e-10
1.07236e-09
5.66136e-08
6.86639e-10
1.18051e-09
5.24904e-08
1.63215e-09
2.24881e-09
4.73424e-08
-3.27129e-10
3.54046e-08
-1.28793e-10
9.64578e-10
5.93629e-10
5.05779e-08
6.83916e-10
8.27237e-10
4.65257e-08
1.31535e-09
2.09825e-09
4.11753e-08
-2.99762e-10
3.10568e-08
-3.33207e-10
1.11538e-09
1.11272e-09
4.54504e-08
9.11449e-10
1.67624e-09
4.15001e-08
1.08034e-09
2.18006e-09
3.57154e-08
-1.41198e-10
2.67039e-08
-3.47627e-10
1.74302e-09
4.00753e-08
9.96222e-10
3.59184e-08
6.55033e-10
3.03652e-08
2.22976e-08
-2.90174e-10
3.60163e-10
4.67848e-10
5.60804e-08
2.46521e-10
4.64251e-10
5.21393e-08
5.30787e-10
8.59729e-10
4.61979e-08
-8.22911e-11
3.60142e-08
3.19193e-12
4.98496e-10
5.85973e-10
5.04342e-08
2.27794e-10
5.74134e-10
4.6686e-08
4.01619e-10
1.04595e-09
4.0815e-08
5.33055e-12
3.14448e-08
-7.37313e-11
5.58355e-10
9.08041e-10
4.49864e-08
2.54596e-10
9.29569e-10
4.14478e-08
2.51469e-10
1.16728e-09
3.55966e-08
2.25921e-10
2.68628e-08
-1.27534e-10
7.1197e-10
3.94561e-08
2.91418e-10
3.60874e-08
9.57039e-11
3.04343e-08
2.22419e-08
-1.2491e-10
3.54313e-10
3.52416e-10
5.56565e-08
2.47695e-10
3.09425e-10
5.19361e-08
3.33138e-10
4.32747e-10
4.56794e-08
3.39829e-11
3.63015e-08
1.17166e-11
3.89764e-10
5.39896e-10
5.01985e-08
2.37478e-10
4.67286e-10
4.66801e-08
2.82436e-10
5.99549e-10
4.06032e-08
1.11143e-10
3.16674e-08
-1.70557e-11
3.99143e-10
6.98296e-10
4.47682e-08
2.31051e-10
6.18773e-10
4.1464e-08
2.04745e-10
6.58699e-10
3.55634e-08
1.98133e-10
2.70285e-08
-4.7591e-11
4.08012e-10
3.93141e-08
2.15255e-10
3.62201e-08
1.17541e-10
3.05531e-08
2.23696e-08
-5.23896e-11
2.43788e-10
2.14169e-10
5.54104e-08
1.60477e-10
1.72248e-10
5.1847e-08
1.59556e-10
2.00676e-10
4.54795e-08
2.84724e-11
3.64301e-08
2.52698e-12
2.47877e-10
3.4588e-10
5.00498e-08
1.50629e-10
2.78809e-10
4.66707e-08
1.364e-10
2.97951e-10
4.05203e-08
7.35906e-11
3.17682e-08
-9.23412e-12
2.37842e-10
4.23036e-10
4.46824e-08
1.34643e-10
3.50438e-10
4.14954e-08
9.66934e-11
3.31621e-10
3.55674e-08
1.18547e-10
2.71025e-08
-2.20258e-11
2.17036e-10
3.93077e-08
1.12015e-10
3.63126e-08
5.32654e-11
3.06268e-08
2.24286e-08
-2.53845e-11
1.49448e-10
1.19284e-10
5.52799e-08
9.65745e-11
9.14191e-11
5.18084e-08
7.74085e-11
9.22807e-11
4.54064e-08
1.71321e-11
3.64952e-08
-4.66094e-12
1.46883e-10
1.97384e-10
4.99684e-08
8.99681e-11
1.53217e-10
4.66659e-08
6.67456e-11
1.42964e-10
4.04931e-08
4.07655e-11
3.18214e-08
-9.80154e-12
1.35906e-10
2.35295e-10
4.46486e-08
7.7962e-11
1.87447e-10
4.15192e-08
4.74425e-11
1.605e-10
3.55803e-08
5.9729e-11
2.71455e-08
-1.43512e-11
1.16334e-10
3.93273e-08
6.06472e-11
3.63706e-08
2.5496e-11
3.06727e-08
2.24666e-08
-1.62711e-11
8.66469e-11
6.50585e-11
5.52118e-08
5.5188e-11
4.79114e-11
5.17919e-08
3.57306e-11
4.23036e-11
4.53836e-08
8.39641e-12
3.65311e-08
-8.41262e-12
8.36804e-11
1.07807e-10
4.99271e-08
5.11059e-11
8.08861e-11
4.66656e-08
3.06408e-11
6.68523e-11
4.04894e-08
1.87953e-11
3.18519e-08
-9.96525e-12
7.54049e-11
1.2559e-10
4.46368e-08
4.29803e-11
9.65396e-11
4.15361e-08
2.07264e-11
7.48764e-11
3.55947e-08
2.54217e-11
2.71717e-08
-1.1886e-11
6.15105e-11
3.93467e-08
3.13286e-11
3.64063e-08
9.28157e-12
3.07023e-08
2.24904e-08
-1.31552e-11
4.80498e-11
3.43601e-11
5.51777e-08
2.96544e-11
2.42842e-11
5.17861e-08
1.47736e-11
1.86949e-11
4.538e-08
2.78313e-12
3.65521e-08
-8.78975e-12
4.59255e-11
5.66141e-11
4.99075e-08
2.71999e-11
4.0797e-11
4.6668e-08
1.218e-11
2.97577e-11
4.04936e-08
6.22842e-12
3.18703e-08
-9.42265e-12
4.03974e-11
6.45247e-11
4.46341e-08
2.20047e-11
4.7394e-11
4.15481e-08
6.82486e-12
3.28423e-11
3.56069e-08
7.35291e-12
2.7188e-08
-1.04663e-11
3.13649e-11
3.93612e-08
1.44554e-11
3.64285e-08
1.07567e-12
3.07212e-08
2.25055e-08
-1.13171e-11
2.54717e-11
1.74662e-11
5.51615e-08
1.46939e-11
1.1709e-11
5.17853e-08
4.46184e-12
7.64305e-12
4.53827e-08
-2.13039e-13
3.65649e-08
-7.99384e-12
2.41702e-11
2.8544e-11
4.98991e-08
1.33137e-11
1.9382e-11
4.66714e-08
3.02784e-12
1.21943e-11
4.04995e-08
-1.07338e-13
3.18816e-08
-8.35719e-12
2.06487e-11
3.17554e-11
4.46349e-08
9.96921e-12
2.17471e-11
4.15566e-08
5.62752e-13
1.25323e-11
3.56161e-08
-7.30812e-13
2.71983e-08
-9.03798e-12
1.49881e-11
3.93713e-08
5.30266e-12
3.64422e-08
-2.90117e-12
3.07334e-08
2.2515e-08
-9.68742e-12
1.27997e-11
8.48744e-12
5.51546e-08
6.47562e-12
5.2315e-12
5.17866e-08
7.06529e-14
2.6504e-12
4.53866e-08
-1.23123e-12
3.65731e-08
-6.73902e-12
1.20396e-11
1.37182e-11
4.98961e-08
5.66988e-12
8.43436e-12
4.66748e-08
-5.86062e-13
3.88844e-12
4.05047e-08
-2.26967e-12
3.1889e-08
-6.93188e-12
9.85627e-12
1.47828e-11
4.46368e-08
3.60964e-12
8.89122e-12
4.15626e-08
-2.27908e-12
3.33347e-12
3.56227e-08
-3.76988e-12
2.72049e-08
-7.43232e-12
6.32459e-12
3.9378e-08
5.65817e-13
3.64508e-08
-4.26735e-12
3.07411e-08
2.25209e-08
-8.0082e-12
5.94551e-12
3.88333e-12
5.51521e-08
2.18968e-12
2.01491e-12
5.17885e-08
-1.7355e-12
4.87045e-13
4.53902e-08
-1.43671e-12
3.65782e-08
-5.37514e-12
5.53916e-12
6.14944e-12
4.98956e-08
1.69977e-12
3.09819e-12
4.66778e-08
-2.10738e-12
3.60541e-13
4.05086e-08
-2.79604e-12
3.18936e-08
-5.49353e-12
4.18415e-12
6.28528e-12
4.46388e-08
4.26072e-13
2.84523e-12
4.15668e-08
-3.12639e-12
-4.58008e-13
3.56271e-08
-4.31297e-12
2.7209e-08
-5.86323e-12
2.01482e-12
3.93823e-08
-1.3632e-12
3.64561e-08
-4.25491e-12
3.07459e-08
2.25245e-08
-6.3067e-12
2.40812e-12
1.58827e-12
5.51516e-08
1.44651e-13
5.73942e-13
5.17904e-08
-2.16459e-12
-3.07313e-13
4.5393e-08
-1.25056e-12
3.65814e-08
-4.07235e-12
2.16054e-12
2.45172e-12
4.98962e-08
-6.01341e-14
6.77177e-13
4.668e-08
-2.33542e-12
-8.93319e-13
4.05114e-08
-2.51797e-12
3.18964e-08
-4.13725e-12
1.4276e-12
2.21035e-12
4.46405e-08
-8.27194e-13
2.34579e-13
4.15696e-08
-2.93286e-12
-1.69334e-12
3.563e-08
-3.78022e-12
2.72114e-08
-4.39836e-12
9.45666e-14
3.93851e-08
-1.88678e-12
3.64594e-08
-3.58281e-12
3.07488e-08
2.25266e-08
-4.7185e-12
7.55281e-13
5.11586e-13
5.51519e-08
-5.77832e-13
-3.37188e-14
5.17919e-08
-1.93167e-12
-4.73044e-13
4.53949e-08
-9.40482e-13
3.65833e-08
-2.91998e-12
7.00436e-13
7.08749e-13
4.98969e-08
-6.55257e-13
-2.44304e-13
4.66817e-08
-1.98508e-12
-1.1296e-12
4.05133e-08
-1.95334e-12
3.1898e-08
-2.94815e-12
2.2158e-13
3.99925e-13
4.46418e-08
-1.10936e-12
-7.03477e-13
4.15714e-08
-2.32889e-12
-1.76902e-12
3.56318e-08
-2.89517e-12
2.72129e-08
-3.12341e-12
-5.55218e-13
3.9387e-08
-1.71768e-12
3.64614e-08
-2.69039e-12
3.07506e-08
2.25279e-08
-3.34212e-12
5.37687e-14
5.74802e-14
5.51524e-08
-7.09123e-13
-1.67114e-13
5.1793e-08
-1.46885e-12
-3.93472e-13
4.5396e-08
-6.06546e-13
3.65842e-08
-1.96068e-12
5.12201e-14
1.60417e-14
4.98977e-08
-7.15402e-13
-4.65176e-13
4.66828e-08
-1.46991e-12
-9.46696e-13
4.05144e-08
-1.34216e-12
3.18989e-08
-1.97212e-12
-2.04037e-13
-2.66866e-13
4.46428e-08
-9.77029e-13
-8.41674e-13
4.15726e-08
-1.66029e-12
-1.40159e-12
3.56328e-08
-1.98221e-12
2.72136e-08
-2.08717e-12
-6.30532e-13
3.93882e-08
-1.30928e-12
3.64627e-08
-1.85045e-12
3.07516e-08
2.25285e-08
-2.23089e-12
-2.59893e-13
-3.97673e-14
5.51529e-08
-6.37912e-13
-1.35257e-13
5.17936e-08
-1.00491e-12
-2.3846e-13
4.53967e-08
-3.49399e-13
3.65848e-08
-1.23603e-12
-2.55186e-13
-1.41132e-13
4.98982e-08
-6.36285e-13
-3.79008e-13
4.66834e-08
-1.0061e-12
-6.25199e-13
4.0515e-08
-8.09394e-13
3.18993e-08
-1.24258e-12
-4.00369e-13
-3.51969e-13
4.46434e-08
-7.88786e-13
-6.46777e-13
4.15733e-08
-1.11392e-12
-9.26566e-13
3.56334e-08
-1.20669e-12
2.7214e-08
-1.31436e-12
-6.42133e-13
3.93889e-08
-9.74985e-13
3.64633e-08
-1.21367e-12
3.07521e-08
2.25288e-08
-1.40688e-12
-6.07455e-13
-4.35117e-14
-7.24579e-13
-9.82112e-14
-8.20099e-13
-1.60369e-13
-2.29542e-13
-8.60895e-13
-6.48681e-13
-1.20539e-13
-7.70457e-13
-2.48325e-13
-8.60158e-13
-3.84445e-13
-4.87212e-13
-8.76352e-13
-7.7543e-13
-2.52931e-13
-8.91836e-13
-4.28919e-13
-9.47079e-13
-5.97275e-13
-7.45564e-13
-9.20066e-13
-9.541e-13
-1.0328e-12
-1.02516e-12
-9.72137e-13
5.88614e-09
-4.70974e-10
2.18768e-08
1.67969e-09
-3.43498e-09
3.30053e-08
1.16669e-08
-1.67118e-09
2.35648e-08
-1.89571e-09
5.22766e-08
3.9863e-10
-7.50896e-10
3.32874e-08
4.55874e-09
1.41141e-09
2.69254e-08
1.20911e-08
1.38946e-09
3.09847e-08
-1.30093e-09
5.6846e-08
2.72236e-09
5.15333e-09
2.68828e-08
4.54633e-09
6.77816e-10
4.02616e-08
4.71507e-09
7.34778e-09
4.12673e-08
5.23676e-09
4.76597e-08
8.26208e-10
4.86837e-08
1.46516e-08
2.80584e-08
5.7208e-09
6.78805e-08
6.89634e-08
1.46175e-09
5.9567e-10
2.07935e-08
1.27929e-09
1.61714e-09
3.03542e-08
7.02764e-09
1.71357e-09
1.56087e-08
-2.22257e-09
5.86661e-08
3.33949e-09
3.66435e-09
2.88813e-08
2.97382e-09
2.85259e-09
2.60557e-08
-4.91354e-09
1.63108e-10
4.04225e-08
1.11544e-09
4.92081e-08
2.17383e-09
-1.34155e-09
3.56516e-08
-3.14277e-09
-1.03028e-10
4.85339e-08
1.42362e-09
-1.36868e-09
3.82327e-08
-3.20786e-09
5.36381e-08
2.70593e-09
4.37069e-08
-7.84042e-09
4.19261e-08
-2.26456e-09
5.49142e-08
5.59499e-08
5.38951e-10
4.34857e-09
1.50526e-08
4.86864e-09
6.04725e-09
2.15017e-08
-5.56407e-09
4.16549e-09
2.19075e-08
3.60887e-09
4.72073e-08
2.97184e-09
1.74017e-09
2.94633e-08
2.39305e-09
1.9562e-09
3.07255e-08
-9.43467e-09
1.33684e-09
5.50789e-08
4.82486e-09
3.84079e-08
3.22928e-09
2.08564e-09
3.47428e-08
5.92713e-09
2.02971e-10
4.75893e-08
2.54206e-09
-4.66448e-10
4.3421e-08
-3.54022e-09
6.36753e-08
-5.73875e-10
4.99068e-08
5.98042e-09
3.77822e-08
-5.88317e-09
7.11515e-08
4.51299e-08
-1.68645e-09
4.4856e-10
2.04555e-08
5.85385e-09
5.21085e-10
1.51437e-08
4.61462e-09
-2.07273e-09
2.71772e-08
-2.16195e-09
5.68006e-08
-4.02805e-09
-1.98468e-09
3.70247e-08
8.63544e-10
4.71055e-11
2.63079e-08
2.4737e-10
-1.46588e-09
5.50882e-08
-1.00005e-09
3.82811e-08
-8.26362e-11
2.73712e-09
2.72537e-08
1.21613e-09
2.40578e-09
4.39319e-08
1.45143e-09
3.89414e-09
3.78258e-08
4.74764e-09
5.96318e-08
-4.83119e-10
4.69794e-08
5.89545e-10
3.66663e-08
3.73626e-09
6.88399e-08
5.39435e-08
-4.31708e-09
3.29931e-09
2.9513e-08
-8.35e-10
5.50384e-10
1.16401e-08
-1.33486e-09
1.02565e-10
2.81067e-08
4.27579e-10
5.75137e-08
-5.61136e-09
-4.41813e-09
5.80608e-08
-6.12937e-09
-1.58541e-09
2.89616e-08
-7.15618e-10
-1.75274e-10
4.99523e-08
-2.09782e-09
3.9348e-08
-1.71558e-09
-1.25561e-09
2.79649e-08
-3.21962e-09
5.77738e-12
4.38448e-08
-4.33823e-09
-2.08258e-09
4.08517e-08
4.54493e-10
5.31345e-08
1.21801e-09