FoamFile
{version 2.0; format ascii;class Cloud<passiveParticle>; location 0;object  positions;}
2496
(
( -0.000140561 -0.0133096 0.005805 ) 0 
( -0.00766587 -0.0109297 0.00464577 ) 0 
( -0.0022385 -0.00140942 0.00136482 ) 0 
( -0.0100437 -0.00707751 0.00564549 ) 0 
( -0.0114161 -0.00692073 0.00538626 ) 0 
( -0.0110032 -4.82006e-05 0.00313737 ) 0 
( -0.00227654 -0.002648 0.00707825 ) 0 
( -0.00577734 -0.00367634 0.00761973 ) 0 
( -0.00196683 -0.00297021 0.00190263 ) 0 
( -0.00377241 -0.00469204 0.00566091 ) 0 
( -0.0133498 -0.000100998 0.00711794 ) 0 
( -0.00163079 -0.00414994 0.00124451 ) 0 
( -0.00904917 -0.00199364 0.00550985 ) 0 
( -0.00811757 -0.0011193 0.0070983 ) 0 
( -0.00373117 -0.00973709 0.00572004 ) 0 
( -1.59736e-05 -0.00298485 0.00232533 ) 0 
( -0.00186543 -0.00894295 0.00284882 ) 0 
( -0.00118367 -0.000755148 0.00545455 ) 0 
( -7.94987e-05 -0.0124362 0.00442667 ) 0 
( -0.00443403 -0.0053624 0.00293959 ) 0 
( -0.00782322 -0.00871071 0.00554013 ) 0 
( -0.00388899 -0.00110337 0.000499712 ) 0 
( -0.00649433 -0.0107095 0.00544317 ) 0 
( -0.000740703 -0.00459703 0.0038078 ) 0 
( -0.00605046 -0.00681565 0.0043757 ) 0 
( -0.0101453 -0.00320607 0.00294616 ) 0 
( -0.000214999 -0.00914364 0.00222525 ) 0 
( -0.000757499 -0.00711704 0.00210324 ) 0 
( -0.0063012 -0.005468 0.0014672 ) 0 
( -0.000177926 -0.0112119 0.00463309 ) 0 
( -0.00392258 -0.00565701 0.00131215 ) 0 
( -0.00232912 -0.00650299 0.00528256 ) 0 
( -0.00548515 -0.00453285 0.00806664 ) 0 
( -0.00606305 -0.00890228 0.0051193 ) 0 
( -0.0103389 -0.00671542 0.00122227 ) 0 
( -0.00469093 -0.00989154 0.00595312 ) 0 
( -0.00067413 -0.0114878 0.00199552 ) 0 
( -0.00391608 -0.0127631 0.00575286 ) 0 
( -0.00585406 -0.00891157 0.00304147 ) 0 
( -0.00625562 -0.00726647 0.00209917 ) 0 
( -0.0110287 -0.00548278 0.00215782 ) 0 
( -0.00163798 -0.010102 0.0050536 ) 0 
( -0.0101669 -0.00744736 0.00308379 ) 0 
( -0.00262133 -0.000173105 0.00437758 ) 0 
( -0.00857434 -0.000881102 0.00512497 ) 0 
( -0.00476582 -0.00224431 0.00732548 ) 0 
( -0.0117264 -0.000111627 0.00406292 ) 0 
( -0.0125839 -0.000260615 0.00243305 ) 0 
( -0.00411158 -0.0046268 0.00234352 ) 0 
( -0.000620037 -0.00680781 0.00796416 ) 0 
( -0.00509872 -0.00876573 0.0053705 ) 0 
( -0.00260638 -0.0105397 0.00308784 ) 0 
( -0.00887623 -0.00941419 0.00452842 ) 0 
( -0.0113039 -0.00393038 0.00461146 ) 0 
( -0.00420725 -0.0117957 0.00432206 ) 0 
( -0.00261142 -0.01309 0.00717221 ) 0 
( -0.00326864 -0.0120469 0.00408618 ) 0 
( -0.00521892 -0.000705489 0.00689379 ) 0 
( -0.0072779 -0.00527264 0.00137951 ) 0 
( -0.00901767 -0.00730344 0.000499874 ) 0 
( -0.00203583 -0.00862241 0.00716229 ) 0 
( -0.0103366 -0.00174672 0.00755748 ) 0 
( -0.00848172 -0.00647523 0.00241245 ) 0 
( -0.00186113 -0.00588401 0.00715077 ) 0 
( -0.00161085 -0.00923598 0.00455401 ) 0 
( -0.00807234 -0.00073627 0.0010833 ) 0 
( -0.00440583 -0.000179653 0.00380579 ) 0 
( -0.00777696 -0.00339613 0.00135625 ) 0 
( -0.00492281 -0.00124766 0.00767954 ) 0 
( -0.00276509 -0.00555309 0.00688168 ) 0 
( -0.000431939 -0.0110129 0.00302888 ) 0 
( -0.0115588 -0.0046485 0.00200686 ) 0 
( -0.00564994 -0.00169504 0.00544982 ) 0 
( -0.00512799 -0.00100635 0.00425878 ) 0 
( -0.00329667 -0.00928879 0.00199484 ) 0 
( -0.00760056 -0.0109752 0.000499861 ) 0 
( -0.00854774 -0.00905466 0.00733873 ) 0 
( -0.00396557 -0.00126241 0.00458578 ) 0 
( -0.000894279 -0.0057464 0.00736512 ) 0 
( -0.0109686 -0.00290025 0.000499652 ) 0 
( -0.00426407 -0.0100393 0.00453073 ) 0 
( -0.0121114 -0.00263464 0.0014771 ) 0 
( -0.00372503 -0.0123486 0.00139067 ) 0 
( -0.000246014 -9.1052e-05 0.00836648 ) 0 
( -0.000783034 -0.0090191 0.00126505 ) 0 
( -0.00436233 -0.00736673 0.00645027 ) 0 
( -0.00442332 -0.000560336 0.00630608 ) 0 
( -0.0040757 -0.00982901 0.00356089 ) 0 
( -0.00350577 -0.000532491 0.00408005 ) 0 
( -0.00222458 -0.00664085 0.0024055 ) 0 
( -0.00315785 -0.0101613 0.00383184 ) 0 
( -0.00584211 -0.00129238 0.00334438 ) 0 
( -0.00440292 -0.0106623 0.00652133 ) 0 
( -0.00568601 -0.00264391 0.00753056 ) 0 
( -0.0052992 -0.00690824 0.00125087 ) 0 
( -0.00561808 -0.0108638 0.00701615 ) 0 
( -0.00919296 -0.00303769 0.000781332 ) 0 
( -0.012017 -0.00581558 0.0068125 ) 0 
( -0.00548212 -0.0059489 0.00272055 ) 0 
( -0.00107483 -0.00757946 0.00447343 ) 0 
( -0.0116096 -0.00658964 0.00632345 ) 0 
( -0.00854911 -0.0102539 0.006253 ) 0 
( -0.0115047 -0.00337912 0.00119448 ) 0 
( -0.00721727 -0.00232042 0.00745792 ) 0 
( -0.00244056 -0.00356373 0.00125214 ) 0 
( -0.00688368 -0.0083869 0.00536592 ) 0 
( -0.000118211 -0.000645063 0.00349841 ) 0 
( -0.00485346 -0.00879281 0.00282323 ) 0 
( -0.00840666 -0.0052687 0.00436222 ) 0 
( -0.00672415 -0.001206 0.00382685 ) 0 
( -0.00850238 -0.00802264 0.00583572 ) 0 
( -0.00928586 -0.00479259 0.00437059 ) 0 
( -0.00600801 -0.00767056 0.00385456 ) 0 
( -0.00751595 -0.00720611 0.00322642 ) 0 
( -0.00455349 -0.00709896 0.00188909 ) 0 
( -0.00512588 -0.00209456 0.00467764 ) 0 
( -0.0102084 -0.00492037 0.00389856 ) 0 
( -0.00917751 -0.00587794 0.00288604 ) 0 
( -0.00662949 -0.001527 0.00533979 ) 0 
( -0.00933232 -0.00323548 0.00684512 ) 0 
( -0.00561976 -0.0064741 0.00759791 ) 0 
( -0.0028443 -0.0112503 0.0053323 ) 0 
( -0.0119255 -0.00327474 0.00530882 ) 0 
( -0.00113653 -0.00594284 0.00120057 ) 0 
( -0.00951287 -0.00665769 0.00368123 ) 0 
( -0.0048923 -0.0124215 0.000499739 ) 0 
( -0.00684419 -0.00857189 0.00635565 ) 0 
( -0.00630101 -0.0101433 0.00154934 ) 0 
( -0.00015079 -0.00437081 0.000499742 ) 0 
( -0.0091564 -0.00845044 0.00645915 ) 0 
( -0.0118784 -0.00408159 0.00276741 ) 0 
( -0.00679193 -0.000589491 0.00304254 ) 0 
( -0.000627072 -0.00609488 0.00402931 ) 0 
( -0.0074425 -0.0081505 0.00365938 ) 0 
( -0.00629878 -0.00576908 0.0057637 ) 0 
( -0.00888115 -0.00175898 0.00135851 ) 0 
( -0.00521881 -0.00740479 0.00593622 ) 0 
( -0.00175925 -4.98557e-05 0.00586758 ) 0 
( -0.000299279 -0.0133419 0.000499878 ) 0 
( -0.0124364 -0.00085068 0.000499582 ) 0 
( -0.00608772 -0.00280487 0.00443296 ) 0 
( -0.00290791 -0.0123506 0.00306409 ) 0 
( -0.00213425 -0.00459921 0.00496126 ) 0 
( -6.51756e-05 -0.00894615 0.000499758 ) 0 
( -0.00301327 -0.000912014 0.000942689 ) 0 
( -0.00538582 -0.00713341 0.00688377 ) 0 
( -0.00454553 -0.0108263 0.00288954 ) 0 
( -0.000685537 -0.00284442 0.00393738 ) 0 
( -0.00305791 -0.0102337 0.00221823 ) 0 
( -0.00596547 -0.00906806 0.000499865 ) 0 
( -0.0101098 -0.00341385 0.000499876 ) 0 
( -0.0100919 -0.00336789 0.00406741 ) 0 
( -0.0090863 -0.007748 0.00251008 ) 0 
( -0.0037721 -0.0047077 0.0069236 ) 0 
( -0.00725074 -0.00400247 0.00383011 ) 0 
( -0.00789242 -0.0072061 0.00415256 ) 0 
( -0.00752093 -0.00387002 0.000499849 ) 0 
( -0.0050265 -0.0116178 0.00111583 ) 0 
( -0.00474067 -0.00426012 0.0039389 ) 0 
( -0.0063345 -0.00150098 0.00248125 ) 0 
( -0.002863 -0.0121214 0.00698431 ) 0 
( -0.00927746 -0.00208235 0.000499571 ) 0 
( -0.0030429 -0.000576641 0.0080671 ) 0 
( -0.00687982 -0.00225955 0.00470689 ) 0 
( -0.00898344 -0.00745298 0.00670789 ) 0 
( -0.0070778 -0.0103642 0.00708113 ) 0 
( -0.0019957 -0.00687245 0.0070857 ) 0 
( -0.00739371 -0.00201191 0.00576495 ) 0 
( -0.00132979 -0.00285308 0.00683131 ) 0 
( -0.00694488 -0.00499242 0.0059845 ) 0 
( -0.0071092 -0.00485171 0.00330947 ) 0 
( -0.0133501 -5.31809e-05 0.00526529 ) 0 
( -0.00712833 -0.00293363 0.000499869 ) 0 
( -0.00950911 -0.00208021 0.00639491 ) 0 
( -0.0131789 -0.00213146 0.00137042 ) 0 
( -0.000108209 -0.0103426 0.00512236 ) 0 
( -0.000862057 -0.0124931 0.0037814 ) 0 
( -0.00579617 -0.0101029 0.00379567 ) 0 
( -0.00495274 -0.00125579 0.00288723 ) 0 
( -0.00947642 -0.00414765 0.00511049 ) 0 
( -0.000109801 -0.00494144 0.00682674 ) 0 
( -0.0102017 -0.000755515 0.00754976 ) 0 
( -0.00226103 -0.00760489 0.00523763 ) 0 
( -0.00725753 -0.00780621 0.00684848 ) 0 
( -0.00410241 -0.00723652 0.00311915 ) 0 
( -0.00544009 -0.00338708 0.00154742 ) 0 
( -0.000969002 -0.00846141 0.00671967 ) 0 
( -0.00874003 -0.00919387 0.00105203 ) 0 
( -0.00166485 -0.00550534 0.00264237 ) 0 
( -0.00256474 -0.0105341 0.000499924 ) 0 
( -0.00479206 -0.00388044 0.00837185 ) 0 
( -0.00827217 -0.010189 0.00384648 ) 0 
( -0.00261417 -0.00999872 0.00135353 ) 0 
( -0.00309295 -0.00590436 0.00467321 ) 0 
( -0.00877116 -0.00607368 0.000499723 ) 0 
( -0.00109941 -0.0030884 0.00588747 ) 0 
( -0.00605636 -0.00241473 0.00200385 ) 0 
( -0.0101504 -0.000659323 0.00472854 ) 0 
( -0.00233304 -0.00956139 0.000499627 ) 0 
( -0.0074505 -0.0065404 0.0024833 ) 0 
( -0.00252952 -0.00642309 0.00403023 ) 0 
( -0.00709051 -0.000319637 0.00411215 ) 0 
( -0.00942329 -0.00133823 0.00483037 ) 0 
( -0.00188106 -0.0122224 0.000499795 ) 0 
( -0.00628214 -0.011069 0.00211887 ) 0 
( -0.0121356 -0.00351035 0.001959 ) 0 
( -0.00891779 -0.00589103 0.00593567 ) 0 
( -0.0059579 -0.00328857 0.0066571 ) 0 
( -0.00656001 -0.00320308 0.00235694 ) 0 
( -0.00935889 -0.00832161 0.000499874 ) 0 
( -0.0113145 -0.005469 0.004328 ) 0 
( -0.00763282 -0.00099242 0.00346766 ) 0 
( -0.00260431 -0.00767272 0.00718021 ) 0 
( -0.00298739 -0.00714238 0.0045792 ) 0 
( -0.00292347 -0.0111093 0.00404659 ) 0 
( -0.00110085 -0.00491742 0.000499728 ) 0 
( -0.00244856 -0.00978182 0.00454899 ) 0 
( -0.000637689 -0.000878198 0.000499799 ) 0 
( -0.000173944 -0.00803045 0.00371388 ) 0 
( -0.00560304 -0.00955436 0.00572144 ) 0 
( -0.00684564 -0.00447523 0.0009212 ) 0 
( -0.00830613 -0.00534117 0.001111 ) 0 
( -0.00910952 -0.00553637 0.00502088 ) 0 
( -0.0122095 -0.00539951 0.000881775 ) 0 
( -0.00307939 -0.0129901 0.00381334 ) 0 
( -0.000432517 -0.00366159 0.00171378 ) 0 
( -0.00166441 -0.00401027 0.00721559 ) 0 
( -0.00138175 -0.0037671 0.00368988 ) 0 
( -0.011882 -0.00122372 0.00647013 ) 0 
( -0.00455437 -0.00486711 0.00789897 ) 0 
( -0.00595323 -0.00540498 0.00662833 ) 0 
( -0.00165336 -0.00972119 0.00134822 ) 0 
( -0.00115849 -0.00215311 0.00456981 ) 0 
( -0.0104921 -0.00224641 0.00647138 ) 0 
( -0.00574916 -0.00418296 0.00256341 ) 0 
( -8.96371e-06 -0.00742858 0.00680066 ) 0 
( -0.00465563 -0.00333656 0.0029131 ) 0 
( -0.00462544 -0.00653355 0.00360095 ) 0 
( -0.0103863 -0.00684458 0.00221253 ) 0 
( -0.00106497 -0.0117606 0.00480422 ) 0 
( -0.00455832 -0.00729949 0.00743325 ) 0 
( -0.0100197 -0.00577978 0.00342358 ) 0 
( -0.00354304 -0.00934682 0.00426554 ) 0 
( -0.00745085 -0.00976543 0.00346341 ) 0 
( -0.00868864 -0.00855915 0.00501254 ) 0 
( -0.00900087 -0.000640213 0.00425242 ) 0 
( -0.0132872 -0.00122935 0.0040817 ) 0 
( -0.00513823 -0.011733 0.00396248 ) 0 
( -0.00657191 -0.000624135 0.00491408 ) 0 
( -0.00408836 -0.0118273 0.000501481 ) 0 
( -0.00635595 -0.00581525 0.00744602 ) 0 
( -0.00402222 -0.00233207 0.00134152 ) 0 
( -0.00209876 -0.0105189 0.00222059 ) 0 
( -0.00471712 -0.00456136 0.00534674 ) 0 
( -0.00196739 -0.00263979 0.00832932 ) 0 
( -0.00824387 -0.00317746 0.00049971 ) 0 
( -0.00300505 -0.00665226 0.00664541 ) 0 
( -0.0027052 -0.0122728 0.00207895 ) 0 
( -0.00504658 -0.00184421 0.00371284 ) 0 
( -0.0113834 -0.00481426 0.00508066 ) 0 
( -0.00221634 -0.00561972 0.000499749 ) 0 
( -0.0109329 -0.00176459 0.00359587 ) 0 
( -0.0121566 -0.00551741 0.00775814 ) 0 
( -0.00292841 -0.0112281 0.00222359 ) 0 
( -0.00479695 -0.00650212 0.00602336 ) 0 
( -0.00144306 -0.00710271 0.0028362 ) 0 
( -0.00771515 -0.00425091 0.00276442 ) 0 
( -0.00924244 -0.000965044 0.00184711 ) 0 
( -0.0107978 -0.00570752 0.0051501 ) 0 
( -0.0106375 -0.00157185 0.00489454 ) 0 
( -0.00577854 -0.0074712 0.00508259 ) 0 
( -0.0031149 -0.00297062 0.00663862 ) 0 
( -0.000718057 -0.00992805 0.000832404 ) 0 
( -0.00475189 -0.0124758 0.00481245 ) 0 
( -0.00621594 -0.000751708 0.00684219 ) 0 
( -0.0100656 -0.000159256 0.00280802 ) 0 
( -0.00428078 -0.00197851 0.00305658 ) 0 
( -0.00611846 -0.00564099 0.000499693 ) 0 
( -0.0132695 -0.00142737 0.000499794 ) 0 
( -0.00273716 -0.0087565 0.00441805 ) 0 
( -0.00789478 -0.00950339 0.00469692 ) 0 
( -0.00816938 -0.00411946 0.00694724 ) 0 
( -0.00250691 -0.000938979 0.00616601 ) 0 
( -0.00558138 -0.00417812 0.00502112 ) 0 
( -0.000358626 -0.00187545 0.00223355 ) 0 
( -0.00347973 -0.000997875 0.0065595 ) 0 
( -0.0110141 -0.00567155 0.00339591 ) 0 
( -0.000556014 -0.00345887 0.00664811 ) 0 
( -0.00883788 -0.000171995 0.00139197 ) 0 
( -0.00330138 -0.00494403 0.00301804 ) 0 
( -0.00575362 -0.00793465 0.00266857 ) 0 
( -0.0013145 -0.00216545 0.00355899 ) 0 
( -0.00940087 -0.00947899 0.00174595 ) 0 
( -0.000943463 -0.00530987 0.00195009 ) 0 
( -0.00398791 -0.00928651 0.00272223 ) 0 
( -0.00902694 -0.00126238 0.00670832 ) 0 
( -0.000403083 -0.00253163 0.00529058 ) 0 
( -0.00191399 -0.00148778 0.005577 ) 0 
( -0.00550954 -0.00870802 0.00207185 ) 0 
( -0.00402444 -0.00646784 0.00700807 ) 0 
( -0.00912521 -0.00274201 0.00174516 ) 0 
( -0.0113848 -0.00697205 0.00152473 ) 0 
( -0.00739743 -0.00348673 0.00700553 ) 0 
( -0.0102977 -0.000176433 0.00383432 ) 0 
( -0.00434216 -0.0117864 0.00312267 ) 0 
( -0.0025025 -0.00213022 0.00200549 ) 0 
( -0.00814284 -0.00178289 0.00514355 ) 0 
( -0.00846945 -0.00643006 0.00522273 ) 0 
( -0.00134294 -0.00408028 0.00463855 ) 0 
( -0.00355435 -0.00669783 0.00388604 ) 0 
( -0.0127476 -0.0039653 0.00363713 ) 0 
( -0.00583081 -0.000921563 0.00142511 ) 0 
( -0.00800482 -0.00901782 0.00382936 ) 0 
( -0.0131871 -0.00207932 0.0030253 ) 0 
( -0.00784687 -0.00186007 0.00301898 ) 0 
( -0.00443485 -0.00787218 0.00126633 ) 0 
( -0.0100024 -0.00499535 0.00182215 ) 0 
( -0.00458843 -0.0125368 0.00373593 ) 0 
( -0.011017 -0.00091103 0.00178683 ) 0 
( -0.0116259 -0.00639987 0.00231216 ) 0 
( -0.00728919 -0.00590667 0.00577162 ) 0 
( -0.00263305 -0.00749412 0.000779153 ) 0 
( -0.0051 -0.00150627 0.00107349 ) 0 
( -0.0035742 -0.00735874 0.00706501 ) 0 
( -0.000224869 -0.00528761 0.000891592 ) 0 
( -0.00758996 -0.000733299 0.00535202 ) 0 
( -0.00232966 -0.0123325 0.0038854 ) 0 
( -0.0061408 -0.0118539 0.00272312 ) 0 
( -0.0118289 -0.00219182 0.00329303 ) 0 
( -0.00571645 -0.00389983 0.00352957 ) 0 
( -0.00729601 -0.00122735 0.00245983 ) 0 
( -0.000167947 -0.000271398 0.00122783 ) 0 
( -0.00385372 -0.00357275 0.00236175 ) 0 
( -0.00357936 -2.57154e-05 0.00634784 ) 0 
( -0.00721052 -0.000287621 0.000755766 ) 0 
( -0.00290822 -0.0123389 0.000499736 ) 0 
( -0.00244485 -0.00374298 0.00408015 ) 0 
( -0.00192561 -0.00812434 0.00445084 ) 0 
( -0.0122552 -0.00239204 0.00497434 ) 0 
( -0.00755764 -0.00315261 0.0023108 ) 0 
( -0.00824151 -0.0105028 0.00115931 ) 0 
( -0.00896447 -0.00731306 0.00492534 ) 0 
( -0.000465918 -0.00375849 0.00427818 ) 0 
( -0.00761661 -0.00844372 0.00459922 ) 0 
( -0.00552764 -0.00827908 0.00454935 ) 0 
( -0.00654635 -0.00568167 0.00338364 ) 0 
( -0.00341249 -0.00342895 0.00421007 ) 0 
( -0.00437446 -0.0116293 0.0062688 ) 0 
( -0.00135834 -0.00181424 0.00174332 ) 0 
( -0.00032104 -0.0126058 0.00241877 ) 0 
( -0.000470242 -0.00377557 0.00327844 ) 0 
( -0.0087025 -0.00227885 0.00332283 ) 0 
( -0.0033034 -0.0112081 0.00049951 ) 0 
( -0.00718533 -0.00102105 0.00144697 ) 0 
( -0.00497636 -0.0106749 0.00377898 ) 0 
( -0.00235899 -0.00388007 0.00793067 ) 0 
( -0.0092081 -0.00578264 0.0040568 ) 0 
( -0.00719189 -0.00400766 0.00194331 ) 0 
( -0.00359205 -0.00261859 0.00219741 ) 0 
( -0.0021151 -0.000610923 0.00512055 ) 0 
( -0.0118059 -0.00417738 0.00572538 ) 0 
( -0.00586637 -0.0013825 0.00798304 ) 0 
( -0.00671425 -0.00233275 0.00288679 ) 0 
( -0.00222184 -0.0131637 0.00553749 ) 0 
( -0.0051126 -0.0014741 0.00626346 ) 0 
( -0.00527909 -0.000469018 0.00341362 ) 0 
( -0.00313958 -0.00781179 0.00628722 ) 0 
( -0.0104014 -0.00244658 0.00231586 ) 0 
( -0.00285948 -0.00683597 0.00318055 ) 0 
( -0.000879802 -0.00146175 0.00818016 ) 0 
( -0.00999271 -0.00558789 0.000499692 ) 0 
( -0.00321392 -0.0043181 0.00379818 ) 0 
( -0.0102329 -0.00719036 0.00412535 ) 0 
( -7.82113e-05 -0.00680344 0.00508425 ) 0 
( -0.012536 -0.00459093 0.00221036 ) 0 
( -0.010383 -0.00772082 0.00495949 ) 0 
( -0.00123711 -0.00924966 0.00212556 ) 0 
( -0.00649942 -0.00695228 0.0011818 ) 0 
( -0.0106427 -0.00805961 0.00384916 ) 0 
( -0.00830579 -0.00848265 0.000499709 ) 0 
( -0.00126887 -0.00474701 0.00544643 ) 0 
( -0.00478598 -0.00227441 0.00576094 ) 0 
( -0.0076213 -0.00494476 0.000499651 ) 0 
( -0.0011212 -0.00155151 0.00279367 ) 0 
( -0.0102088 -0.00739358 0.000499446 ) 0 
( -0.00292632 -0.00188924 0.00711957 ) 0 
( -0.000762397 -0.0126927 0.00511051 ) 0 
( -0.00658804 -0.010917 0.00422049 ) 0 
( -0.00317646 -0.00619595 0.00170288 ) 0 
( -0.000447708 -0.00246697 0.00656201 ) 0 
( -0.0115111 -0.00333719 0.00621647 ) 0 
( -0.012833 -0.00358194 0.000499752 ) 0 
( -0.00435796 -0.00661785 0.00103462 ) 0 
( -0.00774571 -0.00909332 0.0010833 ) 0 
( -0.00521049 -0.00241702 0.00147095 ) 0 
( -0.00416861 -0.0111075 0.00119078 ) 0 
( -0.00306412 -0.00711402 0.00557547 ) 0 
( -0.00612045 -0.00300149 0.00335808 ) 0 
( -0.00846112 -0.00744715 0.00137075 ) 0 
( -0.00777717 -0.00628214 0.0045166 ) 0 
( -0.00878925 -0.00165722 0.00241122 ) 0 
( -0.00718122 -0.00073993 0.00710098 ) 0 
( -0.00710171 -0.00586951 0.00678244 ) 0 
( -0.00584717 -0.00728273 0.000499866 ) 0 
( -0.00743142 -0.00416826 0.00627457 ) 0 
( -0.0052784 -0.00829719 0.00358083 ) 0 
( -0.00740072 -0.00196363 0.00117773 ) 0 
( -0.0052819 -0.00531518 0.00346753 ) 0 
( -0.0100267 -0.00126457 0.00670738 ) 0 
( -0.00327412 -0.0016911 0.00151244 ) 0 
( -0.00568676 -0.00219811 0.00295026 ) 0 
( -0.00391538 -0.00825125 0.00677088 ) 0 
( -0.00555812 -0.0108087 0.00148026 ) 0 
( -0.0112025 -0.00188571 0.00252462 ) 0 
( -0.00989597 -0.00585621 0.00556401 ) 0 
( -0.0033129 -0.00421307 0.000499813 ) 0 
( -0.0010657 -0.00124468 0.00639001 ) 0 
( -0.0114665 -0.00282733 0.00225165 ) 0 
( -0.00317193 -0.00430142 0.00223847 ) 0 
( -0.0131576 -0.00216602 0.00565567 ) 0 
( -0.00948785 -0.00248198 0.0027382 ) 0 
( -0.000204642 -0.0110605 0.00581161 ) 0 
( -9.70066e-05 -0.000287805 0.00739749 ) 0 
( -0.0114924 -0.00185401 0.00155961 ) 0 
( -0.00126066 -0.00984838 0.00700799 ) 0 
( -0.0013367 -0.00411935 0.00626548 ) 0 
( -0.00504433 -0.000682654 0.00206544 ) 0 
( -0.00617048 -0.00557193 0.00437615 ) 0 
( -0.0100386 -0.00266172 0.00725933 ) 0 
( -0.0117108 -0.00181763 0.00422197 ) 0 
( -0.00477887 -0.00698029 0.00514503 ) 0 
( -0.000336386 -0.00649287 0.0014396 ) 0 
( -0.00875796 -0.000557018 0.00605278 ) 0 
( -0.00184745 -0.0023955 0.00109314 ) 0 
( -0.0116095 -0.000481848 0.00246842 ) 0 
( -0.0113564 -0.00504496 0.000499657 ) 0 
( -0.00750725 -0.00889828 0.00296686 ) 0 
( -0.00492439 -2.95383e-05 0.00562262 ) 0 
( -0.00344391 -0.0019988 0.000499867 ) 0 
( -0.000743187 -0.0114867 0.00385546 ) 0 
( -0.00357898 -0.00328819 0.00132953 ) 0 
( -0.0118533 -0.000677015 0.0048777 ) 0 
( -0.00133297 -0.0062906 0.00211723 ) 0 
( -0.00404812 -0.00416237 0.00466775 ) 0 
( -0.00213737 -0.0125555 0.00645101 ) 0 
( -0.0119264 -0.00279121 0.00411858 ) 0 
( -0.00813588 -0.000718169 0.00264727 ) 0 
( -0.000824666 -0.0119296 0.00295626 ) 0 
( -0.00146942 -0.00168505 0.000499642 ) 0 
( -0.00785347 -0.00439144 0.00129932 ) 0 
( -0.00181756 -0.0112245 0.000499596 ) 0 
( -0.00143265 -0.0111644 0.00316777 ) 0 
( -0.000780491 -0.0133272 0.00314798 ) 0 
( -0.00370831 -0.00836442 0.0043543 ) 0 
( -0.0113629 -0.00510019 0.00656836 ) 0 
( -0.00477796 -0.00129539 0.00516771 ) 0 
( -0.00336528 -0.0038322 0.00619523 ) 0 
( -0.00786076 -0.000257951 0.00765305 ) 0 
( -0.0125678 -0.000522331 0.00356355 ) 0 
( -0.0099036 -0.00218492 0.00460187 ) 0 
( -0.00302127 -0.00919555 0.00527018 ) 0 
( -0.00531055 -0.00402548 0.00642209 ) 0 
( -0.0042529 -0.00884675 0.0036215 ) 0 
( -0.00514506 -0.00603453 0.00683571 ) 0 
( -0.0020496 -0.00345213 0.00648103 ) 0 
( -0.00656501 -0.00157331 0.00729371 ) 0 
( -0.00360278 -0.0105151 0.00300809 ) 0 
( -0.00422564 -0.00114574 0.00362106 ) 0 
( -0.00191038 -0.00458292 0.00398655 ) 0 
( -0.000266428 -0.00227258 0.00766303 ) 0 
( -0.0130324 -0.00280016 0.00233918 ) 0 
( -0.0104141 -0.00403303 0.00720916 ) 0 
( -0.00161693 -0.013176 0.00368231 ) 0 
( -0.00656198 -0.00756343 0.00596807 ) 0 
( -0.00837778 -0.000328094 0.00353554 ) 0 
( -0.00403122 -0.00902933 0.00507832 ) 0 
( -0.00413079 -0.00293404 0.00612892 ) 0 
( -0.00137245 -0.00214943 0.00609538 ) 0 
( -0.00449528 -0.00311934 0.00173651 ) 0 
( -0.00498104 -0.00873115 0.00122345 ) 0 
( -0.000457675 -0.0120275 0.00579162 ) 0 
( -0.0064518 -0.00413795 0.00647211 ) 0 
( -0.0110087 -0.00417744 0.00641894 ) 0 
( -0.0122846 -0.00200402 0.00698846 ) 0 
( -0.000769972 -0.012419 0.000499878 ) 0 
( -0.00754366 -0.0026065 0.00655477 ) 0 
( -0.00473752 -0.00488966 0.00635198 ) 0 
( -0.0108605 -0.00239338 0.00436986 ) 0 
( -0.00557458 -0.00319735 0.00254356 ) 0 
( -0.00223511 -0.00195513 0.00388738 ) 0 
( -0.00588183 -0.000599831 0.0026242 ) 0 
( -0.00845342 -0.00437093 0.000499769 ) 0 
( -0.00249471 -0.0030131 0.00476181 ) 0 
( -0.0029727 -0.00954011 0.00634065 ) 0 
( -0.000127599 -0.0099771 0.00278275 ) 0 
( -0.00481523 -0.0116493 0.00537171 ) 0 
( -0.000948831 -0.00249254 0.00836089 ) 0 
( -0.00516792 -0.00283284 0.0036111 ) 0 
( -0.00252427 -0.00195143 0.00493482 ) 0 
( -0.00797085 -0.00745295 0.000499589 ) 0 
( -3.16547e-06 -0.0114427 0.000499777 ) 0 
( -0.00602136 -0.000540971 0.00408352 ) 0 
( -0.00228807 -0.0131361 0.000499878 ) 0 
( -0.0101712 -0.00499442 0.00282344 ) 0 
( -0.00836134 -0.00256946 0.00242889 ) 0 
( -0.00289619 -0.00018602 0.00563561 ) 0 
( -0.000256078 -0.0108754 0.00132478 ) 0 
( -0.00352725 -0.000744212 0.00178379 ) 0 
( -0.0126211 -0.0043515 0.00516285 ) 0 
( -0.00930006 -0.00175505 0.0039297 ) 0 
( -0.0104971 -0.00573647 0.00134994 ) 0 
( -0.00964771 -0.00317622 0.00494722 ) 0 
( -0.0106303 -0.00321636 0.00667417 ) 0 
( -0.00549097 -0.00436908 0.00136667 ) 0 
( -0.00736315 -0.00163254 0.00668946 ) 0 
( -0.00594964 -0.00461413 0.000499736 ) 0 
( -0.00547989 -0.000780287 0.000499692 ) 0 
( -0.00223727 -0.00959072 0.00701585 ) 0 
( -0.0021718 -0.00582511 0.00182584 ) 0 
( -0.0105084 -0.0017075 0.00146019 ) 0 
( -0.00108749 -0.00478787 0.00696609 ) 0 
( -0.00359994 -0.00517177 0.000499697 ) 0 
( -0.00536569 -0.0112578 0.00251401 ) 0 
( -0.00679481 -0.00785425 0.00149623 ) 0 
( -0.00610214 -0.0079926 0.00674537 ) 0 
( -0.000876925 -0.00762946 0.00726634 ) 0 
( -0.0131056 -0.00254384 0.00761607 ) 0 
( -0.00618586 -0.00988349 0.00497213 ) 0 
( -0.00120493 -0.00687161 0.00377942 ) 0 
( -0.00708128 -0.00323475 0.00320964 ) 0 
( -0.000654556 -0.00497045 0.00794824 ) 0 
( -0.00945733 -0.000317402 0.00537949 ) 0 
( -0.00451134 -0.000407445 0.00479329 ) 0 
( -0.0129234 -0.00330845 0.00620117 ) 0 
( -0.00440436 -0.000828494 0.00131113 ) 0 
( -0.00367456 -0.00212538 0.00649998 ) 0 
( -0.0123898 -0.00190279 0.000499858 ) 0 
( -0.0115536 -0.000330411 0.00616425 ) 0 
( -0.00627707 -3.63923e-05 0.000499851 ) 0 
( -0.000856633 -0.0102012 0.00342987 ) 0 
( -0.00084853 -0.00828416 0.00300027 ) 0 
( -0.00671623 -0.0115377 0.000499792 ) 0 
( -0.00373875 -0.00984424 0.00129065 ) 0 
( -0.00138066 -0.00925739 0.000499745 ) 0 
( -0.00943186 -0.00386485 0.00606867 ) 0 
( -0.00348445 -0.0128874 0.00219958 ) 0 
( -0.0107901 -0.00619152 0.000499868 ) 0 
( -0.00813198 -0.00216769 0.000499775 ) 0 
( -0.00920812 -0.00325894 0.00330245 ) 0 
( -0.00527135 -0.00562651 0.00593167 ) 0 
( -0.00214388 -0.00781492 0.00279792 ) 0 
( -0.00650761 -0.0024128 0.00675392 ) 0 
( -0.00774636 -0.0106535 0.00201467 ) 0 
( -0.00226906 -0.010516 0.00663779 ) 0 
( -0.012761 -0.00295973 0.00328824 ) 0 
( -0.00672146 -0.0099226 0.00412891 ) 0 
( -0.00345883 -0.0107214 0.00710247 ) 0 
( -0.00828532 -0.00601392 0.00350304 ) 0 
( -0.00384768 -0.00615666 0.00309822 ) 0 
( -0.00321198 -0.00109071 0.00328666 ) 0 
( -0.00714144 -0.00307828 0.00419586 ) 0 
( -0.00526133 -0.0105764 0.00534547 ) 0 
( -0.00448737 -0.00317911 0.0048486 ) 0 
( -0.00439054 -0.000289633 0.00726802 ) 0 
( -0.00562461 -0.00467483 0.00415459 ) 0 
( -0.0114646 -0.00598204 0.00140904 ) 0 
( -0.00685308 -0.00745065 0.00501581 ) 0 
( -0.00257284 -0.00300076 0.00575859 ) 0 
( -0.0106971 -0.00100605 0.000499694 ) 0 
( -0.00817115 -0.0105572 0.00292233 ) 0 
( -0.00352167 -0.0109927 0.00614241 ) 0 
( -0.00153262 -0.00819493 0.00584213 ) 0 
( -0.00316442 -0.0034133 0.00753379 ) 0 
( -0.00232593 -0.00842458 0.00356928 ) 0 
( -0.00584203 -0.0104274 0.00614559 ) 0 
( -0.0100656 -0.00410153 0.00131127 ) 0 
( -0.00102249 -0.00387721 0.000499617 ) 0 
( -0.00802334 -0.00145742 0.0017742 ) 0 
( -0.00434681 -0.00334414 0.00386424 ) 0 
( -0.00108946 -0.00846493 0.00493742 ) 0 
( -0.0082307 -0.00811513 0.00207826 ) 0 
( -0.00754903 -0.00473411 0.00457724 ) 0 
( -0.00515531 -0.000164664 0.00121748 ) 0 
( -0.00104401 -0.000102867 0.0077416 ) 0 
( -0.00138357 -0.00321801 0.00776031 ) 0 
( -0.00208155 -0.00759142 0.00181475 ) 0 
( -0.0109135 -0.00767664 0.00580574 ) 0 
( -0.00605655 -0.00149481 0.00452116 ) 0 
( -0.00137148 -0.00723065 0.00549865 ) 0 
( -0.00173705 -0.00514401 0.00123701 ) 0 
( -0.000802091 -0.00928332 0.0030369 ) 0 
( -0.00133085 -0.0122267 0.00214569 ) 0 
( -0.0098599 -0.00408783 0.00332184 ) 0 
( -0.00357293 -0.00860431 0.00585856 ) 0 
( -0.00450498 -0.00566737 0.000499626 ) 0 
( -0.00487869 -0.00248613 0.00243635 ) 0 
( -0.00795668 -0.0107198 0.00559406 ) 0 
( -0.00538345 -0.00689753 0.00242024 ) 0 
( -0.00843195 -0.00911936 0.00200018 ) 0 
( -0.00598493 -0.00838755 0.00125272 ) 0 
( -0.0026323 -0.0114235 0.00629382 ) 0 
( -0.00143222 -0.0101152 0.00604825 ) 0 
( -0.00166285 -0.0123382 0.00545975 ) 0 
( -0.0109154 -0.00391085 0.00180252 ) 0 
( -0.00472843 -0.00515772 0.00437925 ) 0 
( -7.44773e-05 -0.00941565 0.00553712 ) 0 
( -0.00245297 -0.00443421 0.00315995 ) 0 
( -0.00114547 -0.0124432 0.00638648 ) 0 
( -0.0110412 -0.00396499 0.000499762 ) 0 
( -0.00291104 -0.00813641 0.00169389 ) 0 
( -0.00612128 -0.00362892 0.00049969 ) 0 
( -0.00821519 -0.00808753 0.00679117 ) 0 
( -0.00959544 -0.00121072 0.005807 ) 0 
( -0.00821665 -0.00371088 0.00399524 ) 0 
( -0.00399832 -0.00731052 0.00453952 ) 0 
( -0.00256799 -0.00566745 0.00806314 ) 0 
( -0.0100644 -0.00589863 0.00224631 ) 0 
( -0.00591421 -0.00892914 0.00644954 ) 0 
( -0.00178305 -0.0013722 0.00456361 ) 0 
( -0.00675396 -0.0115156 0.00343689 ) 0 
( -0.00654975 -0.00821444 0.0032137 ) 0 
( -0.00191056 -0.0016113 0.00677884 ) 0 
( -0.00530511 -0.00524764 0.000927374 ) 0 
( -0.00231473 -0.00159329 0.00295853 ) 0 
( -0.00757002 -0.00673111 0.00106333 ) 0 
( -0.00828464 -0.00900979 0.00637516 ) 0 
( -0.00381342 -0.0117692 0.00708614 ) 0 
( -0.000699911 -0.00938662 0.00631672 ) 0 
( -0.00380682 -0.00663957 0.00604749 ) 0 
( -0.000691132 -0.0105747 0.00653759 ) 0 
( -2.92268e-05 -0.00788098 0.000499611 ) 0 
( -0.0101517 -0.00588834 0.00440879 ) 0 
( -0.00949742 -0.0052465 0.00694364 ) 0 
( -0.0101938 -0.0032866 0.00577742 ) 0 
( -0.0055097 -0.0109964 0.000499575 ) 0 
( -0.00405968 -0.00586732 0.00412054 ) 0 
( -0.00215507 -0.000375138 0.00133459 ) 0 
( -0.010645 -0.0032212 0.00488746 ) 0 
( -0.00254489 -0.00507272 0.00237692 ) 0 
( -0.0070139 -0.006726 0.00627433 ) 0 
( -0.0124206 -0.00143772 0.00300281 ) 0 
( -0.00532269 -0.00779127 0.00171919 ) 0 
( -0.00956836 -0.00610389 0.0014019 ) 0 
( -0.0077149 -0.00336007 0.00572126 ) 0 
( -0.00883191 -0.00418392 0.00335944 ) 0 
( -0.00676344 -0.0105129 0.00332305 ) 0 
( -0.00528154 -0.0122609 0.00304488 ) 0 
( -0.0100429 -0.00506556 0.00496664 ) 0 
( -0.00329717 -0.00245543 0.00454947 ) 0 
( -0.00112198 -0.0116047 0.00110871 ) 0 
( -0.00590536 -0.000702232 0.00589306 ) 0 
( -0.00731366 -0.00797174 0.00261591 ) 0 
( -0.00331422 -0.00337763 0.00520371 ) 0 
( -0.00359058 -0.00465201 0.00135418 ) 0 
( -0.00236487 -0.00463042 0.000499869 ) 0 
( -0.00220883 -0.00959204 0.00569761 ) 0 
( -0.00456319 -0.00951314 0.00174939 ) 0 
( -0.0133129 -0.000994803 0.00309312 ) 0 
( -0.00831378 -0.00346175 0.00290134 ) 0 
( -0.0106637 -0.00650143 0.00690047 ) 0 
( -0.00306357 -0.00835223 0.000499815 ) 0 
( -0.0109111 -0.00384141 0.00284711 ) 0 
( -0.00762737 -0.00374505 0.00480261 ) 0 
( -0.00924242 -0.0047598 0.00244871 ) 0 
( -0.0116948 -0.00100948 0.003541 ) 0 
( -0.00627846 -0.0117785 0.00136579 ) 0 
( -0.00697886 -0.00757889 0.000499877 ) 0 
( -0.00824474 -0.00145221 0.00611503 ) 0 
( -0.00685029 -0.00899805 0.00376945 ) 0 
( -0.0102999 -0.00463634 0.000499747 ) 0 
( -0.0087714 -0.00864696 0.00281727 ) 0 
( -0.0113029 -0.00249368 0.0052641 ) 0 
( -0.00742758 -0.00122942 0.000499632 ) 0 
( -0.0109969 -0.00756936 0.0025314 ) 0 
( -0.00197807 -0.00311952 0.00321579 ) 0 
( -0.0122706 -0.00371225 0.00447866 ) 0 
( -0.000348927 -0.00053053 0.00596154 ) 0 
( -0.00314264 -0.00572479 0.00366038 ) 0 
( -0.00730746 -0.00135811 0.00462448 ) 0 
( -0.00908826 -0.00482278 0.00145603 ) 0 
( -0.00778103 -0.00593279 0.000499706 ) 0 
( -0.0092421 -0.00289987 0.00588838 ) 0 
( -0.000939844 -0.00267424 0.0020357 ) 0 
( -0.00288491 -0.00595056 0.00271475 ) 0 
( -0.00815971 -0.00290322 0.00728462 ) 0 
( -0.00536795 -0.00816024 0.000499635 ) 0 
( -0.00174014 -0.000965722 0.00210954 ) 0 
( -0.000723499 -0.00966922 0.0047129 ) 0 
( -0.00881915 -0.0100229 0.000499413 ) 0 
( -0.00136319 -0.00691216 0.00133458 ) 0 
( -0.00305669 -0.00424725 0.00478312 ) 0 
( -0.00293425 -0.00510879 0.00530914 ) 0 
( -0.00310443 -0.00812748 0.00511521 ) 0 
( -0.0100415 -0.00413034 0.00233535 ) 0 
( -0.0121175 -0.0016062 0.00557697 ) 0 
( -0.00383503 -0.000615735 0.00549972 ) 0 
( -0.00518006 -0.00732289 0.00429531 ) 0 
( -0.00146939 -0.00827296 0.00221525 ) 0 
( -0.00811081 -0.00499059 0.00205728 ) 0 
( -0.00341166 -0.00694734 0.00108671 ) 0 
( -0.00226034 -0.00716698 0.00616763 ) 0 
( -0.0108717 -0.00774813 0.00115844 ) 0 
( -0.00583378 -0.0120079 0.000499904 ) 0 
( -0.00167885 -0.004651 0.00210841 ) 0 
( -0.00714289 -0.0112787 0.00141881 ) 0 
( -0.00772208 -0.00810297 0.00121721 ) 0 
( -0.00136185 -0.00878367 0.00369787 ) 0 
( -0.011161 -0.00732531 0.00447183 ) 0 
( -0.00371331 -0.00677351 0.00232283 ) 0 
( -0.00075764 -0.00113532 0.0046119 ) 0 
( -0.00452034 -0.000212253 0.00281298 ) 0 
( -0.00444467 -0.00199709 0.000499661 ) 0 
( -0.00757786 -0.00734471 0.00185274 ) 0 
( -0.0052959 -0.00349312 0.00435103 ) 0 
( -0.00788904 -0.00593453 0.00181322 ) 0 
( -0.0109039 -0.0010209 0.00292818 ) 0 
( -0.00205438 -0.00478164 0.00671278 ) 0 