/*--------------------------------*- C++ -*----------------------------------*\
| =========                 |                                                 |
| \\      /  F ield         | OpenFOAM: The Open Source CFD Toolbox           |
|  \\    /   O peration     | Version:  2506                                  |
|   \\  /    A nd           | Website:  www.openfoam.com                      |
|    \\/     M anipulation  |                                                 |
\*---------------------------------------------------------------------------*/
FoamFile
{
    version     2.0;
    format      ascii;
    arch        "LSB;label=32;scalar=64";
    class       volScalarField;
    location    "0.09";
    object      Ksl;
}
// * * * * * * * * * * * * * * * * * * * * * * * * * * * * * * * * * * * * * //

dimensions      [1 -3 -1 0 0 0 0];

internalField   nonuniform List<scalar> 
1152
(
122891
86082.5
165974
176244
105508
180960
142205
239059
156564
142254
258491
123813
132577
224840
262830
258773
423072
130367
210877
156789
186313
152228
183769
154096
184900
222085
129799
172380
174998
159369
160030
136168
182469
206062
252413
240743
246811
173722
269148
290603
342205
183206
232323
237063
245787
429705
170784
333330
363664
331179
256021
239790
203405
226241
175584
213424
224021
284761
283402
290855
188188
186125
224436
248861
225546
267929
254988
269008
466652
281454
244477
184824
198720
251549
258573
212023
298748
134496
326346
121092
418478
177116
260742
269360
177679
407487
215566
216464
248384
159079
205907
354297
331243
247220
269390
215842
59383.1
118178
111447
63896.6
156827
164455
161229
86226.3
128036
115078
225009
105320
350193
117664
167560
60225.6
0
0
0
0
0
0
121.827
0
0
0
768.23
0
0
61447.1
740.591
0
0
0
0
0
0
0
0
0
0
0
0
0
0
0
0
0
0
0
0
0
0
0
0
0
0
0
0
0
0
0
0
0
0
0
0
0
0
0
0
0
0
0
0
0
0
0
0
0
0
0
0
0
0
0
0
0
0
0
0
0
0
0
0
0
0
0
0
0
0
0
0
0
0
0
0
0
0
0
0
0
0
0
0
0
0
0
0
0
0
0
0
0
0
0
0
0
0
0
0
0
0
0
0
0
0
0
0
0
0
0
0
0
0
0
0
0
0
0
0
0
0
0
0
0
0
0
0
0
0
0
0
0
0
0
0
0
0
0
0
0
0
0
0
0
0
0
0
0
0
0
0
0
0
0
0
0
0
0
0
0
0
0
0
0
0
0
0
0
0
0
0
0
0
0
0
0
0
0
0
0
0
0
0
0
0
0
0
0
0
0
0
0
0
0
0
0
0
0
0
0
0
0
0
0
0
0
0
0
0
0
0
0
0
0
0
0
0
0
0
0
0
0
0
0
0
0
0
0
0
0
0
0
0
0
0
0
0
0
0
0
0
0
0
0
0
0
0
0
0
0
0
0
0
0
0
0
163364
210575
108007
214433
274449
224549
175518
156744
140644
160369
169739
130894
138257
184480
167741
237477
209576
144679
118589
189884
228362
118446
253009
185263
160604
161981
148524
63902
125993
158531
206928
183783
255710
245186
230584
143283
146178
221114
270900
229854
231107
197188
159759
305611
373903
360606
196590
314754
190540
202278
194749
153588
368190
235298
245068
301130
219545
140393
253230
200280
263609
208733
279096
199208
207810
204533
190242
204232
201409
305999
165709
201850
157173
187790
224773
350113
298098
221812
321036
264025
212009
190166
223122
204978
206887
347500
233827
244657
232062
294072
329437
344960
125549
230074
246289
200027
65918.5
72852.2
60128.8
124854
56496.5
85305.3
118190
103706
62987.8
43780
50091.4
93453
49276.5
116905
49528.7
40612.5
0
0
0
0
0
0
0
0
0
0
0
0
0
0
0
0
0
0
0
0
0
0
0
0
0
0
0
0
0
0
0
0
0
0
0
0
0
0
0
0
0
0
0
0
0
0
0
0
0
0
0
0
0
0
0
0
0
0
0
0
0
0
0
0
0
0
0
0
0
0
0
0
0
0
0
0
0
0
0
0
0
0
0
0
0
0
0
0
0
0
0
0
0
0
0
0
0
0
0
0
0
0
0
0
0
0
0
0
0
0
0
0
0
0
0
0
0
0
0
0
0
0
0
0
0
0
0
0
0
0
0
0
0
0
0
0
0
0
0
0
0
0
0
0
0
0
0
0
0
0
0
0
0
0
0
0
0
0
0
0
0
0
0
0
0
0
0
0
0
0
0
0
0
0
0
0
0
0
0
0
0
0
0
0
0
0
0
0
0
0
0
0
0
0
0
0
0
0
0
0
0
0
0
0
0
0
0
0
0
0
0
0
0
0
0
0
0
0
0
0
0
0
0
0
0
0
0
0
0
0
0
0
0
0
0
0
0
0
0
0
0
0
0
0
0
0
0
0
0
0
0
0
0
0
0
0
0
0
0
0
0
0
0
0
0
0
0
0
0
0
0
0
178811
221198
171733
215710
148673
185185
192846
140123
198262
151708
154053
128475
137427
287453
118154
128472
104599
116489
200962
86843.9
133081
285149
217639
141389
201638
186504
218132
212098
151357
115563
199703
140523
260474
281729
308242
220699
165815
258419
154833
234298
218566
202222
217248
242919
178220
212939
177075
280279
218534
287386
285999
169291
307233
236504
211329
194210
204955
205022
250759
184355
247225
271384
185313
294932
242129
377041
188446
151331
272793
280998
196148
213015
306390
250932
231272
217531
223851
225993
186892
259953
165532
307799
328776
187581
92424.6
205198
164932
223202
241570
320004
220214
172373
303742
230386
260258
302187
79130.9
114256
101306
89683.6
57296.3
66957.9
114477
136554
48515.7
66790.9
40013
200720
114149
51705.5
84667.7
82359
0
0
0
0
0
0
0
0
0
0
0
22853.6
0
0
0
0
0
0
0
0
0
0
0
0
0
0
0
0
0
0
0
0
0
0
0
0
0
0
0
0
0
0
0
0
0
0
0
0
0
0
0
0
0
0
0
0
0
0
0
0
0
0
0
0
0
0
0
0
0
0
0
0
0
0
0
0
0
0
0
0
0
0
0
0
0
0
0
0
0
0
0
0
0
0
0
0
0
0
0
0
0
0
0
0
0
0
0
0
0
0
0
0
0
0
0
0
0
0
0
0
0
0
0
0
0
0
0
0
0
0
0
0
0
0
0
0
0
0
0
0
0
0
0
0
0
0
0
0
0
0
0
0
0
0
0
0
0
0
0
0
0
0
0
0
0
0
0
0
0
0
0
0
0
0
0
0
0
0
0
0
0
0
0
0
0
0
0
0
0
0
0
0
0
0
0
0
0
0
0
0
0
0
0
0
0
0
0
0
0
0
0
0
0
0
0
0
0
0
0
0
0
0
0
0
0
0
0
0
0
0
0
0
0
0
0
0
0
0
0
0
0
0
0
0
0
0
0
0
0
0
0
0
0
0
0
0
0
0
0
0
0
0
0
0
0
0
0
0
0
0
0
0
)
;

boundaryField
{
    inlet
    {
        type            zeroGradient;
    }
    outlet
    {
        type            zeroGradient;
    }
    wall
    {
        type            zeroGradient;
    }
    procBoundary1to0
    {
        type            processor;
        value           nonuniform List<scalar> 
192
(
181584
167596
200615
102462
156624
190057
196525
135960
291333
257006
219539
157809
132558
303509
222235
418688
261535
112508
299185
304300
134641
349531
170294
140681
80767.7
113751
138177
82077.4
0
0
0
0
0
0
0
0
0
0
0
0
0
0
0
0
0
0
0
0
0
0
0
0
0
0
0
0
0
0
0
0
0
0
0
0
0
0
0
0
0
0
0
0
0
0
0
0
0
0
0
0
0
0
0
0
0
0
0
0
0
0
0
0
0
0
0
0
196604
100370
220139
307933
108706
185791
142298
161575
136598
224969
291278
189206
282010
148865
211168
223461
247882
320197
397440
300513
214069
343935
229865
378778
65316.2
58599.2
60395.4
48375.5
0
0
0
0
0
0
0
0
0
0
0
0
0
0
0
0
0
0
0
0
0
0
0
0
0
0
0
0
0
0
0
0
0
0
0
0
0
0
0
0
0
0
0
0
0
0
0
0
0
0
0
0
0
0
0
0
0
0
0
0
0
0
0
0
0
0
0
0
)
;
    }
    procBoundary1to3
    {
        type            processor;
        value           nonuniform List<scalar> 
192
(
208190
205673
79154.3
233318
155635
89561.2
220562
227520
261513
368420
171542
139821
278819
268163
324164
158745
133726
549798
151803
410993
218520
122502
235054
316994
67625.2
117374
89182.1
54007.6
0
0
0
0
0
0
0
0
0
0
0
0
0
0
0
0
0
0
0
0
0
0
0
0
0
0
0
0
0
0
0
0
0
0
0
0
0
0
0
0
0
0
0
0
0
0
0
0
0
0
0
0
0
0
0
0
0
0
0
0
0
0
0
0
0
0
0
0
206246
157475
207777
227866
213531
170838
98375.9
188140
258217
283500
317290
183413
296197
256723
215769
214817
256464
194167
258722
192076
157454
159042
213107
168044
45491.5
50166.3
69589.2
57630.5
0
0
0
0
0
0
0
0
0
0
0
0
0
0
0
0
0
0
0
0
0
0
0
0
0
0
0
0
0
0
0
0
0
0
0
0
0
0
0
0
0
0
0
0
0
0
0
0
0
0
0
0
0
0
0
0
0
0
0
0
0
0
0
0
0
0
0
0
)
;
    }
}


// ************************************************************************* //
