/*--------------------------------*- C++ -*----------------------------------*\
| =========                 |                                                 |
| \\      /  F ield         | OpenFOAM: The Open Source CFD Toolbox           |
|  \\    /   O peration     | Version:  2506                                  |
|   \\  /    A nd           | Website:  www.openfoam.com                      |
|    \\/     M anipulation  |                                                 |
\*---------------------------------------------------------------------------*/
FoamFile
{
    version     2.0;
    format      ascii;
    arch        "LSB;label=32;scalar=64";
    class       volVectorField;
    location    "0.09";
    object      Us;
}
// * * * * * * * * * * * * * * * * * * * * * * * * * * * * * * * * * * * * * //

dimensions      [0 1 -1 0 0 0 0];

internalField   nonuniform List<vector> 
1152
(
(-0.000192864 -9.59426e-05 0.000118778)
(-8.03345e-06 0.000122706 0.000216825)
(-2.31689e-05 -0.000141147 0.000323077)
(8.24198e-05 0.000106414 7.30625e-05)
(0.000312228 -0.000312353 -0.000421362)
(-5.61948e-05 -2.31056e-05 -0.000127328)
(6.55782e-05 -0.000474327 -0.000324125)
(0.000147044 6.28416e-05 -0.00140453)
(2.33237e-05 7.97914e-05 -7.52578e-05)
(0.000560771 -5.57517e-05 -0.000275593)
(0.000614042 0.0010076 -0.000437258)
(-0.000298715 0.00150515 -0.000401986)
(-0.000135615 -3.67015e-05 9.43788e-06)
(0.000221866 0.000434441 -0.000526056)
(0.000955714 0.00120522 -0.000308424)
(0.00123325 0.000555806 1.44862e-05)
(-0.000112841 0.000271743 0.00889366)
(0.00238611 0.000228241 0.0133389)
(0.00151777 -0.000364618 0.0111822)
(0.000419871 0.000359231 0.0110833)
(0.00135679 0.000944829 0.0115598)
(0.00118189 0.00159733 0.0136887)
(0.00100492 0.000668931 0.0137108)
(0.00119638 0.000244452 0.0132558)
(0.000247723 0.000899838 0.0135921)
(0.00203265 0.00112728 0.0132608)
(0.00159763 9.48266e-05 0.0138078)
(0.00143304 0.000295896 0.013705)
(0.00116745 0.000936715 0.014009)
(0.00316121 0.000988439 0.0128972)
(0.0021145 -0.000268564 0.0142311)
(0.000306436 0.00106644 0.0147156)
(0.000642517 0.00177708 0.0133233)
(0.00046406 0.00154748 0.0135893)
(0.000748445 0.000790253 0.0143988)
(-3.51936e-05 0.00127785 0.0146797)
(0.000962099 0.00163593 0.0152354)
(0.000929358 0.00155747 0.0143499)
(0.00113324 -7.85089e-05 0.0145697)
(0.00116482 0.000972015 0.0145815)
(0.000702936 0.000989255 0.0147614)
(0.0011922 0.000960502 0.0151522)
(0.000971911 0.000310803 0.0151882)
(0.00135924 0.000596802 0.0150468)
(0.000588661 0.000483215 0.014511)
(0.000876284 4.42742e-05 0.0145917)
(-0.000520556 0.000777304 0.0159668)
(-7.53573e-05 0.00120153 0.0156052)
(0.00078942 0.00138489 0.014322)
(0.000271129 0.000967506 0.0138707)
(0.00077399 0.000925882 0.0144919)
(0.000194737 0.00185729 0.0146176)
(0.000786679 0.00101154 0.0150839)
(0.00032492 0.000684317 0.0147809)
(0.000214829 0.000720338 0.0148392)
(-0.000238872 0.000964022 0.0153284)
(0.000864286 0.000663869 0.0155169)
(0.00069479 0.000724271 0.0157622)
(0.000232452 0.000723504 0.0153521)
(0.0002044 0.000756094 0.0153283)
(0.000399718 0.000253079 0.0156443)
(0.000102459 0.000321193 0.0162342)
(-0.000302266 -0.00018242 0.0157929)
(-0.000119279 0.000519372 0.0165886)
(0.000360986 0.00045476 0.0149728)
(0.000273409 0.000541926 0.0146531)
(0.000214049 0.000800867 0.0147687)
(0.000252432 0.00109159 0.0148102)
(0.000172696 0.000428647 0.0153733)
(2.42369e-05 0.000117426 0.015674)
(0.000212548 0.000672646 0.015069)
(-0.000158185 0.000715779 0.0148338)
(0.000417757 0.000202627 0.0157186)
(0.000185161 -1.993e-05 0.0159946)
(-0.000360091 0.000288619 0.0154034)
(-0.000865084 0.000235088 0.0159843)
(0.000297177 0.000139141 0.0156953)
(0.000165696 0.000366517 0.0162118)
(-0.000103793 8.49757e-05 0.015901)
(-0.000346202 0.000472605 0.0166343)
(0.000257382 -0.000635823 0.014742)
(-0.000519328 -0.000742173 0.0147722)
(0.000182314 2.51551e-06 0.0148384)
(-0.000448921 0.00050525 0.0146878)
(-0.000154654 -0.000104 0.015461)
(-0.000229472 -0.000105426 0.0152025)
(-0.000406471 -0.000400778 0.0146148)
(-0.00030139 0.000373254 0.0148453)
(-0.000301765 0.000311153 0.0154323)
(-0.00047094 -0.000190309 0.0159628)
(-0.000704329 -0.00014927 0.0158897)
(-0.000813225 -4.86535e-05 0.0159149)
(-2.51204e-05 0.000106836 0.0157911)
(-3.56447e-05 -1.92073e-05 0.0159986)
(-0.000310623 -4.46101e-05 0.0161496)
(-0.000173878 0.000145404 0.0165012)
(-0.000480879 -0.000540791 0.014743)
(-0.000247725 -0.00105539 0.0149364)
(-0.000154123 -0.000491033 0.0142829)
(-0.00351364 -0.00112081 0.010987)
(-0.000532128 -0.000354007 0.0151642)
(-0.000549011 -0.00116833 0.0152646)
(-0.000337094 -0.00073459 0.0147974)
(-0.000203691 0.000368165 0.0149694)
(-0.000307878 0.000145602 0.0154839)
(-0.000649993 -0.000472842 0.0157878)
(-0.000668701 -0.000696009 0.0155672)
(-0.000916978 0.000119197 0.015619)
(-0.000410254 0.000266925 0.0157142)
(-0.000466639 -0.00026305 0.0160199)
(-0.000662462 -0.000242728 0.0160177)
(-0.00056325 0.00073037 0.0165976)
(0 0 0)
(0 0 0)
(0 0 0)
(0 0 0)
(0 0 0)
(0 0 0)
(0.000575112 -0.0005768 0.0146498)
(0 0 0)
(0 0 0)
(0 0 0)
(-0.0018379 -0.00134856 0.0153529)
(0 0 0)
(0 0 0)
(0.000191525 -0.000198214 0.0163401)
(-0.00235656 -0.000834147 0.0161685)
(0 0 0)
(0 0 0)
(0 0 0)
(0 0 0)
(0 0 0)
(0 0 0)
(0 0 0)
(0 0 0)
(0 0 0)
(0 0 0)
(0 0 0)
(0 0 0)
(0 0 0)
(0 0 0)
(0 0 0)
(0 0 0)
(0 0 0)
(0 0 0)
(0 0 0)
(0 0 0)
(0 0 0)
(0 0 0)
(0 0 0)
(0 0 0)
(0 0 0)
(0 0 0)
(0 0 0)
(0 0 0)
(0 0 0)
(0 0 0)
(0 0 0)
(0 0 0)
(0 0 0)
(0 0 0)
(0 0 0)
(0 0 0)
(0 0 0)
(0 0 0)
(0 0 0)
(0 0 0)
(0 0 0)
(0 0 0)
(0 0 0)
(0 0 0)
(0 0 0)
(0 0 0)
(0 0 0)
(0 0 0)
(0 0 0)
(0 0 0)
(0 0 0)
(0 0 0)
(0 0 0)
(0 0 0)
(0 0 0)
(0 0 0)
(0 0 0)
(0 0 0)
(0 0 0)
(0 0 0)
(0 0 0)
(0 0 0)
(0 0 0)
(0 0 0)
(0 0 0)
(0 0 0)
(0 0 0)
(0 0 0)
(0 0 0)
(0 0 0)
(0 0 0)
(0 0 0)
(0 0 0)
(0 0 0)
(0 0 0)
(0 0 0)
(0 0 0)
(0 0 0)
(0 0 0)
(0 0 0)
(0 0 0)
(0 0 0)
(0 0 0)
(0 0 0)
(0 0 0)
(0 0 0)
(0 0 0)
(0 0 0)
(0 0 0)
(0 0 0)
(0 0 0)
(0 0 0)
(0 0 0)
(0 0 0)
(0 0 0)
(0 0 0)
(0 0 0)
(0 0 0)
(0 0 0)
(0 0 0)
(0 0 0)
(0 0 0)
(0 0 0)
(0 0 0)
(0 0 0)
(0 0 0)
(0 0 0)
(0 0 0)
(0 0 0)
(0 0 0)
(0 0 0)
(0 0 0)
(0 0 0)
(0 0 0)
(0 0 0)
(0 0 0)
(0 0 0)
(0 0 0)
(0 0 0)
(0 0 0)
(0 0 0)
(0 0 0)
(0 0 0)
(0 0 0)
(0 0 0)
(0 0 0)
(0 0 0)
(0 0 0)
(0 0 0)
(0 0 0)
(0 0 0)
(0 0 0)
(0 0 0)
(0 0 0)
(0 0 0)
(0 0 0)
(0 0 0)
(0 0 0)
(0 0 0)
(0 0 0)
(0 0 0)
(0 0 0)
(0 0 0)
(0 0 0)
(0 0 0)
(0 0 0)
(0 0 0)
(0 0 0)
(0 0 0)
(0 0 0)
(0 0 0)
(0 0 0)
(0 0 0)
(0 0 0)
(0 0 0)
(0 0 0)
(0 0 0)
(0 0 0)
(0 0 0)
(0 0 0)
(0 0 0)
(0 0 0)
(0 0 0)
(0 0 0)
(0 0 0)
(0 0 0)
(0 0 0)
(0 0 0)
(0 0 0)
(0 0 0)
(0 0 0)
(0 0 0)
(0 0 0)
(0 0 0)
(0 0 0)
(0 0 0)
(0 0 0)
(0 0 0)
(0 0 0)
(0 0 0)
(0 0 0)
(0 0 0)
(0 0 0)
(0 0 0)
(0 0 0)
(0 0 0)
(0 0 0)
(0 0 0)
(0 0 0)
(0 0 0)
(0 0 0)
(0 0 0)
(0 0 0)
(0 0 0)
(0 0 0)
(0 0 0)
(0 0 0)
(0 0 0)
(0 0 0)
(0 0 0)
(0 0 0)
(0 0 0)
(0 0 0)
(0 0 0)
(0 0 0)
(0 0 0)
(0 0 0)
(0 0 0)
(0 0 0)
(0 0 0)
(0 0 0)
(0 0 0)
(0 0 0)
(0 0 0)
(0 0 0)
(0 0 0)
(0 0 0)
(0 0 0)
(0 0 0)
(0 0 0)
(0 0 0)
(0 0 0)
(0 0 0)
(0 0 0)
(0 0 0)
(0 0 0)
(0 0 0)
(0 0 0)
(0 0 0)
(0 0 0)
(0 0 0)
(0 0 0)
(0 0 0)
(0 0 0)
(0 0 0)
(0 0 0)
(0 0 0)
(0 0 0)
(0 0 0)
(0 0 0)
(0 0 0)
(0 0 0)
(0 0 0)
(0 0 0)
(0 0 0)
(0 0 0)
(0 0 0)
(0 0 0)
(0 0 0)
(0 0 0)
(0 0 0)
(0 0 0)
(0 0 0)
(0 0 0)
(0 0 0)
(0 0 0)
(0 0 0)
(-4.24026e-05 0.000300884 -0.000149543)
(0.000129806 0.000498416 -5.79654e-05)
(-0.000279925 -0.000106066 -3.69883e-05)
(0.000179692 0.000122177 -7.7226e-05)
(-0.000321241 0.000405454 0.000205416)
(-0.000441965 0.000247807 0.000246569)
(-0.00023867 -0.000276608 5.0148e-05)
(-0.000559181 -0.000103318 -0.000333046)
(0.000220447 0.00113571 -0.000128577)
(-6.02869e-05 -0.000179292 0.000212938)
(-0.000346631 -0.000134387 -0.000288328)
(-0.000538139 1.87006e-05 -0.000434928)
(9.62253e-05 0.000437389 -0.000181675)
(0.00041352 0.000148249 -0.000215427)
(0.000337776 1.29105e-05 -0.0001784)
(-0.000139973 -7.12459e-05 0.000128901)
(0.000308794 -1.25126e-05 0.01119)
(-0.000754455 -1.40059e-05 0.0122351)
(-0.000516372 0.000829655 0.0104659)
(0.00109752 -0.000319576 0.00886769)
(-0.00124727 -0.000439411 0.0121243)
(-0.00216531 -0.000671396 0.0130399)
(-0.00134615 0.000305737 0.0115722)
(0.000835879 -0.00106857 0.0121557)
(0.000430692 -0.000479158 0.0116013)
(-0.000825983 0.000173347 0.0123505)
(-0.000537257 0.000725752 0.0138268)
(-0.00212614 -7.80019e-05 0.0139936)
(0.000271953 -0.00176318 0.0125424)
(0.00214955 -0.000703554 0.0112439)
(0.00207538 -0.000348945 0.0114583)
(0.00119862 0.00053342 0.0128431)
(0.00170779 0.000153432 0.0127381)
(0.00119243 0.000156828 0.012323)
(0.000635356 0.000246287 0.0106762)
(-0.000118366 -0.000308753 0.012033)
(0.000710415 0.000534564 0.0144444)
(0.000178572 0.000342368 0.0121429)
(0.00037653 0.000636344 0.0127809)
(0.000708246 -0.000688572 0.0109552)
(0.00109388 -8.27395e-06 0.0136075)
(-0.000613029 0.00109146 0.0136494)
(-6.36503e-05 0.00105401 0.0139882)
(5.82817e-05 0.000767484 0.01317)
(0.000289928 0.00139586 0.0128789)
(0.000737986 0.000474103 0.0132503)
(0.000348471 0.00172273 0.0144336)
(-0.000655297 0.0011997 0.0139138)
(0.000703341 1.01805e-05 0.0110679)
(0.000569189 0.000434833 0.0119577)
(-0.000289109 0.000238134 0.0119422)
(0.000301347 0.0011797 0.0160797)
(0.000520158 0.00139184 0.0130548)
(0.000111742 0.00148453 0.013201)
(0.000224118 3.614e-05 0.0125651)
(0.000522284 0.00056611 0.0113619)
(0.000769497 0.00144632 0.0135115)
(0.000653891 0.00090937 0.0133334)
(0.000695175 -0.00036499 0.0134642)
(0.0015493 0.000576093 0.013231)
(0.000345622 0.00124352 0.013474)
(0.000336175 0.00115492 0.0133964)
(0.000498113 0.000561973 0.0137773)
(-0.000168501 0.00121178 0.0133498)
(-0.000322562 0.000145701 0.00986222)
(-0.00121154 -0.000427731 0.0114833)
(0.000540958 0.000203727 0.0114047)
(0.00103646 7.26303e-05 0.0113945)
(0.00022728 0.000967671 0.0123528)
(0.000567195 0.000391532 0.0124562)
(-7.03676e-05 0.0006216 0.0121943)
(0.000158131 -3.61887e-05 0.0106829)
(0.000486611 0.00110818 0.0140878)
(0.000371139 0.000895404 0.013338)
(-0.000209976 0.000902348 0.0130504)
(0.000107512 0.000606357 0.0120937)
(0.000274365 0.00117252 0.0139302)
(0.00062254 0.000721985 0.0138089)
(-0.000341319 0.000966643 0.0140919)
(-0.000307325 0.000773576 0.012786)
(0.0011682 0.000597036 0.00983773)
(-0.000210955 0.000676524 0.010342)
(-0.000287251 -0.000153287 0.00999741)
(-0.000941453 -0.000873787 0.00939313)
(-3.6498e-06 -0.000820401 0.0129922)
(0.000820178 0.000788129 0.013439)
(0.000311703 0.000544541 0.0116027)
(-0.00138402 -0.000853258 0.011137)
(0.000970874 0.000112039 0.0140369)
(0.000371514 0.000917805 0.0142774)
(3.37307e-05 0.000344255 0.0134279)
(-0.000290507 0.000519789 0.0120225)
(-0.000262371 -0.000395884 0.0145951)
(-1.69853e-05 -0.00020535 0.0142428)
(-0.000373808 0.000445225 0.0139893)
(-0.000481447 0.000710774 0.0133379)
(0.000414199 0.000590962 0.0106074)
(-0.000465503 -0.00060953 0.00969305)
(0.000989946 -0.00107825 0.0113262)
(0.00159767 -0.000395888 0.00867908)
(0.00092536 0.00145948 0.0133575)
(0.00168239 0.000492487 0.0129097)
(5.30029e-05 -0.00146444 0.0121629)
(5.57302e-05 0.000883439 0.0124444)
(0.00143201 -0.00164222 0.0137443)
(0.00103558 -0.000775666 0.0132451)
(0.000211138 -0.000871394 0.0131241)
(0.00103757 0.000317915 0.0125898)
(0.000213117 -0.000802033 0.0146292)
(-0.000963154 -0.00243487 0.0121311)
(1.8705e-05 4.73997e-05 0.0138634)
(0.000398797 0.000723042 0.0130803)
(0 0 0)
(0 0 0)
(0 0 0)
(0 0 0)
(0 0 0)
(0 0 0)
(0 0 0)
(0 0 0)
(0 0 0)
(0 0 0)
(0 0 0)
(0 0 0)
(0 0 0)
(0 0 0)
(0 0 0)
(0 0 0)
(0 0 0)
(0 0 0)
(0 0 0)
(0 0 0)
(0 0 0)
(0 0 0)
(0 0 0)
(0 0 0)
(0 0 0)
(0 0 0)
(0 0 0)
(0 0 0)
(0 0 0)
(0 0 0)
(0 0 0)
(0 0 0)
(0 0 0)
(0 0 0)
(0 0 0)
(0 0 0)
(0 0 0)
(0 0 0)
(0 0 0)
(0 0 0)
(0 0 0)
(0 0 0)
(0 0 0)
(0 0 0)
(0 0 0)
(0 0 0)
(0 0 0)
(0 0 0)
(0 0 0)
(0 0 0)
(0 0 0)
(0 0 0)
(0 0 0)
(0 0 0)
(0 0 0)
(0 0 0)
(0 0 0)
(0 0 0)
(0 0 0)
(0 0 0)
(0 0 0)
(0 0 0)
(0 0 0)
(0 0 0)
(0 0 0)
(0 0 0)
(0 0 0)
(0 0 0)
(0 0 0)
(0 0 0)
(0 0 0)
(0 0 0)
(0 0 0)
(0 0 0)
(0 0 0)
(0 0 0)
(0 0 0)
(0 0 0)
(0 0 0)
(0 0 0)
(0 0 0)
(0 0 0)
(0 0 0)
(0 0 0)
(0 0 0)
(0 0 0)
(0 0 0)
(0 0 0)
(0 0 0)
(0 0 0)
(0 0 0)
(0 0 0)
(0 0 0)
(0 0 0)
(0 0 0)
(0 0 0)
(0 0 0)
(0 0 0)
(0 0 0)
(0 0 0)
(0 0 0)
(0 0 0)
(0 0 0)
(0 0 0)
(0 0 0)
(0 0 0)
(0 0 0)
(0 0 0)
(0 0 0)
(0 0 0)
(0 0 0)
(0 0 0)
(0 0 0)
(0 0 0)
(0 0 0)
(0 0 0)
(0 0 0)
(0 0 0)
(0 0 0)
(0 0 0)
(0 0 0)
(0 0 0)
(0 0 0)
(0 0 0)
(0 0 0)
(0 0 0)
(0 0 0)
(0 0 0)
(0 0 0)
(0 0 0)
(0 0 0)
(0 0 0)
(0 0 0)
(0 0 0)
(0 0 0)
(0 0 0)
(0 0 0)
(0 0 0)
(0 0 0)
(0 0 0)
(0 0 0)
(0 0 0)
(0 0 0)
(0 0 0)
(0 0 0)
(0 0 0)
(0 0 0)
(0 0 0)
(0 0 0)
(0 0 0)
(0 0 0)
(0 0 0)
(0 0 0)
(0 0 0)
(0 0 0)
(0 0 0)
(0 0 0)
(0 0 0)
(0 0 0)
(0 0 0)
(0 0 0)
(0 0 0)
(0 0 0)
(0 0 0)
(0 0 0)
(0 0 0)
(0 0 0)
(0 0 0)
(0 0 0)
(0 0 0)
(0 0 0)
(0 0 0)
(0 0 0)
(0 0 0)
(0 0 0)
(0 0 0)
(0 0 0)
(0 0 0)
(0 0 0)
(0 0 0)
(0 0 0)
(0 0 0)
(0 0 0)
(0 0 0)
(0 0 0)
(0 0 0)
(0 0 0)
(0 0 0)
(0 0 0)
(0 0 0)
(0 0 0)
(0 0 0)
(0 0 0)
(0 0 0)
(0 0 0)
(0 0 0)
(0 0 0)
(0 0 0)
(0 0 0)
(0 0 0)
(0 0 0)
(0 0 0)
(0 0 0)
(0 0 0)
(0 0 0)
(0 0 0)
(0 0 0)
(0 0 0)
(0 0 0)
(0 0 0)
(0 0 0)
(0 0 0)
(0 0 0)
(0 0 0)
(0 0 0)
(0 0 0)
(0 0 0)
(0 0 0)
(0 0 0)
(0 0 0)
(0 0 0)
(0 0 0)
(0 0 0)
(0 0 0)
(0 0 0)
(0 0 0)
(0 0 0)
(0 0 0)
(0 0 0)
(0 0 0)
(0 0 0)
(0 0 0)
(0 0 0)
(0 0 0)
(0 0 0)
(0 0 0)
(0 0 0)
(0 0 0)
(0 0 0)
(0 0 0)
(0 0 0)
(0 0 0)
(0 0 0)
(0 0 0)
(0 0 0)
(0 0 0)
(0 0 0)
(0 0 0)
(0 0 0)
(0 0 0)
(0 0 0)
(0 0 0)
(0 0 0)
(0 0 0)
(0 0 0)
(0 0 0)
(0 0 0)
(0 0 0)
(0 0 0)
(0 0 0)
(0 0 0)
(0 0 0)
(0 0 0)
(0 0 0)
(0 0 0)
(0 0 0)
(0 0 0)
(0 0 0)
(0 0 0)
(0 0 0)
(0 0 0)
(0 0 0)
(-0.000235848 0.000438731 -8.0453e-05)
(-0.000636288 -0.000342361 -0.000145362)
(-0.000165939 -0.000168506 -0.000180023)
(-8.9606e-05 -0.00017288 -0.000146893)
(0.000155283 0.000467028 0.000363369)
(-0.000377113 0.000200061 -4.83208e-05)
(-1.82398e-05 -7.1025e-06 0.000664115)
(1.21417e-05 -6.64375e-05 0.000238519)
(-0.000508489 -0.000376628 3.79674e-05)
(-0.000362624 0.000413536 -3.98678e-05)
(-7.69709e-05 4.19743e-06 0.000326646)
(-3.21718e-05 3.19918e-06 -3.53522e-05)
(0.000248988 -0.000287535 -0.000556151)
(-0.000599784 -0.000355145 9.00898e-05)
(1.11255e-06 -7.48575e-05 7.90398e-05)
(-8.25867e-05 0.000301241 0.000496527)
(0.000821182 0.000228237 0.01326)
(-0.000110299 -0.000262015 0.0118713)
(-0.000127661 -0.000177351 0.0098912)
(-0.000254685 -0.00177003 0.011768)
(0.0010837 0.000880708 0.0135182)
(0.000557907 0.000811752 0.0119619)
(-0.00045402 0.000585418 0.0121274)
(-0.00198232 -0.00272789 0.0123934)
(0.000677059 0.00133105 0.0137414)
(0.000524686 0.00124617 0.0130478)
(-0.000715745 0.000564127 0.0118695)
(-0.0010099 -0.000646126 0.0108654)
(0.00119505 0.00084125 0.0127868)
(-0.000294023 0.00101793 0.0126372)
(-0.00121869 0.00247248 0.0113429)
(-0.00120996 0.00427098 0.0116071)
(-0.000207847 0.00135208 0.0136792)
(-0.000112823 0.00154151 0.0122038)
(-2.68453e-05 0.000560933 0.0125286)
(0.00131272 0.000456384 0.0129174)
(0.00105932 0.00265913 0.015054)
(0.0011659 0.000988257 0.0141581)
(0.000538254 9.43631e-05 0.0137114)
(-0.000112141 0.00101092 0.0105866)
(0.00126338 0.00144868 0.014704)
(0.00159668 0.000144479 0.0141463)
(0.00168335 -1.60705e-05 0.0131725)
(0.000443467 0.000434706 0.0110062)
(-9.65509e-05 0.000564549 0.0155815)
(0.00101127 0.000637002 0.0141215)
(0.000711439 0.000131314 0.0128342)
(0.00041552 0.00129677 0.0110788)
(-0.000351196 0.00209965 0.0135653)
(-0.00014484 0.00150657 0.0134261)
(0.000283615 0.000645036 0.0122012)
(0.000446953 0.000602717 0.0121809)
(0.000786421 0.00184689 0.0139594)
(0.000923361 0.00128139 0.014009)
(0.000773454 0.00054409 0.0138275)
(0.00125899 0.00247431 0.0121003)
(0.000571195 0.00122012 0.0154652)
(0.00045855 0.00082833 0.014697)
(0.00072439 0.000321612 0.015492)
(0.000920428 0.000767723 0.0141117)
(0.000263756 0.0014521 0.0161886)
(-5.47031e-05 0.00137705 0.0142807)
(-0.000685824 -0.000347158 0.0139886)
(-0.000692717 0.0010248 0.0114664)
(-3.92066e-05 0.000885076 0.013343)
(-0.000325409 0.000536327 0.0116519)
(-7.09393e-05 0.00155056 0.0116364)
(0.000181786 0.000656838 0.0120181)
(-0.000114283 0.00104893 0.0141657)
(-0.000939848 0.00162615 0.0134461)
(0.000360457 0.00196925 0.011713)
(0.000757248 0.00218644 0.0122009)
(-0.000850102 0.000984246 0.0152687)
(-0.000604749 0.00164359 0.0139462)
(-0.000751783 0.00233597 0.0136404)
(-3.89063e-05 0.00137708 0.0126893)
(0.000175097 0.00100961 0.016293)
(-0.00129379 0.000869251 0.0143421)
(-0.000104042 0.00101263 0.0144916)
(-6.7328e-05 0.0033729 0.0117188)
(-0.000969695 0.000455398 0.0135778)
(-0.000715811 0.000521164 0.0116381)
(-0.00203546 0.000182899 0.0100228)
(8.18822e-05 0.000545191 0.00969447)
(-0.000621039 0.000890287 0.0147341)
(-0.00196656 0.00063592 0.013959)
(-0.00180229 0.00121568 0.010891)
(0.000175738 -3.96814e-05 0.0100962)
(-0.000911734 0.00114732 0.0151359)
(-0.00147674 0.000514942 0.0138526)
(-0.00125935 0.00073475 0.0124919)
(0.000946868 0.000833346 0.010002)
(-0.000578165 -0.000142008 0.0159019)
(-0.00120796 0.000251943 0.0146581)
(-0.00068131 0.000760577 0.0132128)
(2.89551e-05 0.00141022 0.0100777)
(-0.00126887 0.000407174 0.0134001)
(0.000410595 -0.00240101 0.0119146)
(0.000477941 -0.000216849 0.0100146)
(0.00108067 0.0011407 0.00660459)
(-0.00104998 0.000826906 0.0138704)
(-0.00333843 -0.000385111 0.0130161)
(-0.0017379 0.00029074 0.0102984)
(-0.000572334 -0.000158352 0.00766123)
(-0.000442698 0.000851694 0.0153683)
(0.000788103 0.00141561 0.0139492)
(0.000460183 0.000252523 0.0120314)
(0.000751707 0.000613372 0.00929362)
(0.000412922 0.000168302 0.0158126)
(0.00113308 -0.00288342 0.0131369)
(-0.000209999 -0.000575953 0.0124409)
(-0.000281747 -0.000262992 0.00895317)
(0 0 0)
(0 0 0)
(0 0 0)
(0 0 0)
(0 0 0)
(0 0 0)
(0 0 0)
(0 0 0)
(0 0 0)
(0 0 0)
(0 0 0)
(0.00124923 0.00296325 0.00769123)
(0 0 0)
(0 0 0)
(0 0 0)
(0 0 0)
(0 0 0)
(0 0 0)
(0 0 0)
(0 0 0)
(0 0 0)
(0 0 0)
(0 0 0)
(0 0 0)
(0 0 0)
(0 0 0)
(0 0 0)
(0 0 0)
(0 0 0)
(0 0 0)
(0 0 0)
(0 0 0)
(0 0 0)
(0 0 0)
(0 0 0)
(0 0 0)
(0 0 0)
(0 0 0)
(0 0 0)
(0 0 0)
(0 0 0)
(0 0 0)
(0 0 0)
(0 0 0)
(0 0 0)
(0 0 0)
(0 0 0)
(0 0 0)
(0 0 0)
(0 0 0)
(0 0 0)
(0 0 0)
(0 0 0)
(0 0 0)
(0 0 0)
(0 0 0)
(0 0 0)
(0 0 0)
(0 0 0)
(0 0 0)
(0 0 0)
(0 0 0)
(0 0 0)
(0 0 0)
(0 0 0)
(0 0 0)
(0 0 0)
(0 0 0)
(0 0 0)
(0 0 0)
(0 0 0)
(0 0 0)
(0 0 0)
(0 0 0)
(0 0 0)
(0 0 0)
(0 0 0)
(0 0 0)
(0 0 0)
(0 0 0)
(0 0 0)
(0 0 0)
(0 0 0)
(0 0 0)
(0 0 0)
(0 0 0)
(0 0 0)
(0 0 0)
(0 0 0)
(0 0 0)
(0 0 0)
(0 0 0)
(0 0 0)
(0 0 0)
(0 0 0)
(0 0 0)
(0 0 0)
(0 0 0)
(0 0 0)
(0 0 0)
(0 0 0)
(0 0 0)
(0 0 0)
(0 0 0)
(0 0 0)
(0 0 0)
(0 0 0)
(0 0 0)
(0 0 0)
(0 0 0)
(0 0 0)
(0 0 0)
(0 0 0)
(0 0 0)
(0 0 0)
(0 0 0)
(0 0 0)
(0 0 0)
(0 0 0)
(0 0 0)
(0 0 0)
(0 0 0)
(0 0 0)
(0 0 0)
(0 0 0)
(0 0 0)
(0 0 0)
(0 0 0)
(0 0 0)
(0 0 0)
(0 0 0)
(0 0 0)
(0 0 0)
(0 0 0)
(0 0 0)
(0 0 0)
(0 0 0)
(0 0 0)
(0 0 0)
(0 0 0)
(0 0 0)
(0 0 0)
(0 0 0)
(0 0 0)
(0 0 0)
(0 0 0)
(0 0 0)
(0 0 0)
(0 0 0)
(0 0 0)
(0 0 0)
(0 0 0)
(0 0 0)
(0 0 0)
(0 0 0)
(0 0 0)
(0 0 0)
(0 0 0)
(0 0 0)
(0 0 0)
(0 0 0)
(0 0 0)
(0 0 0)
(0 0 0)
(0 0 0)
(0 0 0)
(0 0 0)
(0 0 0)
(0 0 0)
(0 0 0)
(0 0 0)
(0 0 0)
(0 0 0)
(0 0 0)
(0 0 0)
(0 0 0)
(0 0 0)
(0 0 0)
(0 0 0)
(0 0 0)
(0 0 0)
(0 0 0)
(0 0 0)
(0 0 0)
(0 0 0)
(0 0 0)
(0 0 0)
(0 0 0)
(0 0 0)
(0 0 0)
(0 0 0)
(0 0 0)
(0 0 0)
(0 0 0)
(0 0 0)
(0 0 0)
(0 0 0)
(0 0 0)
(0 0 0)
(0 0 0)
(0 0 0)
(0 0 0)
(0 0 0)
(0 0 0)
(0 0 0)
(0 0 0)
(0 0 0)
(0 0 0)
(0 0 0)
(0 0 0)
(0 0 0)
(0 0 0)
(0 0 0)
(0 0 0)
(0 0 0)
(0 0 0)
(0 0 0)
(0 0 0)
(0 0 0)
(0 0 0)
(0 0 0)
(0 0 0)
(0 0 0)
(0 0 0)
(0 0 0)
(0 0 0)
(0 0 0)
(0 0 0)
(0 0 0)
(0 0 0)
(0 0 0)
(0 0 0)
(0 0 0)
(0 0 0)
(0 0 0)
(0 0 0)
(0 0 0)
(0 0 0)
(0 0 0)
(0 0 0)
(0 0 0)
(0 0 0)
(0 0 0)
(0 0 0)
(0 0 0)
(0 0 0)
(0 0 0)
(0 0 0)
(0 0 0)
(0 0 0)
(0 0 0)
(0 0 0)
(0 0 0)
(0 0 0)
(0 0 0)
(0 0 0)
(0 0 0)
(0 0 0)
(0 0 0)
(0 0 0)
(0 0 0)
(0 0 0)
(0 0 0)
(0 0 0)
(0 0 0)
(0 0 0)
(0 0 0)
(0 0 0)
(0 0 0)
(0 0 0)
(0 0 0)
(0 0 0)
)
;

boundaryField
{
    inlet
    {
        type            zeroGradient;
    }
    outlet
    {
        type            zeroGradient;
    }
    wall
    {
        type            zeroGradient;
    }
    procBoundary1to0
    {
        type            processor;
        value           nonuniform List<vector> 
192
(
(-8.32064e-05 -4.23364e-05 -4.03937e-05)
(-8.41553e-05 4.11329e-05 1.22336e-05)
(0.000140321 7.79437e-06 0.000186701)
(2.32658e-05 -4.03107e-05 -9.57479e-06)
(-0.00203409 -0.000123042 0.0133834)
(0.000315526 0.00126626 0.013332)
(0.000302567 -9.4696e-05 0.0117567)
(0.000823733 1.62415e-05 0.0135129)
(0.000764308 0.00183248 0.0139405)
(0.00100304 0.00157088 0.0148516)
(0.00100566 0.000571342 0.0151266)
(0.000517881 0.000392621 0.0152843)
(0.000965099 0.00125078 0.0144895)
(0.000953031 0.000852313 0.0147691)
(0.000796042 0.000406583 0.0153348)
(0.000543253 -1.13814e-05 0.0156574)
(0.000598686 0.000622473 0.0147674)
(0.000519632 0.000497723 0.0152264)
(0.000582207 0.000228844 0.0155337)
(2.25891e-05 6.9258e-05 0.0159167)
(-0.000248654 -0.000492315 0.0151529)
(6.86522e-05 3.46264e-05 0.0152371)
(-2.01312e-05 0.000251474 0.0156273)
(7.02607e-05 2.06016e-05 0.0157085)
(0.000501474 -0.000680294 0.0143827)
(-8.2472e-05 -0.000190523 0.0144437)
(-0.00017076 0.000190738 0.0154946)
(-0.000218192 0.000335266 0.0154905)
(0 0 0)
(0 0 0)
(0 0 0)
(0 0 0)
(0 0 0)
(0 0 0)
(0 0 0)
(0 0 0)
(0 0 0)
(0 0 0)
(0 0 0)
(0 0 0)
(0 0 0)
(0 0 0)
(0 0 0)
(0 0 0)
(0 0 0)
(0 0 0)
(0 0 0)
(0 0 0)
(0 0 0)
(0 0 0)
(0 0 0)
(0 0 0)
(0 0 0)
(0 0 0)
(0 0 0)
(0 0 0)
(0 0 0)
(0 0 0)
(0 0 0)
(0 0 0)
(0 0 0)
(0 0 0)
(0 0 0)
(0 0 0)
(0 0 0)
(0 0 0)
(0 0 0)
(0 0 0)
(0 0 0)
(0 0 0)
(0 0 0)
(0 0 0)
(0 0 0)
(0 0 0)
(0 0 0)
(0 0 0)
(0 0 0)
(0 0 0)
(0 0 0)
(0 0 0)
(0 0 0)
(0 0 0)
(0 0 0)
(0 0 0)
(0 0 0)
(0 0 0)
(0 0 0)
(0 0 0)
(0 0 0)
(0 0 0)
(0 0 0)
(0 0 0)
(0 0 0)
(0 0 0)
(0 0 0)
(0 0 0)
(-0.000578334 -0.000393871 -6.95201e-05)
(2.03056e-05 -9.92047e-05 -6.95257e-06)
(5.09649e-06 -0.000195767 -8.43989e-05)
(0.000192909 -0.00011475 -1.4705e-05)
(0.000923521 0.000357133 0.0124403)
(0.00190376 0.000868718 0.0128809)
(0.000257313 0.00110642 0.0126486)
(-8.78473e-05 0.000966221 0.012177)
(0.00185738 0.00106941 0.0147083)
(0.000824143 0.00198266 0.0140636)
(0.00112511 0.00142432 0.0137381)
(0.000799763 0.00174025 0.0135717)
(-0.000972395 1.50096e-05 0.0121624)
(-0.000648009 0.00160997 0.0121985)
(0.00037072 0.00140873 0.0135005)
(0.000479795 0.00145048 0.013773)
(-0.000496674 0.00067665 0.00995791)
(8.3318e-05 0.000676609 0.0116383)
(0.000752771 0.000676186 0.0130692)
(0.000392624 0.000939463 0.0141195)
(-0.00070535 -1.30411e-06 0.00876771)
(0.00103377 -0.000697358 0.0118083)
(0.00161957 -0.000969633 0.0129434)
(0.000320154 -0.00032411 0.0142376)
(0.000482733 -0.00140067 0.00820056)
(0.00203877 -0.0031289 0.0109183)
(0.000160362 -0.00191839 0.0120956)
(0.000426444 -0.000718613 0.0135947)
(0 0 0)
(0 0 0)
(0 0 0)
(0 0 0)
(0 0 0)
(0 0 0)
(0 0 0)
(0 0 0)
(0 0 0)
(0 0 0)
(0 0 0)
(0 0 0)
(0 0 0)
(0 0 0)
(0 0 0)
(0 0 0)
(0 0 0)
(0 0 0)
(0 0 0)
(0 0 0)
(0 0 0)
(0 0 0)
(0 0 0)
(0 0 0)
(0 0 0)
(0 0 0)
(0 0 0)
(0 0 0)
(0 0 0)
(0 0 0)
(0 0 0)
(0 0 0)
(0 0 0)
(0 0 0)
(0 0 0)
(0 0 0)
(0 0 0)
(0 0 0)
(0 0 0)
(0 0 0)
(0 0 0)
(0 0 0)
(0 0 0)
(0 0 0)
(0 0 0)
(0 0 0)
(0 0 0)
(0 0 0)
(0 0 0)
(0 0 0)
(0 0 0)
(0 0 0)
(0 0 0)
(0 0 0)
(0 0 0)
(0 0 0)
(0 0 0)
(0 0 0)
(0 0 0)
(0 0 0)
(0 0 0)
(0 0 0)
(0 0 0)
(0 0 0)
(0 0 0)
(0 0 0)
(0 0 0)
(0 0 0)
)
;
    }
    procBoundary1to3
    {
        type            processor;
        value           nonuniform List<vector> 
192
(
(-5.65425e-05 0.00026342 -1.33182e-05)
(-0.000248248 0.000359114 5.76565e-05)
(-0.000770961 0.00130172 -7.54581e-06)
(-0.00116598 -0.00029555 -0.000306191)
(0.000444431 -0.000352365 0.0133326)
(0.00137093 0.00016156 0.0133213)
(0.0033705 -0.000916291 0.0112369)
(0.00187406 -0.000832416 0.0118725)
(0.000125406 -0.000801259 0.0152628)
(0.000445758 -0.000743273 0.0155714)
(0.00149731 -0.000407822 0.0156339)
(0.000596876 2.82912e-05 0.0153842)
(0.000226033 -0.000146996 0.0155633)
(0.000165166 -7.01317e-06 0.0157914)
(-0.000341351 -0.000140826 0.0155488)
(-0.000849615 0.000383016 0.0148386)
(0.00010193 -2.50548e-05 0.0156491)
(7.66549e-05 0.000146725 0.0160118)
(1.94909e-05 0.000137677 0.0161546)
(-0.000280559 0.000144927 0.0160243)
(-1.8188e-05 0.000263499 0.0156959)
(-0.000186789 3.23467e-05 0.0162927)
(-7.54939e-05 0.000102927 0.016534)
(-8.75316e-05 0.000509732 0.0163536)
(-0.000383904 0.000269634 0.0156699)
(-0.000482483 -5.56086e-05 0.0158714)
(-0.000561258 4.76841e-05 0.0164296)
(-0.000385211 0.00108228 0.0155907)
(0 0 0)
(0 0 0)
(0 0 0)
(0 0 0)
(0 0 0)
(0 0 0)
(0 0 0)
(0 0 0)
(0 0 0)
(0 0 0)
(0 0 0)
(0 0 0)
(0 0 0)
(0 0 0)
(0 0 0)
(0 0 0)
(0 0 0)
(0 0 0)
(0 0 0)
(0 0 0)
(0 0 0)
(0 0 0)
(0 0 0)
(0 0 0)
(0 0 0)
(0 0 0)
(0 0 0)
(0 0 0)
(0 0 0)
(0 0 0)
(0 0 0)
(0 0 0)
(0 0 0)
(0 0 0)
(0 0 0)
(0 0 0)
(0 0 0)
(0 0 0)
(0 0 0)
(0 0 0)
(0 0 0)
(0 0 0)
(0 0 0)
(0 0 0)
(0 0 0)
(0 0 0)
(0 0 0)
(0 0 0)
(0 0 0)
(0 0 0)
(0 0 0)
(0 0 0)
(0 0 0)
(0 0 0)
(0 0 0)
(0 0 0)
(0 0 0)
(0 0 0)
(0 0 0)
(0 0 0)
(0 0 0)
(0 0 0)
(0 0 0)
(0 0 0)
(0 0 0)
(0 0 0)
(0 0 0)
(0 0 0)
(-0.000332997 -0.000259814 -0.000219076)
(-5.6828e-05 -0.000376177 -0.000244133)
(-0.000265388 -0.000217648 0.000239449)
(-0.000268813 -2.56221e-05 -0.000133143)
(0.000963232 -9.65674e-05 0.0127377)
(0.000145158 0.00135181 0.0115856)
(0.000150644 0.00310205 0.0125224)
(-0.00030856 0.00282754 0.0111978)
(0.000374499 0.000762495 0.0140707)
(0.000229832 0.00100632 0.0145673)
(-0.000417564 0.00141591 0.014289)
(-0.000658235 0.00221977 0.0116075)
(-0.00141383 0.00020856 0.0147028)
(-0.000500514 0.00033159 0.0153245)
(-0.00170795 -0.00140979 0.0168736)
(-0.000503435 -0.000231323 0.0121111)
(-0.00109119 -2.73694e-05 0.0151729)
(-0.00130499 -0.000169162 0.0149568)
(-0.000524857 -0.000569736 0.01454)
(-0.00023725 -0.00106868 0.0148145)
(-0.000386436 0.000374996 0.0162427)
(-0.000990459 0.000998175 0.01477)
(-0.00104403 0.000952681 0.0139292)
(-0.000549449 0.00166896 0.0120974)
(-0.000148448 0.000699802 0.0157538)
(0.000735453 0.00150454 0.0149759)
(0.00101297 0.00119935 0.0136963)
(4.22726e-05 0.00123215 0.0134665)
(0 0 0)
(0 0 0)
(0 0 0)
(0 0 0)
(0 0 0)
(0 0 0)
(0 0 0)
(0 0 0)
(0 0 0)
(0 0 0)
(0 0 0)
(0 0 0)
(0 0 0)
(0 0 0)
(0 0 0)
(0 0 0)
(0 0 0)
(0 0 0)
(0 0 0)
(0 0 0)
(0 0 0)
(0 0 0)
(0 0 0)
(0 0 0)
(0 0 0)
(0 0 0)
(0 0 0)
(0 0 0)
(0 0 0)
(0 0 0)
(0 0 0)
(0 0 0)
(0 0 0)
(0 0 0)
(0 0 0)
(0 0 0)
(0 0 0)
(0 0 0)
(0 0 0)
(0 0 0)
(0 0 0)
(0 0 0)
(0 0 0)
(0 0 0)
(0 0 0)
(0 0 0)
(0 0 0)
(0 0 0)
(0 0 0)
(0 0 0)
(0 0 0)
(0 0 0)
(0 0 0)
(0 0 0)
(0 0 0)
(0 0 0)
(0 0 0)
(0 0 0)
(0 0 0)
(0 0 0)
(0 0 0)
(0 0 0)
(0 0 0)
(0 0 0)
(0 0 0)
(0 0 0)
(0 0 0)
(0 0 0)
)
;
    }
}


// ************************************************************************* //
