/*--------------------------------*- C++ -*----------------------------------*\
| =========                 |                                                 |
| \\      /  F ield         | OpenFOAM: The Open Source CFD Toolbox           |
|  \\    /   O peration     | Version:  2506                                  |
|   \\  /    A nd           | Website:  www.openfoam.com                      |
|    \\/     M anipulation  |                                                 |
\*---------------------------------------------------------------------------*/
FoamFile
{
    version     2.0;
    format      ascii;
    arch        "LSB;label=32;scalar=64";
    class       volScalarField;
    location    "0.08";
    object      Ksl;
}
// * * * * * * * * * * * * * * * * * * * * * * * * * * * * * * * * * * * * * //

dimensions      [1 -3 -1 0 0 0 0];

internalField   nonuniform List<scalar> 
1152
(
141032
108691
187396
184050
111539
208045
143899
220147
166730
143363
247580
127910
138683
221205
261175
296564
432457
133220
249645
200936
242147
193798
203773
220302
218127
269594
175530
209986
249656
294296
141328
146306
210841
196489
207457
236674
211966
187309
257240
259378
298542
219637
274761
224570
203036
346591
213661
282956
290538
281085
364557
239724
263775
183666
213231
209145
263516
251566
311421
262064
207447
179951
176027
319211
244699
280037
205033
224269
408507
277920
228334
225129
160199
247632
199954
241360
348266
140538
351897
142814
206263
244308
259407
257031
189386
316468
227633
245103
277610
148530
254876
293708
323959
234139
314773
174188
55966.4
66069.1
96787.1
57360.3
146289
167737
128134
65031.7
109249
85549.1
178668
102644
239575
99236
164313
47694.1
0
0
0
0
0
0
0
0
0
0
571.185
0
0
36384.2
520.998
0
0
0
0
0
0
0
0
0
0
0
0
0
0
0
0
0
0
0
0
0
0
0
0
0
0
0
0
0
0
0
0
0
0
0
0
0
0
0
0
0
0
0
0
0
0
0
0
0
0
0
0
0
0
0
0
0
0
0
0
0
0
0
0
0
0
0
0
0
0
0
0
0
0
0
0
0
0
0
0
0
0
0
0
0
0
0
0
0
0
0
0
0
0
0
0
0
0
0
0
0
0
0
0
0
0
0
0
0
0
0
0
0
0
0
0
0
0
0
0
0
0
0
0
0
0
0
0
0
0
0
0
0
0
0
0
0
0
0
0
0
0
0
0
0
0
0
0
0
0
0
0
0
0
0
0
0
0
0
0
0
0
0
0
0
0
0
0
0
0
0
0
0
0
0
0
0
0
0
0
0
0
0
0
0
0
0
0
0
0
0
0
0
0
0
0
0
0
0
0
0
0
0
0
0
0
0
0
0
0
0
0
0
0
0
0
0
0
0
0
0
0
0
0
0
0
0
0
0
0
0
0
0
0
0
0
0
0
0
0
0
0
0
0
0
0
0
0
0
0
0
0
0
0
0
0
0
169691
206983
144586
207663
297844
246321
183340
178817
157602
167213
180528
154491
125959
189299
165346
278462
158006
181603
137760
180371
209866
154794
223165
216389
171454
205129
156518
91959.6
205781
199014
251455
246824
197772
240415
204079
168093
176938
184822
317732
268927
217146
172753
174910
290785
331510
344285
210991
251288
197422
209250
216560
130703
301646
264212
228157
275036
219483
176709
297263
208004
299607
199449
228026
202583
208935
235325
159254
223402
200836
305661
168608
241408
132853
158090
191864
384688
232732
238349
368354
263388
208014
163941
260939
195316
178017
311001
237506
209674
248211
331598
283745
277678
159627
193905
200528
199434
63496.9
60250.7
49340.1
119229
55783
65108.2
89290.5
88392
55722.5
27743.1
39487.8
80790.7
41667.7
118289
31871.8
41300.4
0
0
0
0
0
0
0
0
0
0
0
0
0
0
0
0
0
0
0
0
0
0
0
0
0
0
0
0
0
0
0
0
0
0
0
0
0
0
0
0
0
0
0
0
0
0
0
0
0
0
0
0
0
0
0
0
0
0
0
0
0
0
0
0
0
0
0
0
0
0
0
0
0
0
0
0
0
0
0
0
0
0
0
0
0
0
0
0
0
0
0
0
0
0
0
0
0
0
0
0
0
0
0
0
0
0
0
0
0
0
0
0
0
0
0
0
0
0
0
0
0
0
0
0
0
0
0
0
0
0
0
0
0
0
0
0
0
0
0
0
0
0
0
0
0
0
0
0
0
0
0
0
0
0
0
0
0
0
0
0
0
0
0
0
0
0
0
0
0
0
0
0
0
0
0
0
0
0
0
0
0
0
0
0
0
0
0
0
0
0
0
0
0
0
0
0
0
0
0
0
0
0
0
0
0
0
0
0
0
0
0
0
0
0
0
0
0
0
0
0
0
0
0
0
0
0
0
0
0
0
0
0
0
0
0
0
0
0
0
0
0
0
0
0
0
0
0
0
0
0
0
0
0
0
0
0
0
0
0
0
0
0
0
0
0
0
0
0
0
0
0
0
175055
220553
160902
216594
167292
208380
221044
151044
234124
171320
164331
132228
141287
316451
118098
145838
133296
117770
238862
87995.2
139694
287619
249286
155349
209335
217647
263718
249914
155569
135058
221356
149169
270464
252370
344860
220785
231616
232420
189549
235422
184976
199617
220001
224722
214995
188206
211846
290204
269346
289543
306327
191011
242247
260513
183890
168560
229348
238110
242411
175177
208456
367660
158186
296494
199190
417539
218990
164756
246401
240749
190707
308527
335487
221211
204190
208395
189892
196414
192640
248952
192647
380070
228594
168362
89838.5
229119
165458
187545
205161
280090
238477
188149
319260
314216
342099
296565
77477.9
96390.2
94810.3
78740.1
47707.9
57665.6
100547
136312
28581.8
47936.5
33225.6
170781
98692
30159.1
74347
63604.2
0
0
0
0
0
0
0
0
0
0
0
17490.1
0
0
0
0
0
0
0
0
0
0
0
0
0
0
0
0
0
0
0
0
0
0
0
0
0
0
0
0
0
0
0
0
0
0
0
0
0
0
0
0
0
0
0
0
0
0
0
0
0
0
0
0
0
0
0
0
0
0
0
0
0
0
0
0
0
0
0
0
0
0
0
0
0
0
0
0
0
0
0
0
0
0
0
0
0
0
0
0
0
0
0
0
0
0
0
0
0
0
0
0
0
0
0
0
0
0
0
0
0
0
0
0
0
0
0
0
0
0
0
0
0
0
0
0
0
0
0
0
0
0
0
0
0
0
0
0
0
0
0
0
0
0
0
0
0
0
0
0
0
0
0
0
0
0
0
0
0
0
0
0
0
0
0
0
0
0
0
0
0
0
0
0
0
0
0
0
0
0
0
0
0
0
0
0
0
0
0
0
0
0
0
0
0
0
0
0
0
0
0
0
0
0
0
0
0
0
0
0
0
0
0
0
0
0
0
0
0
0
0
0
0
0
0
0
0
0
0
0
0
0
0
0
0
0
0
0
0
0
0
0
0
0
0
0
0
0
0
0
0
0
0
0
0
0
0
0
0
0
0
0
)
;

boundaryField
{
    inlet
    {
        type            zeroGradient;
    }
    outlet
    {
        type            zeroGradient;
    }
    wall
    {
        type            zeroGradient;
    }
    procBoundary1to0
    {
        type            processor;
        value           nonuniform List<scalar> 
192
(
206903
187452
202696
102731
167484
201121
271822
163635
287750
286264
155608
172186
137848
325792
233412
420945
248702
121445
288912
262786
219526
245031
179548
148011
60167
92561.5
103724
79117
0
0
0
0
0
0
0
0
0
0
0
0
0
0
0
0
0
0
0
0
0
0
0
0
0
0
0
0
0
0
0
0
0
0
0
0
0
0
0
0
0
0
0
0
0
0
0
0
0
0
0
0
0
0
0
0
0
0
0
0
0
0
0
0
0
0
0
0
213914
127760
215908
292391
154429
184942
174056
213220
245913
208133
283320
199011
256602
179124
206534
210751
216439
371732
430080
309961
212008
260100
265403
283826
57901.1
37156.8
54325.1
44750.8
0
0
0
0
0
0
0
0
0
0
0
0
0
0
0
0
0
0
0
0
0
0
0
0
0
0
0
0
0
0
0
0
0
0
0
0
0
0
0
0
0
0
0
0
0
0
0
0
0
0
0
0
0
0
0
0
0
0
0
0
0
0
0
0
0
0
0
0
)
;
    }
    procBoundary1to3
    {
        type            processor;
        value           nonuniform List<scalar> 
192
(
229686
156511
90850
231780
168864
125151
203172
297426
295137
346651
201342
147793
221613
246894
283289
163403
157469
660548
178569
290329
229609
146767
218589
330597
53793.5
103180
76563.1
36192.3
0
0
0
0
0
0
0
0
0
0
0
0
0
0
0
0
0
0
0
0
0
0
0
0
0
0
0
0
0
0
0
0
0
0
0
0
0
0
0
0
0
0
0
0
0
0
0
0
0
0
0
0
0
0
0
0
0
0
0
0
0
0
0
0
0
0
0
0
242298
153240
246138
227839
214619
218200
105680
227929
285399
271937
367125
184815
324041
241648
221771
198393
303901
212890
269279
218564
134415
205351
178067
170353
35015
51223.3
65322.1
56381.7
0
0
0
0
0
0
0
0
0
0
0
0
0
0
0
0
0
0
0
0
0
0
0
0
0
0
0
0
0
0
0
0
0
0
0
0
0
0
0
0
0
0
0
0
0
0
0
0
0
0
0
0
0
0
0
0
0
0
0
0
0
0
0
0
0
0
0
0
)
;
    }
}


// ************************************************************************* //
