/*--------------------------------*- C++ -*----------------------------------*\
| =========                 |                                                 |
| \\      /  F ield         | OpenFOAM: The Open Source CFD Toolbox           |
|  \\    /   O peration     | Version:  2506                                  |
|   \\  /    A nd           | Website:  www.openfoam.com                      |
|    \\/     M anipulation  |                                                 |
\*---------------------------------------------------------------------------*/
FoamFile
{
    version     2.0;
    format      ascii;
    arch        "LSB;label=32;scalar=64";
    class       volVectorField;
    location    "0.08";
    object      U;
}
// * * * * * * * * * * * * * * * * * * * * * * * * * * * * * * * * * * * * * //

dimensions      [0 1 -1 0 0 0 0];

internalField   nonuniform List<vector> 
1152
(
(0.00230948 0.000119278 0.0210285)
(-0.000458917 6.1925e-05 0.0279758)
(-0.00112437 -6.39042e-05 0.0160896)
(0.0031039 -0.000541986 0.0152224)
(0.000662914 -0.000828047 0.0258774)
(-0.000283914 -0.00142404 0.0131802)
(-0.000709619 -0.000976869 0.0199854)
(0.00023015 0.000407826 0.0120796)
(0.000250993 0.000288453 0.0167244)
(0.000440573 -0.00107822 0.0202034)
(0.00132918 0.00133409 0.010182)
(0.00018482 0.00180354 0.0232765)
(-0.00318047 0.00129578 0.0205774)
(0.0006268 0.00189876 0.0114078)
(0.00168542 0.00277713 0.00926198)
(0.00148386 0.000354386 0.00863811)
(-0.000996287 -3.82049e-05 0.0184311)
(0.00279425 0.000469308 0.054179)
(0.00110654 -0.000919629 0.0299752)
(0.00115617 -0.000327281 0.0340659)
(0.00109739 0.000466259 0.0310881)
(0.00268391 0.00144921 0.0402652)
(0.00110715 0.000476393 0.0374754)
(0.00161605 -0.000269057 0.0342133)
(-0.00162548 0.00142748 0.0351807)
(0.00204292 0.000388032 0.0293512)
(0.00239973 0.00157872 0.0418106)
(0.00247128 0.00123564 0.0361265)
(0.00122749 0.00133521 0.0309115)
(0.00259895 0.000458535 0.0273003)
(0.00386073 -0.00209726 0.0525434)
(-0.000182044 0.00440281 0.0511378)
(-0.00269806 0.000920078 0.0393043)
(-0.000515834 0.00044184 0.0418788)
(0.00122681 0.000227271 0.0403669)
(-0.00199079 0.002452 0.0349606)
(0.00117394 0.000562382 0.0403514)
(0.000670071 0.00321364 0.0436213)
(0.000436218 0.000513145 0.0337261)
(-0.00022527 0.00134467 0.0332381)
(0.00078916 0.00116729 0.0301347)
(0.000177385 0.00251339 0.0389185)
(-0.000217149 0.000261122 0.0311763)
(0.00162262 -0.000699907 0.0383397)
(0.00396226 -0.00017219 0.0419398)
(0.000322501 -0.00169758 0.0258471)
(-0.00351634 0.000198339 0.0400433)
(-0.000202342 0.00154899 0.0326104)
(-0.000955164 -0.000659756 0.0312929)
(0.00034879 -7.73949e-05 0.0321719)
(0.00113058 0.00142804 0.0261008)
(0.00012061 0.00148898 0.0371416)
(-0.00302234 0.00158313 0.0340379)
(0.00120696 0.00270618 0.0466913)
(0.00182038 0.00260257 0.0414307)
(0.000413244 0.000873536 0.0428566)
(0.00189532 0.00111859 0.0344056)
(0.000268282 0.00271344 0.0358028)
(0.000395538 0.000859724 0.0305304)
(-0.000725516 0.00212953 0.0350819)
(0.00388231 0.000737437 0.0425637)
(0.000495641 0.000487741 0.0488824)
(0.000437028 -0.000361637 0.0503009)
(0.000211792 0.00029064 0.0312297)
(0.00147157 -0.000706468 0.0363715)
(-0.000343858 -0.00106251 0.0327033)
(0.000464738 -0.000321998 0.0430321)
(0.000577385 0.00152132 0.0399824)
(-0.000466008 -0.00039364 0.0230034)
(-0.000850718 0.000542155 0.0315434)
(0.00193519 0.000612373 0.0375151)
(0.00449795 0.000461861 0.0387702)
(-0.000231349 -0.00153198 0.05053)
(-0.000145314 0.0013444 0.0351089)
(3.76759e-05 0.000156736 0.0415988)
(0.0016506 0.00101281 0.0374686)
(-0.00171759 0.000471277 0.026459)
(-0.000547925 0.00339893 0.0573991)
(0.000522909 0.00122964 0.0261001)
(0.00267983 0.000263373 0.0613324)
(1.9366e-05 -0.00388119 0.0293088)
(-0.000762878 -0.00246735 0.0255989)
(0.000312334 -0.0036016 0.0242052)
(0.00014773 -0.000167486 0.0244065)
(0.00117191 -0.00394953 0.0318929)
(6.38002e-05 -0.00218458 0.0226114)
(0.0018862 -0.0022585 0.027343)
(0.00165358 -0.000228674 0.0258708)
(-0.00053124 9.56694e-05 0.0238437)
(-0.000333243 -0.00132295 0.0401685)
(0.00211913 0.000937792 0.0257798)
(0.00379205 0.000556773 0.0237357)
(-0.00113195 0.0013759 0.0217793)
(0.000750801 0.0014017 0.0277777)
(0.00157345 0.00206189 0.0227642)
(0.00266934 0.00496911 0.0355206)
(0.000479144 0.0008964 0.0257394)
(0.00109841 6.72122e-05 0.0229479)
(-0.000715318 -0.000285255 0.0199222)
(-0.00197713 0.000605465 0.0228128)
(0.000264275 0.0005663 0.0189716)
(1.1851e-05 8.29036e-05 0.0178835)
(-0.00032705 0.000632341 0.0203212)
(-0.000898746 0.000248824 0.0244707)
(-0.000358655 0.000647158 0.0236698)
(0.000960465 -0.00110183 0.0280931)
(0.000202142 0.000629715 0.0182292)
(-0.00147529 0.000605783 0.0203411)
(-0.000375557 -0.000153977 0.015551)
(-2.2191e-05 0.000191918 0.0263419)
(-0.000213373 -0.000205258 0.0178364)
(-0.00217717 0.000151238 0.0326783)
(-0.000885673 -0.00281594 0.026215)
(-0.000381859 -0.00372723 0.0178537)
(0.000966881 -0.00419945 0.0148331)
(0.00235144 -0.00303312 0.0264481)
(-0.00189002 -0.00281715 0.00160414)
(-0.00117785 -0.00377115 -0.00364461)
(0.00138956 -0.00559061 0.000139401)
(0.00320002 -0.00310265 0.0228053)
(-0.00253799 -0.00150653 0.00957425)
(-0.00290277 -0.000660245 0.0189631)
(0.00128908 -0.00261332 -0.0305517)
(0.00523091 -0.00116935 0.00957736)
(-0.000724457 0.00049506 -0.010573)
(-0.000407398 0.000181178 0.0129478)
(0.000487384 0.00266569 -0.0199798)
(0.0048071 0.00114002 0.0263152)
(0.000994156 0.00230769 0.014461)
(0.000646738 0.00234526 0.0128622)
(-0.000718395 0.00289744 0.0125996)
(-0.000954705 0.00112315 0.0137214)
(0.00153433 0.00157411 0.0116944)
(0.000743669 0.00104686 0.0109203)
(-0.00160152 0.00314208 0.0113111)
(-0.00293436 0.00104062 0.0139112)
(0.000916976 0.000754285 0.0123732)
(0.00221069 -0.000474033 0.0131937)
(-0.000769333 0.00066416 0.0106098)
(-0.00443947 -0.000218382 0.013212)
(0.000712329 -0.00138065 0.0110106)
(0.000781548 -0.00150701 0.0116651)
(-0.00137881 -0.00343371 0.011707)
(-0.00362677 -0.0018256 0.0150567)
(0.000586101 0.00137773 0.0167561)
(0.000386429 0.00133456 0.0159754)
(-0.00028173 0.00142764 0.015911)
(-0.000512799 0.000495482 0.0167665)
(0.000744992 0.000973834 0.0150425)
(0.000304878 0.000687253 0.0143768)
(-0.00077604 0.00115762 0.0142217)
(-0.0014202 0.000334685 0.0161595)
(0.000466741 0.000344069 0.0147386)
(0.000568944 -0.000129655 0.0145162)
(-0.000626858 5.10296e-05 0.0126995)
(-0.00200439 -0.000297981 0.0155179)
(0.000303925 -0.000711514 0.0140746)
(1.40001e-05 -0.000808514 0.0145115)
(-0.000946733 -0.00144801 0.0135164)
(-0.00182735 -0.00104201 0.0162259)
(0.000283751 0.000710602 0.0160754)
(0.00012876 0.000691929 0.0157843)
(-0.000184008 0.000689754 0.0157467)
(-0.000352459 0.000354041 0.0160474)
(0.000312325 0.00052365 0.0153807)
(7.02123e-05 0.00042128 0.0151532)
(-0.000371681 0.0004558 0.0151268)
(-0.000638061 0.000174628 0.0158342)
(0.000216939 0.000158178 0.0151859)
(5.53808e-05 5.94401e-06 0.0151276)
(-0.000416811 -3.75161e-05 0.0147406)
(-0.000832324 -0.000172192 0.0156798)
(0.000117358 -0.000325475 0.0150188)
(-0.000130595 -0.000420631 0.0151613)
(-0.00054501 -0.000604229 0.0150039)
(-0.000822175 -0.00053233 0.0159503)
(0.00013704 0.000374829 0.0162439)
(4.51652e-05 0.000355678 0.0161455)
(-9.11929e-05 0.000324183 0.0161536)
(-0.000176204 0.000176167 0.0162822)
(0.000130236 0.000274885 0.0159612)
(7.159e-07 0.000224952 0.0158865)
(-0.000183764 0.000185384 0.0159114)
(-0.000293419 6.02395e-05 0.0161627)
(8.51781e-05 7.59132e-05 0.0158424)
(-4.46092e-05 7.54648e-06 0.0158188)
(-0.000246272 -4.74565e-05 0.0157974)
(-0.000386281 -0.000121078 0.0161185)
(2.2715e-05 -0.000160509 0.0158141)
(-0.000123847 -0.000226381 0.0158455)
(-0.000308501 -0.00029517 0.0158924)
(-0.000411769 -0.000299923 0.0162237)
(6.33981e-05 0.000194857 0.0163508)
(1.13272e-05 0.000176928 0.0163131)
(-5.11141e-05 0.000150318 0.0163207)
(-9.24391e-05 8.3042e-05 0.0163693)
(4.90529e-05 0.000137821 0.0162251)
(-1.89108e-05 0.000107945 0.0161983)
(-9.88539e-05 7.37315e-05 0.0162202)
(-0.000145442 1.39011e-05 0.0163151)
(2.1317e-05 3.34017e-05 0.0161625)
(-5.2887e-05 -4.18194e-06 0.0161543)
(-0.000140876 -4.12858e-05 0.0161817)
(-0.000193738 -8.32963e-05 0.016307)
(-1.53819e-05 -8.52793e-05 0.0161598)
(-9.37063e-05 -0.000124506 0.0161732)
(-0.000176008 -0.000159712 0.0162245)
(-0.000217504 -0.000176311 0.01636)
(2.79012e-05 9.84923e-05 0.0164164)
(-1.90349e-07 8.50891e-05 0.0164011)
(-2.96254e-05 6.7083e-05 0.0164067)
(-4.97002e-05 3.43326e-05 0.016428)
(1.55135e-05 6.58195e-05 0.0163571)
(-1.96052e-05 4.71103e-05 0.0163482)
(-5.55921e-05 2.48639e-05 0.0163629)
(-7.66145e-05 -5.62776e-06 0.0164032)
(-2.24259e-06 1.09839e-05 0.0163259)
(-4.13213e-05 -1.09477e-05 0.0163262)
(-8.0624e-05 -3.37092e-05 0.0163492)
(-0.000102452 -5.7795e-05 0.0164043)
(-2.38307e-05 -4.99865e-05 0.016327)
(-6.42022e-05 -7.2726e-05 0.016338)
(-0.000101469 -9.29742e-05 0.0163718)
(-0.000118852 -0.000107039 0.0164343)
(1.09048e-05 4.83713e-05 0.0164574)
(-3.97422e-06 3.92678e-05 0.0164509)
(-1.84016e-05 2.78786e-05 0.0164542)
(-2.84564e-05 1.10174e-05 0.0164642)
(2.00456e-06 2.9544e-05 0.0164289)
(-1.61035e-05 1.78561e-05 0.0164264)
(-3.30446e-05 4.27346e-06 0.0164352)
(-4.30523e-05 -1.20492e-05 0.0164539)
(-9.26797e-06 1.81956e-07 0.016414)
(-2.93957e-05 -1.28771e-05 0.0164167)
(-4.76084e-05 -2.64929e-05 0.0164312)
(-5.72275e-05 -4.03289e-05 0.0164574)
(-2.22089e-05 -3.18515e-05 0.0164158)
(-4.26997e-05 -4.52119e-05 0.0164243)
(-6.00141e-05 -5.72645e-05 0.0164445)
(-6.74763e-05 -6.68273e-05 0.0164756)
(2.78112e-06 2.26331e-05 0.0164818)
(-5.08317e-06 1.67152e-05 0.016479)
(-1.23742e-05 9.74661e-06 0.016481)
(-1.75313e-05 6.99107e-07 0.0164861)
(-3.16168e-06 1.16822e-05 0.016468)
(-1.25479e-05 4.43342e-06 0.0164678)
(-2.07885e-05 -3.70414e-06 0.016473)
(-2.56818e-05 -1.27207e-05 0.0164825)
(-1.02286e-05 -4.35074e-06 0.0164612)
(-2.05726e-05 -1.22073e-05 0.016464)
(-2.92339e-05 -2.02913e-05 0.0164727)
(-3.35754e-05 -2.82475e-05 0.0164862)
(-1.80393e-05 -2.16056e-05 0.0164631)
(-2.84463e-05 -2.9509e-05 0.0164692)
(-3.6583e-05 -3.67121e-05 0.0164812)
(-3.96972e-05 -4.26852e-05 0.0164977)
(-9.55544e-07 9.65482e-06 0.016496)
(-5.1237e-06 5.90691e-06 0.016495)
(-8.89065e-06 1.67302e-06 0.0164963)
(-1.15467e-05 -3.29068e-06 0.0164991)
(-4.79308e-06 3.206e-06 0.0164894)
(-9.69331e-06 -1.27859e-06 0.01649)
(-1.37694e-05 -6.13541e-06 0.0164932)
(-1.61362e-05 -1.1195e-05 0.0164984)
(-9.16909e-06 -5.70265e-06 0.0164865)
(-1.45255e-05 -1.04656e-05 0.0164889)
(-1.86682e-05 -1.52612e-05 0.0164943)
(-2.05612e-05 -1.98358e-05 0.0165017)
(-1.38629e-05 -1.52703e-05 0.0164883)
(-1.92305e-05 -1.993e-05 0.0164927)
(-2.30073e-05 -2.42026e-05 0.0164999)
(-2.41344e-05 -2.77782e-05 0.0165091)
(-2.45565e-06 3.30121e-06 0.0165044)
(-4.67795e-06 9.63696e-07 0.0165042)
(-6.64862e-06 -1.58297e-06 0.0165051)
(-7.973e-06 -4.39598e-06 0.0165069)
(-4.89198e-06 -5.61847e-07 0.0165014)
(-7.453e-06 -3.32225e-06 0.0165022)
(-9.48004e-06 -6.21166e-06 0.0165043)
(-1.05676e-05 -9.07293e-06 0.0165074)
(-7.58651e-06 -5.59823e-06 0.0165004)
(-1.0357e-05 -8.48803e-06 0.0165023)
(-1.23188e-05 -1.13312e-05 0.0165057)
(-1.30497e-05 -1.39509e-05 0.0165101)
(-1.03902e-05 -1.10053e-05 0.0165019)
(-1.3173e-05 -1.37495e-05 0.016505)
(-1.48655e-05 -1.62612e-05 0.0165096)
(-1.51023e-05 -1.83448e-05 0.016515)
(-2.80917e-06 3.66977e-07 0.0165094)
(-4.00941e-06 -1.0747e-06 0.0165096)
(-5.02885e-06 -2.61949e-06 0.0165104)
(-5.63902e-06 -4.2219e-06 0.0165116)
(-4.34144e-06 -1.99257e-06 0.0165082)
(-5.67597e-06 -3.67657e-06 0.016509)
(-6.67071e-06 -5.37943e-06 0.0165105)
(-7.11185e-06 -7.01258e-06 0.0165125)
(-5.99636e-06 -4.89486e-06 0.0165081)
(-7.4053e-06 -6.63102e-06 0.0165096)
(-8.30844e-06 -8.30038e-06 0.0165119)
(-8.50314e-06 -9.79368e-06 0.0165146)
(-7.67084e-06 -7.9534e-06 0.0165094)
(-9.07134e-06 -9.57412e-06 0.0165117)
(-9.78395e-06 -1.10385e-05 0.0165146)
(-9.66537e-06 -1.22303e-05 0.016518)
(-2.60296e-06 -8.13108e-07 0.0165125)
(-3.25088e-06 -1.7023e-06 0.0165129)
(-3.76481e-06 -2.62919e-06 0.0165135)
(-4.01633e-06 -3.54789e-06 0.0165144)
(-3.55511e-06 -2.27496e-06 0.0165122)
(-4.24708e-06 -3.28835e-06 0.0165129)
(-4.71829e-06 -4.29135e-06 0.016514)
(-4.85051e-06 -5.22474e-06 0.0165153)
(-4.56552e-06 -3.97549e-06 0.0165125)
(-5.26529e-06 -5.00267e-06 0.0165137)
(-5.65799e-06 -5.97211e-06 0.0165152)
(-5.62761e-06 -6.81774e-06 0.016517)
(-5.5683e-06 -5.69287e-06 0.0165136)
(-6.23486e-06 -6.6513e-06 0.0165152)
(-6.4999e-06 -7.49893e-06 0.0165172)
(-6.27766e-06 -8.17064e-06 0.0165193)
(-2.14507e-06 -1.11047e-06 0.0165144)
(-2.49993e-06 -1.65304e-06 0.0165148)
(-2.7498e-06 -2.20532e-06 0.0165153)
(-2.82776e-06 -2.73296e-06 0.0165159)
(-2.72836e-06 -2.0208e-06 0.0165144)
(-3.09127e-06 -2.62445e-06 0.0165151)
(-3.30034e-06 -3.21103e-06 0.0165159)
(-3.29761e-06 -3.74326e-06 0.0165169)
(-3.33785e-06 -3.02456e-06 0.0165149)
(-3.68361e-06 -3.62446e-06 0.0165159)
(-3.83564e-06 -4.18143e-06 0.016517)
(-3.72887e-06 -4.6566e-06 0.0165182)
(-3.93726e-06 -3.98425e-06 0.0165158)
(-4.24052e-06 -4.54645e-06 0.0165171)
(-4.30933e-06 -5.03174e-06 0.0165184)
(-4.08764e-06 -5.40395e-06 0.0165199)
(-1.60561e-06 -9.89398e-07 0.0165154)
(-1.80333e-06 -1.31353e-06 0.0165159)
(-1.91627e-06 -1.63741e-06 0.0165163)
(-1.92074e-06 -1.93743e-06 0.0165168)
(-1.9535e-06 -1.54854e-06 0.0165157)
(-2.14862e-06 -1.90064e-06 0.0165163)
(-2.22946e-06 -2.23844e-06 0.016517)
(-2.17905e-06 -2.53774e-06 0.0165177)
(-2.31165e-06 -2.13492e-06 0.0165162)
(-2.486e-06 -2.47758e-06 0.016517)
(-2.52933e-06 -2.79252e-06 0.0165179)
(-2.41352e-06 -3.05476e-06 0.0165188)
(-2.6624e-06 -2.66519e-06 0.016517)
(-2.80006e-06 -2.98436e-06 0.016518)
(-2.79067e-06 -3.25458e-06 0.016519)
(-2.60588e-06 -3.45448e-06 0.01652)
(-1.08508e-06 -6.97032e-07 0.016516)
(-1.18882e-06 -8.83049e-07 0.0165164)
(-1.23184e-06 -1.06693e-06 0.0165169)
(-1.21109e-06 -1.23369e-06 0.0165173)
(-1.28049e-06 -1.01854e-06 0.0165164)
(-1.38382e-06 -1.2162e-06 0.0165169)
(-1.40476e-06 -1.40426e-06 0.0165175)
(-1.34896e-06 -1.56715e-06 0.0165181)
(-1.4806e-06 -1.34348e-06 0.0165169)
(-1.56848e-06 -1.53128e-06 0.0165176)
(-1.5665e-06 -1.70263e-06 0.0165183)
(-1.4717e-06 -1.842e-06 0.016519)
(-1.67653e-06 -1.62389e-06 0.0165176)
(-1.73821e-06 -1.79486e-06 0.0165184)
(-1.70432e-06 -1.9379e-06 0.0165192)
(-1.56892e-06 -2.0404e-06 0.01652)
(-6.88093e-07 -3.93559e-07 0.0165164)
(-7.33623e-07 -4.98799e-07 0.0165168)
(-7.45559e-07 -6.00568e-07 0.0165171)
(-7.23354e-07 -6.90793e-07 0.0165175)
(-7.96193e-07 -5.52104e-07 0.0165167)
(-8.40513e-07 -6.62332e-07 0.0165172)
(-8.39048e-07 -7.65392e-07 0.0165177)
(-7.98375e-07 -8.53434e-07 0.0165182)
(-9.06315e-07 -7.10841e-07 0.0165173)
(-9.42092e-07 -8.14944e-07 0.0165179)
(-9.25861e-07 -9.08011e-07 0.0165185)
(-8.62622e-07 -9.83031e-07 0.0165191)
(-1.01325e-06 -8.47984e-07 0.0165179)
(-1.0338e-06 -9.39925e-07 0.0165186)
(-9.98271e-07 -1.01735e-06 0.0165193)
(-9.106e-07 -1.07282e-06 0.01652)
(-0.000508247 -0.00201758 0.0172533)
(0.000992637 0.000659447 0.0137062)
(0.00226976 -0.00150794 0.0202564)
(0.00125453 0.0012475 0.0128805)
(-0.000321568 -0.000403604 0.00943586)
(0.00116937 -0.000171802 0.0115948)
(0.00185099 -0.00108583 0.0155634)
(-0.000378401 0.00274333 0.0148919)
(2.41219e-05 0.00155063 0.0181133)
(0.000800662 -6.68186e-05 0.0183749)
(0.00239761 -0.000715267 0.0154557)
(0.00176255 -0.00165463 0.0170969)
(0.00187645 -0.000689056 0.0227928)
(0.0002179 0.00066225 0.0141788)
(0.00136306 -0.00173743 0.0175453)
(0.00192883 -0.00254354 0.0092003)
(0.000265227 0.000466507 0.0448808)
(-0.00178442 -0.000343644 0.0398192)
(0.000136843 0.00075275 0.0500248)
(0.00204541 -0.00183227 0.03822)
(0.00127487 -0.00150639 0.0351256)
(-0.00321376 -0.00163069 0.0478754)
(-0.00158289 0.000485406 0.0326769)
(0.00283678 -0.00231087 0.0329243)
(0.00195259 -0.00453256 0.0418269)
(0.00126397 -0.0022955 0.0368518)
(0.000199523 -0.000553624 0.0471895)
(-0.00219497 -0.0012707 0.0766302)
(-0.00104551 -0.00269736 0.034427)
(0.0025201 -0.00281447 0.0352588)
(0.00210975 -0.000917811 0.0288644)
(0.000741952 0.00023462 0.0304908)
(0.00066 0.000190511 0.0405746)
(-0.00031689 5.04404e-05 0.0322327)
(0.00038657 0.000945181 0.0386786)
(0.00115605 -0.00441201 0.0464523)
(6.45182e-05 0.00127123 0.045501)
(-0.00060158 0.000739597 0.041309)
(-1.2388e-05 8.74326e-05 0.0260481)
(0.00194633 -0.00516034 0.027512)
(0.00144077 0.000392645 0.0400008)
(-0.0019515 0.0017014 0.0477983)
(-0.00443468 -0.00103038 0.0459906)
(-0.000436711 -0.000130373 0.028505)
(-0.00113468 0.00101426 0.026572)
(-0.000361129 -0.000775275 0.0252386)
(-0.00180394 0.000384297 0.0385825)
(-0.00283518 0.00303684 0.0326288)
(-9.16006e-05 0.00041747 0.0428639)
(0.00130319 -0.000349339 0.0405349)
(-0.000954692 -0.000323631 0.0385527)
(-0.00157542 0.00166517 0.0619602)
(-0.000354469 0.00244974 0.030004)
(0.000593378 0.00133792 0.032112)
(0.000725664 -0.00125716 0.0368401)
(-0.000728718 0.00020632 0.0291724)
(0.000202762 0.00290766 0.0419331)
(-0.00371251 0.00271862 0.048988)
(-0.0003855 -0.00183049 0.0298598)
(0.000141391 0.000298309 0.0413326)
(0.000871298 -0.000314708 0.0303385)
(-0.00197474 -0.000879461 0.0435359)
(-0.0010946 0.000323171 0.0384492)
(-0.00010163 0.00262428 0.0433759)
(0.000908257 0.00125706 0.0393047)
(-0.000960005 -0.00110362 0.0351138)
(-0.00405053 -0.00141485 0.0526241)
(-0.000587431 0.00291541 0.0347953)
(0.00166414 0.000710601 0.0430086)
(0.000394128 -0.000862087 0.0292569)
(-0.000905517 0.000750076 0.0480195)
(-0.00129968 0.00284592 0.0313216)
(0.00093504 0.00167797 0.0657274)
(-0.00056715 0.00135783 0.0568741)
(-0.0011164 0.00118101 0.0453606)
(-0.000670236 0.00143354 0.022651)
(0.000897796 0.00122508 0.0378637)
(-0.000980606 0.00129931 0.0369274)
(-7.63526e-05 0.00127793 0.0261056)
(-0.00111912 0.00291157 0.0334325)
(-0.000795106 -5.10587e-06 0.0256285)
(-0.0012343 0.00246713 0.0332944)
(-0.000746015 -0.00112526 0.0203597)
(-0.00263691 0.00115102 0.0274465)
(-0.00205419 -0.000751974 0.0309068)
(-0.000242147 0.00210806 0.0199355)
(-0.00265601 0.00229062 0.0231205)
(-0.00335985 0.00386776 0.0258926)
(0.00061779 0.00125003 0.0247923)
(0.00214772 -0.000362115 0.0199742)
(-0.00156316 0.00277868 0.0215187)
(-0.00240368 0.00273728 0.0211464)
(-0.00322572 -3.19129e-05 0.0348679)
(0.00130182 -0.00294313 0.0303629)
(0.00126485 -0.00168452 0.0292103)
(-0.00225663 0.000359108 0.0283178)
(-0.000182733 0.000129572 0.0225722)
(-0.000687366 0.000141731 0.0226807)
(0.00113352 0.000440724 0.0281213)
(0.00158867 -0.000823916 0.0166562)
(0.000113971 0.00036486 0.0246139)
(0.00132677 -1.48743e-05 0.0185242)
(0.000833287 -0.000113688 0.0193121)
(0.000438202 -0.00182887 0.0213113)
(-0.000127894 -0.000911621 0.0262641)
(0.00215572 -6.6211e-05 0.0235136)
(0.0029498 -0.000836527 0.0226958)
(0.00106607 -0.00121987 0.0179037)
(0.00128085 -0.000184819 0.0288698)
(1.89685e-05 -0.00250771 0.0162308)
(-0.000901313 0.000263531 0.0255333)
(0.001291 -0.000858182 0.0252867)
(1.87458e-05 -0.00059 0.0273513)
(0.000277243 -0.000604695 0.0298354)
(0.00041404 -0.000384423 0.03521)
(0.000297196 -0.000286931 0.0195005)
(0.00012896 -0.00140523 0.0286362)
(0.000815418 -0.00165 0.0249965)
(0.000977355 -0.00153681 0.0260427)
(0.000774074 -0.000897356 0.02113)
(-0.000228798 -0.00180985 0.0308759)
(0.000555346 -0.00187692 0.0340104)
(0.00141054 -0.00225307 0.0328915)
(0.00141053 -0.00143542 0.0227939)
(-0.000270544 -0.00217167 0.0320339)
(-4.92836e-05 -0.00259391 0.0164108)
(0.000839045 -0.00277726 0.0288604)
(0.00176867 -0.00216287 0.028106)
(-0.000314732 -0.000131439 0.0131974)
(-0.000447706 3.15375e-05 0.0137422)
(0.000644274 0.000805995 0.0146792)
(0.000624218 0.00012578 0.0116079)
(-8.14039e-05 -0.00022352 0.0136236)
(2.46241e-05 -0.0001033 0.0134145)
(0.000435242 0.000678981 0.0135558)
(0.000812232 -0.000171551 0.0119967)
(-0.000455898 4.54581e-05 0.0145412)
(2.55709e-05 0.000421962 0.014761)
(0.000437437 0.000822528 0.0144225)
(0.00090829 -0.000135095 0.0125818)
(0.000203259 0.00103543 0.015183)
(0.000194376 0.00160941 0.0132703)
(-0.000333898 0.00180713 0.0140885)
(0.000258032 0.000367539 0.0134879)
(-5.0874e-05 5.22781e-05 0.0178529)
(-1.53833e-05 0.000136635 0.0180388)
(0.000591866 0.000580651 0.0186251)
(0.00044319 0.000243881 0.0168138)
(4.48718e-05 0.000165045 0.0178767)
(0.000143904 0.000275318 0.0177226)
(0.000422635 0.000701833 0.018052)
(0.000456063 0.000151302 0.0169359)
(-2.80129e-05 0.000393119 0.0179601)
(0.000195388 0.000584005 0.0178466)
(0.000329053 0.000812734 0.0178906)
(0.000396756 0.000150566 0.0171129)
(0.000255794 0.000879673 0.0177302)
(0.000270759 0.00106977 0.0170607)
(1.44283e-06 0.00113335 0.0172382)
(7.99074e-05 0.000311327 0.0171983)
(3.34112e-05 5.49422e-05 0.0169596)
(2.31366e-05 7.93952e-05 0.0168969)
(0.000248541 0.00025672 0.0170371)
(0.000187261 0.00013018 0.0161349)
(7.03696e-05 0.000167192 0.0168894)
(5.89261e-05 0.000207158 0.0167328)
(0.000149052 0.000371459 0.0167863)
(0.000158536 0.000120758 0.0161674)
(7.65105e-05 0.000321661 0.0168041)
(7.52659e-05 0.000376314 0.0166426)
(6.01612e-05 0.000462043 0.0166018)
(7.50271e-05 0.00015659 0.0162107)
(0.000173347 0.000540417 0.0165676)
(9.63761e-05 0.00058443 0.0162868)
(-6.92206e-05 0.000599023 0.0162843)
(-8.37875e-05 0.000268937 0.0162127)
(6.5894e-05 4.9859e-05 0.0167477)
(5.97986e-05 6.44833e-05 0.0166883)
(0.00014367 0.000140215 0.0167541)
(0.000100176 8.3234e-05 0.0164153)
(7.63881e-05 0.00014165 0.0167011)
(5.89257e-05 0.000156238 0.0166224)
(8.78943e-05 0.000217038 0.016657)
(7.26232e-05 9.37982e-05 0.0164226)
(8.41971e-05 0.000236226 0.0166246)
(5.65375e-05 0.000246264 0.0165441)
(3.44485e-05 0.000268862 0.0165502)
(2.05299e-05 0.000116577 0.016424)
(0.00011084 0.000329319 0.0164798)
(5.302e-05 0.000330202 0.0163815)
(-2.59682e-05 0.000317408 0.0163938)
(-5.34319e-05 0.000162158 0.0163934)
(5.86753e-05 3.45109e-05 0.016655)
(5.2334e-05 4.26985e-05 0.0166058)
(7.60067e-05 7.16562e-05 0.0166115)
(4.54437e-05 4.15175e-05 0.0164536)
(5.92611e-05 9.39949e-05 0.01662)
(4.38829e-05 9.61986e-05 0.0165687)
(4.57137e-05 0.000112831 0.0165651)
(2.83458e-05 5.1053e-05 0.0164519)
(5.97959e-05 0.000146803 0.0165614)
(3.51657e-05 0.00014205 0.0165138)
(1.53616e-05 0.000139247 0.0165055)
(3.28748e-07 6.41221e-05 0.0164442)
(6.31996e-05 0.000186907 0.016472)
(2.53608e-05 0.000175989 0.0164287)
(-1.57462e-05 0.000157426 0.0164285)
(-3.47501e-05 8.46903e-05 0.0164231)
(4.08745e-05 2.08593e-05 0.0165892)
(3.54898e-05 2.52023e-05 0.016556)
(3.86202e-05 3.5359e-05 0.0165477)
(1.89432e-05 1.86062e-05 0.0164766)
(3.89008e-05 5.53053e-05 0.0165667)
(2.81647e-05 5.37969e-05 0.0165354)
(2.28581e-05 5.571e-05 0.0165256)
(9.54239e-06 2.41273e-05 0.0164742)
(3.64776e-05 8.33185e-05 0.01653)
(2.0254e-05 7.63285e-05 0.0165033)
(6.45289e-06 6.8211e-05 0.0164953)
(-4.68797e-06 3.042e-05 0.016468)
(3.35382e-05 0.000100565 0.0164791)
(1.14705e-05 8.99673e-05 0.0164585)
(-1.0083e-05 7.50906e-05 0.0164574)
(-2.16552e-05 3.93e-05 0.0164555)
(2.49556e-05 1.17927e-05 0.0165513)
(2.10426e-05 1.38832e-05 0.0165311)
(1.84216e-05 1.66682e-05 0.0165222)
(6.30619e-06 6.84043e-06 0.0164899)
(2.2859e-05 3.06726e-05 0.0165383)
(1.60553e-05 2.85137e-05 0.0165199)
(1.02685e-05 2.62371e-05 0.0165115)
(1.29605e-06 9.53083e-06 0.0164881)
(2.01163e-05 4.5007e-05 0.0165173)
(1.04287e-05 3.9209e-05 0.0165025)
(1.50433e-06 3.17788e-05 0.0164966)
(-5.94503e-06 1.21668e-05 0.0164844)
(1.64227e-05 5.22017e-05 0.0164896)
(4.14233e-06 4.43715e-05 0.0164794)
(-7.44217e-06 3.40744e-05 0.0164783)
(-1.43823e-05 1.56905e-05 0.0164777)
(1.37591e-05 6.32377e-06 0.0165321)
(1.10835e-05 7.12034e-06 0.0165203)
(7.74545e-06 7.19009e-06 0.0165136)
(4.29543e-07 1.09811e-06 0.0164991)
(1.21394e-05 1.62361e-05 0.0165247)
(7.97085e-06 1.42849e-05 0.0165143)
(3.52077e-06 1.13932e-05 0.0165085)
(-2.20541e-06 2.11404e-06 0.016498)
(9.91896e-06 2.32779e-05 0.0165131)
(4.3102e-06 1.91002e-05 0.016505)
(-1.20693e-06 1.35658e-05 0.0165012)
(-5.92144e-06 2.92956e-06 0.0164959)
(6.93088e-06 2.60225e-05 0.0164983)
(1.67978e-07 2.0713e-05 0.0164931)
(-6.17152e-06 1.4026e-05 0.0164924)
(-1.02532e-05 4.16648e-06 0.0164925)
(6.74741e-06 3.19172e-06 0.0165225)
(4.93465e-06 3.28585e-06 0.0165159)
(2.26073e-06 2.49821e-06 0.0165117)
(-2.0397e-06 -1.45189e-06 0.0165052)
(5.6206e-06 8.1516e-06 0.0165185)
(3.07066e-06 6.58166e-06 0.0165127)
(4.19424e-08 4.12464e-06 0.0165093)
(-3.42565e-06 -1.28879e-06 0.0165046)
(4.02235e-06 1.14069e-05 0.0165122)
(7.86174e-07 8.53035e-06 0.0165079)
(-2.5593e-06 4.75862e-06 0.0165058)
(-5.39174e-06 -1.23735e-06 0.0165036)
(1.87724e-06 1.22091e-05 0.0165044)
(-1.82806e-06 8.73847e-06 0.0165018)
(-5.34463e-06 4.53195e-06 0.0165015)
(-7.71135e-06 -9.37237e-07 0.0165019)
(2.70706e-06 1.47704e-06 0.0165181)
(1.48938e-06 1.23249e-06 0.0165145)
(-3.87285e-07 2.76285e-07 0.0165122)
(-2.85228e-06 -2.32816e-06 0.0165095)
(1.95137e-06 3.79542e-06 0.0165159)
(3.90694e-07 2.57898e-06 0.0165129)
(-1.55583e-06 7.33909e-07 0.016511)
(-3.59639e-06 -2.49909e-06 0.0165092)
(8.51559e-07 5.14415e-06 0.0165126)
(-1.01114e-06 3.20619e-06 0.0165104)
(-2.99165e-06 7.07844e-07 0.0165094)
(-4.66203e-06 -2.73222e-06 0.0165087)
(-5.99904e-07 5.13455e-06 0.0165086)
(-2.6496e-06 2.90847e-06 0.0165074)
(-4.57636e-06 2.82329e-07 0.0165075)
(-5.92144e-06 -2.83039e-06 0.016508)
(5.63647e-07 5.84481e-07 0.0165163)
(-2.43429e-07 2.21603e-07 0.0165145)
(-1.46043e-06 -6.50887e-07 0.0165133)
(-2.83966e-06 -2.3996e-06 0.0165124)
(6.93929e-08 1.55238e-06 0.0165151)
(-8.88869e-07 6.42603e-07 0.0165137)
(-2.08627e-06 -6.85379e-07 0.0165128)
(-3.24786e-06 -2.67531e-06 0.0165123)
(-6.6305e-07 1.9779e-06 0.0165134)
(-1.74429e-06 6.84842e-07 0.0165125)
(-2.89685e-06 -9.37528e-07 0.0165121)
(-3.84588e-06 -2.97319e-06 0.0165121)
(-1.6178e-06 1.66217e-06 0.0165114)
(-2.7524e-06 2.48858e-07 0.0165111)
(-3.8075e-06 -1.39744e-06 0.0165113)
(-4.55711e-06 -3.20637e-06 0.0165118)
(-4.28724e-07 1.49938e-07 0.0165157)
(-9.66616e-07 -2.17814e-07 0.0165149)
(-1.71686e-06 -9.24497e-07 0.0165145)
(-2.46024e-06 -2.10273e-06 0.0165143)
(-7.47908e-07 4.63897e-07 0.0165151)
(-1.34488e-06 -1.97143e-07 0.0165145)
(-2.05709e-06 -1.12562e-06 0.0165143)
(-2.6934e-06 -2.37508e-06 0.0165143)
(-1.22493e-06 4.81146e-07 0.0165143)
(-1.86454e-06 -3.70294e-07 0.016514)
(-2.52294e-06 -1.42117e-06 0.016514)
(-3.03925e-06 -2.65031e-06 0.0165143)
(-1.83882e-06 9.39229e-08 0.0165133)
(-2.48062e-06 -8.06265e-07 0.0165134)
(-3.05511e-06 -1.82969e-06 0.0165137)
(-3.45208e-06 -2.89768e-06 0.0165142)
(-7.63717e-07 -3.47714e-08 0.0165157)
(-1.12065e-06 -3.52662e-07 0.0165155)
(-1.56682e-06 -8.85037e-07 0.0165154)
(-1.94787e-06 -1.67055e-06 0.0165155)
(-9.68276e-07 -4.91928e-09 0.0165154)
(-1.34185e-06 -4.7452e-07 0.0165153)
(-1.75492e-06 -1.10723e-06 0.0165153)
(-2.08675e-06 -1.89557e-06 0.0165156)
(-1.27532e-06 -1.33342e-07 0.016515)
(-1.65732e-06 -6.93145e-07 0.0165151)
(-2.02557e-06 -1.36688e-06 0.0165152)
(-2.29167e-06 -2.11465e-06 0.0165156)
(-1.66509e-06 -4.85032e-07 0.0165146)
(-2.03428e-06 -1.05571e-06 0.0165148)
(-2.33854e-06 -1.68785e-06 0.0165152)
(-2.5365e-06 -2.32363e-06 0.0165156)
(-7.50907e-07 -8.73342e-08 0.0165159)
(-9.80437e-07 -3.34248e-07 0.0165159)
(-1.2346e-06 -7.08004e-07 0.016516)
(-1.4176e-06 -1.2146e-06 0.0165163)
(-8.79116e-07 -1.54785e-07 0.0165157)
(-1.11025e-06 -4.7628e-07 0.0165158)
(-1.33965e-06 -8.90789e-07 0.016516)
(-1.50208e-06 -1.3785e-06 0.0165163)
(-1.0721e-06 -3.05629e-07 0.0165156)
(-1.29962e-06 -6.64761e-07 0.0165158)
(-1.49662e-06 -1.08576e-06 0.016516)
(-1.62404e-06 -1.53473e-06 0.0165164)
(-1.31336e-06 -5.75661e-07 0.0165154)
(-1.52738e-06 -9.29367e-07 0.0165157)
(-1.68014e-06 -1.31235e-06 0.0165161)
(-1.76988e-06 -1.68814e-06 0.0165164)
(-5.85059e-07 -8.21562e-08 0.0165161)
(-7.17245e-07 -2.49514e-07 0.0165162)
(-8.4717e-07 -4.8742e-07 0.0165164)
(-9.27309e-07 -7.92634e-07 0.0165167)
(-6.59049e-07 -1.55283e-07 0.016516)
(-7.9028e-07 -3.57375e-07 0.0165162)
(-9.05483e-07 -6.09476e-07 0.0165164)
(-9.77046e-07 -8.94496e-07 0.0165167)
(-7.7255e-07 -2.71393e-07 0.0165159)
(-8.99771e-07 -4.87775e-07 0.0165162)
(-9.9447e-07 -7.34264e-07 0.0165164)
(-1.04784e-06 -9.90577e-07 0.0165168)
(-9.14508e-07 -4.48831e-07 0.0165159)
(-1.03112e-06 -6.55413e-07 0.0165162)
(-1.09853e-06 -8.7471e-07 0.0165165)
(-1.13169e-06 -1.08817e-06 0.0165169)
(-4.04099e-07 -5.88825e-08 0.0165162)
(-4.71593e-07 -1.63364e-07 0.0165164)
(-5.32246e-07 -3.03808e-07 0.0165166)
(-5.60849e-07 -4.74161e-07 0.0165169)
(-4.44456e-07 -1.07936e-07 0.0165162)
(-5.10149e-07 -2.26339e-07 0.0165164)
(-5.63551e-07 -3.6935e-07 0.0165166)
(-5.89077e-07 -5.2444e-07 0.016517)
(-5.08652e-07 -1.75441e-07 0.0165161)
(-5.70988e-07 -2.9819e-07 0.0165164)
(-6.12833e-07 -4.34605e-07 0.0165167)
(-6.28078e-07 -5.70658e-07 0.016517)
(-5.89908e-07 -2.68678e-07 0.0165162)
(-6.44462e-07 -3.8364e-07 0.0165165)
(-6.70834e-07 -5.0247e-07 0.0165168)
(-6.73695e-07 -6.13749e-07 0.0165171)
(0.00304276 -0.000140797 0.0154047)
(-0.000416763 -0.00285989 0.011135)
(0.00236313 -0.00459854 0.0163312)
(0.00231966 -0.00173362 0.0102596)
(-0.00091771 -0.00160822 0.0183447)
(-0.00105975 -0.00130143 0.0141861)
(0.00195121 -0.00180901 0.0144779)
(0.00149506 -0.00370265 0.0193477)
(-0.000746678 -0.000104085 0.0123059)
(0.000827748 0.00187172 0.018148)
(0.00196527 0.00180714 0.0182906)
(0.00120828 0.000312964 0.021666)
(0.00231026 -0.000548892 0.0206542)
(0.00037671 -0.00022446 0.00792825)
(0.00206918 0.0024215 0.023983)
(0.000424501 -0.00107104 0.0190158)
(0.00108582 -0.000664357 0.0533823)
(0.000157406 -0.00034858 0.0566531)
(0.000218854 9.61347e-05 0.0266445)
(-0.000522698 -0.00400468 0.0734545)
(0.00233627 0.0017835 0.0522186)
(0.0017574 0.000374997 0.0268339)
(-0.000411916 0.000186731 0.0304303)
(-0.00271079 -0.00233855 0.0467908)
(0.00201441 0.000717487 0.0367544)
(-0.000320419 0.00146557 0.0353713)
(-0.00125511 0.000429052 0.0291184)
(-0.00116901 -0.000359343 0.0300895)
(0.000895045 7.52234e-05 0.0468022)
(-0.00156105 0.000457924 0.0545655)
(-0.00254701 0.00241329 0.0329221)
(-0.00096071 0.00510846 0.046207)
(-0.00282249 0.00219611 0.0307434)