/*--------------------------------*- C++ -*----------------------------------*\
| =========                 |                                                 |
| \\      /  F ield         | OpenFOAM: The Open Source CFD Toolbox           |
|  \\    /   O peration     | Version:  2506                                  |
|   \\  /    A nd           | Website:  www.openfoam.com                      |
|    \\/     M anipulation  |                                                 |
\*---------------------------------------------------------------------------*/
FoamFile
{
    version     2.0;
    format      ascii;
    arch        "LSB;label=32;scalar=64";
    class       surfaceScalarField;
    location    "0.1";
    object      phi;
}
// * * * * * * * * * * * * * * * * * * * * * * * * * * * * * * * * * * * * * //

dimensions      [0 3 -1 0 0 0 0];

oriented        oriented;

internalField   nonuniform List<scalar> 
3120
(
3.40607e-09
-3.97981e-09
6.37455e-08
-6.78338e-09
-1.14105e-09
-4.95375e-09
5.59788e-08
-2.26011e-09
-7.14924e-09
6.13274e-08
1.27038e-09
1.31231e-08
5.8036e-09
-6.45616e-09
5.82667e-08
-1.46548e-09
-6.36758e-09
-1.11621e-08
7.84346e-08
1.70354e-09
-5.51151e-09
4.9548e-08
2.68044e-09
4.77377e-08
-1.18076e-09
1.50285e-10
4.69627e-08
7.41181e-09
-1.93957e-09
2.25563e-09
4.5802e-08
1.56507e-08
-1.00593e-09
3.67589e-08
-2.18927e-08
1.00068e-07
-6.10771e-09
7.56504e-08
-7.29397e-09
-9.30166e-10
-8.14384e-09
6.52307e-08
-3.23313e-09
6.94968e-11
4.70856e-08
1.09946e-09
4.35228e-08
-4.46891e-09
7.75554e-08
-1.85537e-08
2.94234e-08
-1.22511e-08
-7.27315e-08
-9.2141e-08
3.652e-07
4.73405e-10
-2.30479e-08
2.76101e-08
-2.85845e-08
9.83898e-08
1.31328e-08
-1.17567e-08
4.6094e-08
-7.75705e-09
-1.26462e-08
-2.90412e-08
4.11137e-08
-3.90119e-09
-1.31773e-08
3.09323e-08
-2.88519e-08
4.85775e-08
1.27891e-09
-1.09714e-08
4.2625e-08
2.2734e-09
-3.99382e-09
-1.44828e-08
3.65163e-08
-9.09568e-09
-1.21139e-08
4.07973e-08
-1.24002e-08
7.46993e-08
-1.17096e-08
9.51826e-08
-1.7173e-08
-1.62088e-09
-5.49312e-09
5.01801e-08
-5.64868e-09
-1.72444e-09
4.46615e-08
-1.34584e-08
3.37265e-08
-3.22934e-09
-4.83558e-08
9.27384e-09
4.49378e-08
1.36856e-08
1.8621e-08
-1.53688e-08
3.50408e-07
4.01451e-09
1.66777e-09
3.64481e-08
6.42199e-09
7.36913e-08
4.64281e-09
-1.00355e-08
6.73777e-08
-6.61725e-09
-1.488e-09
-3.95486e-09
3.58306e-08
4.5866e-09
3.91942e-10
2.61336e-08
-5.50106e-09
6.28995e-08
4.58225e-09
9.4064e-10
3.47386e-08
-7.67195e-09
2.38386e-09
-4.13365e-09
3.88935e-08
-2.21152e-09
-4.2413e-09
5.0026e-08
-5.67614e-09
7.2255e-08
-6.47231e-10
8.79205e-08
7.05237e-10
8.14468e-09
1.77087e-09
4.40333e-08
-4.04947e-10
-1.79067e-09
4.80804e-08
-4.09867e-09
2.09044e-08
4.65291e-09
-6.21749e-08
9.24112e-09
6.24842e-08
1.61954e-08
4.41102e-08
5.90259e-08
6.36481e-08
1.21482e-08
8.34417e-09
5.06039e-08
4.27063e-09
9.35819e-08
-3.30568e-09
2.23564e-09
7.24552e-08
5.23367e-09
8.75069e-09
1.3422e-08
6.93781e-08
-3.52665e-09
1.71193e-09
4.50431e-08
2.02466e-08
5.83001e-08
4.58784e-09
1.84941e-10
3.39362e-08
-1.73468e-09
-9.67639e-10
2.19011e-09
5.56809e-08
4.16434e-09
1.00545e-08
3.65515e-08
1.33095e-09
9.62617e-08
6.91418e-09
6.85872e-08
7.89175e-09
4.71224e-09
8.17868e-09
4.3936e-08
1.02293e-09
-3.22802e-09
6.92786e-08
2.62977e-10
1.64559e-08
-1.61585e-09
-3.22733e-09
6.586e-09
4.26491e-08
3.10372e-09
-7.57646e-10
6.82017e-09
5.69247e-08
-2.02138e-09
7.45804e-09
4.7486e-08
6.87346e-09
7.36602e-08
-4.01953e-09
8.46546e-09
7.35865e-08
1.00876e-09
2.22227e-10
1.1768e-08
6.01885e-08
-1.92709e-09
8.58833e-09
4.60621e-08
7.15347e-09
5.03586e-08
-3.28775e-09
9.14765e-09
4.01165e-08
-3.57481e-09
4.72246e-09
6.52156e-09
5.29171e-08
-1.42816e-08
-1.14861e-09
6.52925e-08
1.09744e-08
6.82037e-08
-3.98463e-09
8.98838e-08
1.0015e-09
-9.16574e-09
-2.05128e-09
5.01192e-08
-1.59497e-09
1.77208e-09
5.84725e-08
5.83418e-09
2.73177e-08
-1.15988e-09
-3.9118e-09
8.88978e-10
5.40503e-08
4.69592e-09
1.24153e-09
7.59573e-10
5.14508e-08
-3.01457e-09
-4.36292e-09
6.28961e-08
-3.50422e-09
9.13852e-08
-5.6243e-09
3.36419e-09
7.41401e-08
2.59549e-09
-4.00881e-09
3.42868e-09
5.59039e-08
-1.14931e-09
1.26997e-09
3.75698e-08
1.34035e-09
4.37217e-08
-1.93868e-09
7.71099e-09
4.17845e-08
-4.07613e-09
-9.58628e-09
4.1619e-09
5.98314e-08
2.03612e-09
5.3548e-09
4.95852e-08
5.90626e-09
6.0838e-08
-8.37071e-09
6.95911e-08
3.52908e-08
1.08346e-09
-6.72681e-09
4.26957e-08
9.94146e-09
3.40329e-09
4.23225e-08
1.13747e-08
3.13984e-08
7.67677e-09
1.43352e-09
4.37167e-09
6.02336e-08
-3.14247e-09
3.47243e-10
4.67923e-09
4.95139e-08
3.86493e-09
6.58477e-09
5.28943e-08
3.88234e-09
9.33598e-08
5.39892e-09
1.00771e-08
6.17099e-08
1.32599e-09
3.58093e-09
2.88864e-09
5.95125e-08
6.65729e-10
-1.79516e-10
4.72491e-08
-9.68397e-10
4.98074e-08
-7.64022e-10
3.50598e-09
5.16776e-08
-2.55807e-09
2.26616e-09
5.52776e-09
5.41622e-08
-7.28038e-10
2.20886e-09
5.01905e-08
9.71124e-09
4.95766e-08
4.4786e-09
7.85035e-08
-1.05324e-08
6.47815e-10
2.50767e-09
4.91473e-08
1.04677e-09
5.08327e-09
3.2286e-08
9.66946e-09
4.48861e-08
4.61146e-09
-5.18328e-09
8.93143e-09
4.9775e-08
7.66614e-09
-4.34076e-09
7.68723e-09
4.55644e-08
1.06635e-09
6.56058e-09
4.83108e-08
1.50642e-08
9.75846e-08
-9.5139e-09
1.69166e-08
5.57614e-08
7.47711e-09
-7.02808e-09
1.93693e-08
4.53444e-08
8.17783e-09
2.33324e-08
1.52716e-08
1.9705e-08
5.10302e-08
-6.05234e-09
1.89285e-08
5.07162e-08
5.00166e-09
-5.27732e-09
2.4195e-08
4.85618e-08
1.32805e-09
3.47198e-08
3.21977e-08
3.29496e-08
4.4049e-08
-2.20516e-09
8.7332e-08
1.22211e-08
8.49139e-11
-1.42329e-09
5.20155e-08
2.05453e-08
-9.62436e-09
3.6006e-08
3.92012e-08
4.79526e-08
5.76789e-08
8.67e-09
2.22658e-09
5.45921e-08
-8.6722e-09
1.80538e-09
4.12196e-10
5.34189e-08
-9.01509e-09
1.41684e-09
5.45406e-08
2.35426e-09
7.35714e-08
9.90567e-09
-4.02342e-09
5.54329e-08
-3.32731e-09
9.67947e-09
-5.03406e-09
5.10172e-08
-8.11898e-09
-8.15598e-09
4.2643e-08
-6.09381e-09
5.62238e-08
7.07039e-09
-1.35188e-08
5.63863e-08
-3.24483e-09
6.36197e-09
-8.89339e-09
5.31295e-08
-1.63459e-09
-1.45097e-08
4.65487e-08
-2.47288e-08
5.44085e-08
8.03233e-09
6.96961e-08
-8.79403e-09
4.87818e-09
6.10924e-09
5.7235e-08
-1.21894e-08
7.37973e-09
4.93386e-08
-2.91132e-08
5.59138e-08
-5.66933e-08
3.28296e-09
1.44078e-09
5.76428e-08
-4.61697e-09
1.31591e-11
9.96248e-10
5.68868e-08
-4.48955e-09
1.17713e-09
5.70128e-08
1.71718e-09
6.33346e-08
3.96264e-09
-1.87223e-09
5.70768e-08
-2.29354e-09
2.76914e-09
-2.08045e-09
5.52873e-08
-4.03045e-09
-2.56445e-09
5.31841e-08
-1.80247e-09
5.78521e-08
3.11272e-09
-5.13086e-09
5.83165e-08
-1.78458e-09
2.14612e-09
-4.25926e-09
5.62748e-08
-2.03111e-09
-5.69048e-09
5.38514e-08
-8.04724e-09
5.71495e-08
2.35179e-09
6.25341e-08
-2.67875e-09
2.35803e-09
1.69234e-09
5.86408e-08
-5.00592e-09
-7.56804e-11
5.5767e-08
-1.03511e-08
5.88242e-08
-1.77988e-08
2.04917e-09
1.8603e-10
5.90533e-08
-2.66781e-09
6.55659e-10
9.19191e-11
5.85388e-08
-1.40233e-09
3.63655e-11
5.84463e-08
1.66946e-10
6.04841e-08
2.03409e-09
-1.66267e-09
5.86209e-08
-1.72953e-09
1.14166e-09
-1.60074e-09
5.78723e-08
-1.2983e-09
-1.59896e-09
5.72594e-08
-1.31057e-09
5.88763e-08
1.87867e-09
-2.97387e-09
5.92522e-08
-1.50322e-09
1.20695e-09
-2.96509e-09
5.83108e-08
-6.4451e-10
-3.38765e-09
5.74915e-08
-3.80249e-09
5.865e-08
1.42897e-09
6.06057e-08
-2.50377e-09
2.90531e-11
9.76134e-10
5.94269e-08
-3.29833e-09
-3.10543e-10
5.85587e-08
-4.89275e-09
5.96484e-08
-6.92332e-09
1.21023e-09
-7.10929e-11
5.96517e-08
-1.50455e-09
5.59283e-10
-1.9691e-10
5.93903e-08
-3.36918e-10
-2.68791e-10
5.9304e-08
-2.45833e-10
5.99544e-08
1.04855e-09
-8.96016e-10
5.94296e-08
-1.03245e-09
5.64467e-10
-9.81991e-10
5.91414e-08
-3.94582e-10
-1.00252e-09
5.89524e-08
-8.96073e-10
5.95053e-08
9.27868e-10
-1.40464e-09
5.96604e-08
-8.2752e-10
5.69757e-10
-1.64359e-09
5.93305e-08
-1.75873e-10
-1.84426e-09
5.9079e-08
-1.94104e-09
5.94786e-08
5.39406e-10
6.00665e-08
-1.33437e-09
-7.06041e-11
3.47017e-10
5.97788e-08
-1.80299e-09
-1.39286e-10
5.95599e-08
-2.35918e-09
5.99396e-08
-2.97109e-09
6.73375e-10
-1.62424e-10
5.9939e-08
-8.06309e-10
3.75476e-10
-2.44038e-10
5.98414e-08
-3.87745e-11
-2.92264e-10
5.98023e-08
-3.03684e-10
6.00055e-08
5.56157e-10
-5.4035e-10
5.98294e-08
-5.78221e-10
3.21755e-10
-6.18471e-10
5.97502e-08
-7.13072e-11
-6.48519e-10
5.97019e-08
-6.03698e-10
5.98947e-08
4.81407e-10
-7.832e-10
5.98918e-08
-4.69967e-10
3.00885e-10
-9.28543e-10
5.9821e-08
-1.54386e-11
-1.01814e-09
5.9765e-08
-1.05121e-09
5.99105e-08
2.80661e-10
5.99775e-08
-8.38774e-10
-1.36149e-10
1.85513e-10
5.9972e-08
-1.02641e-09
-1.21e-11
5.99506e-08
-1.21123e-09
6.00984e-08
-1.42149e-09
3.70182e-10
-1.60785e-10
6.0078e-08
-4.31145e-10
2.30126e-10
-2.13133e-10
6.00747e-08
3.41851e-11
-2.45662e-10
6.00752e-08
-2.56841e-10
6.01404e-08
2.97726e-10
-3.32777e-10
6.00179e-08
-3.14182e-10
1.87515e-10
-3.89348e-10
6.00365e-08
1.19124e-11
-4.14886e-10
6.00467e-08
-4.03552e-10
6.01155e-08
2.49374e-10
-4.45615e-10
6.00073e-08
-2.51992e-10
1.65044e-10
-5.30048e-10
6.00461e-08
2.66044e-11
-5.75812e-10
6.00644e-08
-5.94307e-10
6.01227e-08
1.43449e-10
5.99683e-08
-4.90835e-10
-8.89946e-11
1.03698e-10
6.00601e-08
-5.78347e-10
2.05741e-11
6.01062e-08
-6.48234e-10
6.01745e-08
-7.3428e-10
2.05161e-10
-1.32774e-10
6.01467e-08
-2.33494e-10
1.38476e-10
-1.64941e-10
6.01939e-08
4.54312e-11
-1.84971e-10
6.0219e-08
-1.91578e-10
6.02491e-08
1.63632e-10
-2.13295e-10
6.01061e-08
-1.71319e-10
1.12939e-10
-2.48946e-10
6.01712e-08
3.43753e-11
-2.66653e-10
6.0207e-08
-2.65903e-10
6.02416e-08
1.34412e-10
-2.65593e-10
6.00607e-08
-1.35383e-10
9.68089e-11
-3.11783e-10
6.01466e-08
3.76093e-11
-3.37161e-10
6.01942e-08
-3.47154e-10
6.02301e-08
7.89695e-11
5.99677e-08
-2.89078e-10
-5.48253e-11
6.41543e-11
6.00946e-08
-3.31302e-10
3.13863e-11
6.0165e-08
-3.63054e-10
6.02109e-08
-3.99989e-10
1.14627e-10
-1.03093e-10
6.0181e-08
-1.27898e-10
8.22222e-11
-1.22628e-10
6.02551e-08
3.60792e-11
-1.34385e-10
6.02953e-08
-1.37959e-10
6.03183e-08
9.19019e-11
-1.40763e-10
6.01465e-08
-9.44421e-11
6.83174e-11
-1.62237e-10
6.02345e-08
3.11059e-11
-1.73566e-10
6.02833e-08
-1.74712e-10
6.03103e-08
7.45065e-11
-1.63987e-10
6.00828e-08
-7.31742e-11
5.8076e-11
-1.89228e-10
6.019e-08
3.13804e-11
-2.03732e-10
6.02512e-08
-2.09068e-10
6.02826e-08
4.52204e-11
5.99633e-08
-1.7273e-10
-3.20239e-11
4.05831e-11
6.01044e-08
-1.94381e-10
2.76124e-11
6.01853e-08
-2.10878e-10
6.02259e-08
-2.27163e-10
6.46874e-11
-7.78654e-11
6.01981e-08
-7.08143e-11
4.86021e-11
-8.96001e-11
6.02867e-08
2.49211e-11
-9.63639e-11
6.03357e-08
-9.81572e-11
6.03588e-08
5.23017e-11
-9.50232e-11
6.01642e-08
-5.26325e-11
4.11881e-11
-1.07873e-10
6.02639e-08
2.27646e-11
-1.14811e-10
6.03202e-08
-1.15844e-10
6.03466e-08
4.20413e-11
-1.04443e-10
6.00901e-08
-3.96936e-11
3.50064e-11
-1.18498e-10
6.02077e-08
2.25226e-11
-1.26885e-10
6.02759e-08
-1.29658e-10
6.03075e-08
2.64269e-11
5.99564e-08
-1.05711e-10
-1.81987e-11
2.55306e-11
6.01043e-08
-1.1736e-10
2.04936e-11
6.01903e-08
-1.26659e-10
6.02303e-08
-1.33795e-10
3.69156e-11
-5.77751e-11
6.02065e-08
-3.96484e-11
2.8801e-11
-6.48463e-11
6.0303e-08
1.63122e-11
-6.87269e-11
6.03573e-08
-6.96026e-11
6.03817e-08
3.00838e-11
-6.51514e-11
6.01714e-08
-2.96103e-11
2.48043e-11
-7.29012e-11
6.02774e-08
1.5417e-11
-7.70727e-11
6.0338e-08
-7.77392e-11
6.03654e-08
2.39829e-11
-6.82258e-11
6.0091e-08
-2.15226e-11
2.11266e-11
-7.62229e-11
6.0214e-08
1.51857e-11
-8.11205e-11
6.0286e-08
-8.25894e-11
6.03186e-08
1.55348e-11
5.99493e-08
-6.62566e-11
-1.02438e-11
1.58997e-11
6.01006e-08
-7.28388e-11
1.40952e-11
6.01894e-08
-7.83208e-11
6.023e-08
-8.15542e-11
2.13591e-11
-4.22851e-11
6.02105e-08
-2.24654e-11
1.72397e-11
-4.65869e-11
6.03113e-08
1.05421e-11
-4.88889e-11
6.03686e-08
-4.93549e-11
6.03942e-08
1.74976e-11
-4.50859e-11
6.01738e-08
-1.68147e-11
1.50109e-11
-4.98141e-11
6.02832e-08
1.01339e-11
-5.23371e-11
6.03464e-08
-5.27692e-11
6.03747e-08
1.38361e-11
-4.54305e-11
6.00894e-08
-1.1664e-11
1.28063e-11
-5.00478e-11
6.02153e-08
9.94648e-12
-5.29395e-11
6.02895e-08
-5.3767e-11
6.03231e-08
9.18373e-12
5.9943e-08
-4.23849e-11
-5.80803e-12
9.8559e-12
6.00961e-08
-4.62864e-11
9.32417e-12
6.01866e-08
-4.95851e-11
6.0228e-08
-5.12004e-11
1.25596e-11
-3.04264e-11
6.02122e-08
-1.2933e-11
1.04902e-11
-3.31132e-11
6.03154e-08
6.86875e-12
-3.45476e-11
6.03744e-08
-3.48672e-11
6.04008e-08
1.03039e-11
-3.12113e-11
6.01742e-08
-9.62661e-12
9.16352e-12
-3.4133e-11
6.02855e-08
6.61141e-12
-3.56873e-11
6.03501e-08
-3.59962e-11
6.03792e-08
8.08611e-12
-3.05259e-11
6.00873e-08
-6.35661e-12
7.81717e-12
-3.32257e-11
6.02148e-08
6.44385e-12
-3.49527e-11
6.02902e-08
-3.54531e-11
6.03246e-08
5.48668e-12
5.99379e-08
-2.7503e-11
-3.36594e-12
6.11598e-12
6.00922e-08
-2.98588e-11
6.06068e-12
6.01836e-08
-3.18768e-11
6.02256e-08
-3.2759e-11
7.51741e-12
-2.13166e-11
6.02129e-08
-7.57414e-12
6.49395e-12
-2.30138e-11
6.03174e-08
4.5368e-12
-2.39345e-11
6.03774e-08
-2.41719e-11
6.04042e-08
6.16185e-12
-2.12973e-11
6.01738e-08
-5.5838e-12
5.66889e-12
-2.31044e-11
6.02862e-08
4.3462e-12
-2.40642e-11
6.03516e-08
-2.42869e-11
6.03812e-08
4.82152e-12
-2.03517e-11
6.00853e-08
-3.53558e-12
4.84711e-12
-2.19426e-11
6.02137e-08
4.2071e-12
-2.29709e-11
6.02899e-08
-2.32827e-11
6.03247e-08
3.36342e-12
5.99341e-08
-1.78054e-11
-1.99857e-12
3.86583e-12
6.0089e-08
-1.92442e-11
3.96729e-12
6.0181e-08
-2.04841e-11
6.02235e-08
-2.09991e-11
4.61018e-12
-1.42244e-11
6.02131e-08
-4.52641e-12
4.12695e-12
-1.52721e-11
6.03183e-08
3.10112e-12
-1.58442e-11
6.03788e-08
-1.59981e-11
6.0406e-08
3.79992e-12
-1.39519e-11
6.01732e-08
-3.33899e-12
3.62784e-12
-1.50411e-11
6.02862e-08
2.98115e-12
-1.5618e-11
6.03522e-08
-1.57742e-11
6.0382e-08
3.00941e-12
-1.30895e-11
6.00838e-08
-2.09487e-12
3.14374e-12
-1.40134e-11
6.02126e-08
2.87585e-12
-1.46161e-11
6.02892e-08
-1.48159e-11
6.03244e-08
2.19805e-12
5.99315e-08
-1.11608e-11
-1.31293e-12
2.58941e-12
6.00867e-08
-1.20468e-11
2.72693e-12
6.01791e-08
-1.28058e-11
6.02218e-08
-1.3126e-11
3.06183e-12
-8.77204e-12
6.0213e-08
-2.88648e-12
2.90057e-12
-9.38612e-12
6.03186e-08
2.43928e-12
-9.72367e-12
6.03795e-08
-9.82042e-12
6.04069e-08
2.59171e-12
-8.47191e-12
6.01727e-08
-2.20921e-12
2.61428e-12
-9.1009e-12
6.0286e-08
2.36622e-12
-9.44514e-12
6.03522e-08
-9.56067e-12
6.03823e-08
2.13457e-12
-7.79942e-12
6.00827e-08
-1.50698e-12
2.33282e-12
-8.34296e-12
6.02117e-08
2.28575e-12
-8.70871e-12
6.02886e-08
-8.85839e-12
6.0324e-08
1.6718e-12
5.99298e-08
-6.52298e-12
-1.03934e-12
2.01715e-12
6.00852e-08
-7.07023e-12
2.1792e-12
6.01777e-08
-7.53279e-12
6.02207e-08
-7.75538e-12
2.85663e-12
-5.67037e-12
-2.51922e-12
2.99043e-12
-6.05429e-12
2.92962e-12
-6.28886e-12
-6.38571e-12
2.54433e-12
-5.32181e-12
-2.09764e-12
2.78963e-12
-5.74219e-12
2.8519e-12
-6.01231e-12
-6.15002e-12
2.20926e-12
-4.71883e-12
-1.64738e-12
2.5642e-12
-5.13976e-12
2.74338e-12
-5.45435e-12
-5.63934e-12
1.84876e-12
-3.78967e-12
-1.28105e-12
2.30214e-12
-4.26065e-12
2.60178e-12
-4.64085e-12
-4.88167e-12
-6.59397e-09
-5.26503e-09
3.86892e-08
1.48505e-09
1.23592e-09
-4.55411e-09
4.21754e-08
-8.94257e-09
-1.40026e-08
7.99455e-08
-3.54798e-09
5.21022e-08
-6.44604e-09
-9.12755e-09
4.87396e-08
4.74963e-09
2.82657e-09
1.38864e-08
2.81418e-08
-5.23198e-09
6.28831e-09
5.15868e-08
9.31628e-09
4.6611e-08
6.7444e-10
2.1196e-09
3.44818e-08
3.43705e-09
-1.40082e-10
-8.38718e-09
8.69517e-08
-2.17073e-09
6.07973e-09
7.49397e-08
1.98066e-09
7.27716e-08
-3.51367e-09
5.72745e-08
5.06037e-09
4.16828e-09
5.5729e-08
-3.02213e-09
9.50731e-08
6.27203e-08
-1.86204e-09
-3.50132e-09
2.31597e-08
3.71986e-09
-1.28894e-08
-6.36806e-09
5.39221e-08
6.53702e-09
1.9e-10
4.68706e-08
-9.49245e-09
7.53296e-08
1.49619e-10
-2.4764e-09
4.7805e-08
-2.39905e-10
-3.4039e-09
-7.8388e-09
3.31661e-08
3.01301e-11
-1.69028e-09
5.0033e-08
-6.63034e-09
4.48381e-08
-2.17653e-09
-7.21822e-09
4.14931e-08
-9.3012e-11
-3.67259e-09
5.71217e-09
7.48967e-08
-3.7095e-09
-5.07399e-09
7.83604e-08
-3.84027e-09
7.21482e-08
1.80001e-09
4.96339e-08
1.72913e-09
-6.91239e-09
7.11824e-08
-2.30037e-09
8.57715e-08
6.65537e-08
2.03301e-09
-2.27389e-09
2.24848e-08
1.62103e-09
-2.22829e-09
4.95076e-09
5.28277e-08
7.98283e-09
-5.57739e-09
3.81382e-08
-8.27415e-09
9.89027e-08
1.68621e-09
8.03272e-09
3.34145e-08
2.39767e-09
-1.59918e-09
-1.06547e-08
5.20569e-08
9.71049e-10
-2.14718e-09
4.40326e-08
-8.59081e-09
4.93578e-08
-2.40662e-09
5.03141e-09
4.79806e-08
-1.07952e-09
4.73731e-11
1.64584e-09
6.01422e-08
-5.42603e-09
-1.01708e-08
9.18574e-08
6.12448e-09
5.34126e-08
-2.19728e-09
5.77559e-08
-1.31528e-09
-5.56237e-09
7.80203e-08
3.95116e-09
6.59905e-08
8.89947e-08
-2.89818e-09
-9.93551e-09
4.95363e-08
-6.32607e-09
4.14687e-09
4.25996e-09
4.25456e-08
-5.43761e-09
-5.14663e-09
5.31323e-08
8.51047e-09
8.02659e-08
1.78168e-09
-9.13436e-09
3.39964e-08
-3.16471e-09
2.04093e-09
-1.79078e-09
5.78484e-08
2.42946e-09
-4.69055e-09
4.3188e-08
-2.88794e-09
7.09884e-08
2.89411e-09
6.24266e-09
3.23362e-08
-2.62682e-09
-1.38281e-11
-1.56903e-09
6.28283e-08
3.4632e-09
-9.12608e-09
9.28159e-08
9.98456e-10
6.17055e-08
2.00342e-09
6.71497e-08
-3.2776e-09
1.16649e-10
7.87232e-08
6.48853e-09
4.93887e-08
1.03536e-07
-6.38433e-09
-4.6261e-09
6.99174e-08
-8.36907e-09
2.75453e-09
-5.35553e-09
3.71673e-08
2.25259e-09
-4.97812e-11
5.95181e-08
1.35722e-08
6.05647e-08
-2.50462e-09
-5.66257e-09
4.31138e-08
-5.57628e-09
1.71277e-09
2.93882e-09
4.53366e-08
7.58685e-09
-1.8488e-09
3.91129e-08
-8.51266e-10
9.75801e-08
2.20891e-09
1.29135e-09
2.61231e-08
-2.94969e-09
2.83948e-09
1.26448e-09
6.38721e-08
1.08038e-08
-3.50334e-09
8.65061e-08
7.42275e-09
6.43795e-08
2.60505e-09
6.96767e-08
-5.64382e-09
-8.37743e-10
8.1811e-08
1.18966e-08
3.13211e-08
1.36288e-07
-1.4631e-09
-2.55778e-08
1.39023e-07
-6.77397e-09
-8.5171e-11
-2.03217e-09
4.7763e-08
8.72275e-09
6.92236e-09
5.51625e-08
-1.20219e-08
1.20124e-07
-2.7115e-09
-5.83079e-09
3.10383e-08
-4.96017e-09
5.14782e-09
8.06099e-10
3.4639e-08
4.65581e-09
-4.05204e-09
5.05793e-08
5.08674e-08
3.40995e-08
1.84976e-09
-8.05758e-09
2.94671e-08
-2.96701e-09
2.20322e-09
5.82913e-09
5.84956e-08
1.54046e-08
8.69414e-09
6.05586e-08
-3.96049e-08
1.81639e-07
6.24712e-09
5.84668e-08
-3.54278e-09
1.40673e-09
9.25611e-08
6.76617e-10
3.95313e-08
9.90467e-08
2.13712e-08
2.86329e-08
7.37677e-08
4.71862e-09
1.24545e-08
2.30782e-09
5.54189e-08
2.08868e-08
-3.90947e-09
6.03087e-08
-1.76836e-08
1.72409e-07
5.71139e-09
2.50289e-09
5.33942e-08
-1.93684e-09
3.84299e-09
-5.98735e-09
4.48023e-08
7.67586e-09
-1.47033e-09
4.43066e-08
-4.05442e-08
7.30818e-08
3.15317e-09
-9.38846e-09
4.02512e-08
-2.04646e-09
3.40815e-09
-4.98185e-09
5.72351e-08
-1.3175e-09
4.04112e-09
5.97733e-08
1.61471e-08
1.14764e-07
3.17521e-09
4.79318e-08
-5.0648e-10
5.24839e-09
8.46765e-08
2.58967e-09
4.53976e-08
1.08996e-07
1.05137e-08
1.44538e-08
6.60383e-08
-5.01541e-09
1.95408e-08
8.51842e-09
5.84192e-08
2.33546e-08
5.0014e-09
9.06952e-08
2.45612e-09
2.84624e-07
6.12479e-09
5.08927e-09
6.13095e-08
-4.6748e-09
9.96864e-09
-1.50367e-10
4.96273e-08
1.27532e-08
-3.85833e-09
5.03821e-08
-1.40134e-08
1.18225e-07
3.69551e-09
1.23894e-09
4.47132e-08
-4.30695e-09
7.95069e-09
-4.45524e-09
5.72854e-08
5.45406e-09
-3.90648e-09
6.23184e-08
-1.54505e-09
1.13681e-07
2.43562e-09
5.05407e-08
-3.80545e-09
5.3016e-09
7.73554e-08
4.7943e-09
4.19991e-08
1.13278e-07
-2.52471e-09
8.65681e-09
4.50811e-08
6.03244e-09
-1.63281e-08
6.16337e-09
5.38695e-08
-3.27203e-08
1.1039e-08
6.6935e-08
2.51834e-08
1.19235e-07
4.01921e-09
1.38897e-08
4.95934e-08
2.4633e-09
1.15433e-10
3.06958e-09
5.66247e-08
-1.18537e-08
1.12917e-08
6.20989e-08
2.17226e-08
9.29654e-08
6.4882e-10
6.18249e-09
5.01462e-08
1.62606e-09
-4.51305e-10
-2.23514e-09
6.36901e-08
-1.06512e-08
1.28664e-08
7.0943e-08
9.86068e-09
1.04128e-07
8.05916e-10
5.40221e-08
1.89522e-09
3.24577e-09
7.26805e-08
-9.59275e-09
6.7704e-08
1.07276e-07
-1.30199e-09
2.6079e-09
3.90384e-08
2.05775e-09
-4.54408e-09
8.88817e-10
5.12165e-08
-1.00326e-08
7.35495e-10
6.13363e-08
3.40425e-10
7.80522e-08
3.53125e-10
4.98478e-09
4.5816e-08
1.04745e-09
-7.4618e-10
1.06811e-09
5.7544e-08
-6.43306e-09
2.73651e-09
6.57841e-08
1.40065e-09
8.09541e-08
-7.46479e-10
3.85075e-09
5.13387e-08
6.87509e-10
-1.53776e-09
5.48278e-10
6.5001e-08
-6.54194e-09
5.0543e-09
7.36292e-08
1.72871e-09
9.24431e-08
-6.50347e-10
5.78614e-08
6.61534e-10
-6.71595e-10
7.32499e-08
-5.74236e-09
7.78286e-08
9.95804e-08
-5.00821e-10
-7.2664e-10
3.67921e-08
9.70213e-10
-1.28026e-09
-1.1756e-09
4.98732e-08
-2.95268e-09
-1.21331e-09
5.93291e-08
-2.49756e-09
6.70732e-08
-1.02407e-10
2.84008e-10
4.41718e-08
7.36085e-10
-5.02765e-10
-8.28128e-10
5.75967e-08
-2.8382e-09
-1.06172e-10
6.70121e-08
-2.52213e-09
7.60842e-08
-3.14601e-10
2.45648e-10
5.10969e-08
5.94703e-10
-6.74498e-10
-7.38576e-10
6.52714e-08
-2.85465e-09
8.87048e-10
7.4816e-08
-1.12525e-09
8.58801e-08
-2.46135e-10
5.77817e-08
5.71476e-10
-3.71297e-10
7.26363e-08
-2.6315e-09
8.09757e-08
9.37931e-08
-4.68197e-10
-8.16458e-10
3.62493e-08
4.92773e-10
-6.35315e-10
-1.22388e-09
4.94612e-08
-1.01483e-09
-1.37711e-09
5.87264e-08
-2.26802e-09
6.43014e-08
-4.38506e-10
-2.98844e-10
4.36599e-08
4.32931e-10
-5.7472e-10
-7.89472e-10
5.72986e-08
-1.25928e-09
-6.26079e-10
6.69455e-08
-1.85573e-09
7.34575e-08
-4.7435e-10
4.3872e-11
5.08449e-08
3.83806e-10
-5.93058e-10
-3.32753e-10
6.49334e-08
-1.37455e-09
1.74288e-10
7.4797e-08
-8.49999e-10
8.23948e-08
-4.50268e-10
5.79106e-08
3.65235e-10
-5.08456e-10
7.23617e-08
-1.32041e-09
8.19618e-08
9.05177e-08
-2.64295e-10
-6.59473e-10
3.60624e-08
2.71476e-10
-2.79554e-10
-8.7007e-10
4.93201e-08
-3.49027e-10
-9.75939e-10
5.85606e-08
-1.40305e-09
6.35597e-08
-2.82267e-10
-4.2349e-10
4.34453e-08
2.60874e-10
-3.0606e-10
-6.32153e-10
5.70846e-08
-4.79593e-10
-5.8787e-10
6.67309e-08
-1.15073e-09
7.22795e-08
-2.94753e-10
-2.01226e-10
5.06758e-08
2.41689e-10
-3.16486e-10
-3.39953e-10
6.46629e-08
-5.60984e-10
-1.47098e-10
7.46006e-08
-6.09438e-10
8.07534e-08
-2.8381e-10
5.77602e-08
2.33111e-10
-2.91282e-10
7.20292e-08
-5.53686e-10
8.20771e-08
8.87783e-08
-1.55404e-10
-4.22668e-10
3.59938e-08
1.55341e-10
-1.32697e-10
-5.37348e-10
4.92564e-08
-1.19023e-10
-5.96036e-10
5.84948e-08
-7.80282e-10
6.33206e-08
-1.72807e-10
-3.01493e-10
4.33444e-08
1.5259e-10
-1.55627e-10
-4.12212e-10
5.69425e-08
-1.74538e-10
-4.13281e-10
6.65671e-08
-6.579e-10
7.17576e-08
-1.827e-10
-1.53311e-10
5.05655e-08
1.4502e-10
-1.66493e-10
-2.28318e-10
6.44629e-08
-2.12777e-10
-1.75049e-10
7.44087e-08
-3.76368e-10
7.99821e-08
-1.83263e-10
5.76478e-08
1.42491e-10
-1.65025e-10
7.17827e-08
-2.19953e-10
8.1957e-08
8.7877e-08
-8.90886e-11
-2.58757e-10
3.5961e-08
9.11684e-11
-6.44612e-11
-3.19518e-10
4.92201e-08
-3.69904e-11
-3.52709e-10
5.84572e-08
-4.29642e-10
6.32261e-08
-9.88379e-11
-1.95121e-10
4.32898e-08
8.98856e-11
-7.72437e-11
-2.53812e-10
5.68554e-08
-5.95431e-11
-2.65603e-10
6.64625e-08
-3.67607e-10
7.15151e-08
-1.05167e-10
-1.064e-10
5.04961e-08
8.60579e-11
-8.54394e-11
-1.44856e-10
6.43344e-08
-7.92575e-11
-1.32468e-10
7.42696e-08
-2.18065e-10
7.96057e-08
-1.06565e-10
5.75626e-08
8.55217e-11
-8.72818e-11
7.16187e-08
-8.26761e-11
8.18201e-08
8.74113e-08
-5.19778e-11
-1.56521e-10
3.59412e-08
5.50697e-11
-3.26351e-11
-1.89417e-10
4.91959e-08
-9.09664e-12
-2.08466e-10
5.84315e-08
-2.40801e-10
6.31807e-08
-5.64736e-11
-1.20874e-10
4.32565e-08
5.41343e-11
-3.90948e-11
-1.52745e-10
5.68015e-08
-1.78373e-11
-1.64034e-10
6.6397e-08
-2.06707e-10
7.13957e-08
-6.00615e-11
-6.75476e-11
5.04513e-08
5.16947e-11
-4.36762e-11
-8.87083e-11
6.42542e-08
-2.61292e-11
-8.84468e-11
7.41767e-08
-1.24569e-10
7.94165e-08
-6.11751e-11
5.75049e-08
5.14513e-11
-4.53503e-11
7.15142e-08
-2.72779e-11
8.17137e-08
8.71683e-08
-3.13349e-11
-9.58716e-11
3.59278e-08
3.44028e-11
-1.77742e-11
-1.13876e-10
4.9179e-08
-1.26517e-12
-1.24686e-10
5.84133e-08
-1.39072e-10
6.31551e-08
-3.30225e-11
-7.46674e-11
4.32347e-08
3.34994e-11
-2.05618e-11
-9.21366e-11
5.67675e-08
-3.23066e-12
-1.00383e-10
6.63556e-08
-1.18393e-10
7.13332e-08
-3.46465e-11
-4.2307e-11
5.04219e-08
3.18341e-11
-2.29105e-11
-5.38603e-11
6.42043e-08
-7.02812e-12
-5.63585e-11
7.4117e-08
-7.16147e-11
7.93173e-08
-3.5206e-11
5.74663e-08
3.17247e-11
-2.34477e-11
7.14487e-08
-6.58519e-12
8.16406e-08
8.70383e-08
-1.97774e-11
-5.98375e-11
3.59184e-08
2.21921e-11
-1.04621e-11
-7.00208e-11
4.91669e-08
9.89167e-13
-7.64164e-11
5.84002e-08
-8.26042e-11
6.31392e-08
-2.00357e-11
-4.66053e-11
4.32202e-08
2.13508e-11
-1.16659e-11
-5.6317e-11
5.67457e-08
-2.85968e-14
-6.16036e-11
6.63293e-08
-6.97166e-11
7.12978e-08
-2.0574e-11
-2.64969e-11
5.04024e-08
2.01409e-11
-1.26725e-11
-3.28676e-11
6.4173e-08
-8.37018e-13
-3.53149e-11
7.40789e-08
-4.18896e-11
7.92627e-08
-2.06983e-11
5.74406e-08
2.00707e-11
-1.25357e-11
7.14077e-08
5.32236e-14
8.15928e-08
8.69664e-08
-1.29252e-11
-3.81135e-11
3.59117e-08
1.46567e-11
-6.54466e-12
-4.40108e-11
4.91583e-08
1.3148e-12
-4.77791e-11
5.83906e-08
-5.05368e-11
6.31288e-08
-1.25824e-11
-2.95673e-11
4.32103e-08
1.39484e-11
-6.93094e-12
-3.50593e-11
5.67313e-08
1.06192e-12
-3.84608e-11
6.6312e-08
-4.19565e-11
7.12768e-08
-1.25986e-11
-1.67679e-11
5.03894e-08
1.3048e-11
-7.3803e-12
-2.03494e-11
6.41531e-08
6.03801e-13
-2.21853e-11
7.40547e-08
-2.50102e-11
7.92312e-08
-1.24755e-11
5.74235e-08
1.30024e-11
-6.97051e-12
7.13818e-08
1.59049e-12
8.1562e-08
8.69251e-08
-8.59508e-12
-2.46449e-11
3.5907e-08
9.76291e-12
-4.24479e-12
-2.80887e-11
4.91522e-08
1.0477e-12
-3.02746e-11
5.83838e-08
-3.15942e-11
6.31217e-08
-8.0713e-12
-1.90059e-11
4.32035e-08
9.22802e-12
-4.23935e-12
-2.21006e-11
5.67218e-08
1.11855e-12
-2.42145e-11
6.63006e-08
-2.58046e-11
7.12639e-08
-7.87228e-12
-1.07136e-11
5.03808e-08
8.56899e-12
-4.35335e-12
-1.27551e-11
6.41403e-08
1.01743e-12
-1.3974e-11
7.4039e-08
-1.52245e-11
7.92125e-08
-7.65472e-12
5.74121e-08
8.52643e-12
-3.9422e-12
7.13653e-08
1.86962e-12
8.15422e-08
8.69008e-08
-5.63684e-12
-1.59316e-11
3.59037e-08
6.40926e-12
-2.70172e-12
-1.79445e-11
4.91479e-08
8.03697e-13
-1.91897e-11
5.83791e-08
-1.98681e-11
6.31169e-08
-5.13819e-12
-1.22165e-11
4.3199e-08
6.04782e-12
-2.55156e-12
-1.39425e-11
5.67155e-08
9.55803e-13
-1.522e-11
6.62932e-08
-1.60025e-11
7.12558e-08
-4.88626e-12
-6.8428e-12
5.0375e-08
5.58323e-12
-2.53837e-12
-7.99363e-12
6.41321e-08
9.86416e-13
-8.77327e-12
7.4029e-08
-9.35084e-12
7.92011e-08
-4.68262e-12
5.74047e-08
5.54259e-12
-2.18943e-12
7.13548e-08
1.62298e-12
8.15295e-08
8.68861e-08
-3.45289e-12
-1.00079e-11
3.59015e-08
3.995e-12
-1.5076e-12
-1.11755e-11
4.91451e-08
7.58646e-13
-1.18794e-11
5.8376e-08
-1.22577e-11
6.31137e-08
-3.07438e-12
-7.65424e-12
4.3196e-08
3.77121e-12
-1.35159e-12
-8.60785e-12
5.67114e-08
8.93075e-13
-9.35968e-12
6.62884e-08
-9.78044e-12
7.12507e-08
-2.8642e-12
-4.2689e-12
5.03713e-08
3.46247e-12
-1.31986e-12
-4.91384e-12
6.41269e-08
9.5427e-13
-5.40314e-12
7.40226e-08
-5.6765e-12
7.91941e-08
-2.70803e-12
5.73999e-08
3.42381e-12
-1.06818e-12
7.13482e-08
1.35579e-12
8.15215e-08
8.68773e-08
-1.73152e-12
-5.88783e-12
3.59001e-08
2.18749e-12
-4.57546e-13
-6.5636e-12
4.91433e-08
9.85566e-13
-6.97643e-12
5.83739e-08
-7.19842e-12
6.31117e-08
-1.50461e-12
-4.54343e-12
4.31941e-08
2.0676e-12
-3.68092e-13
-5.06791e-12
5.67089e-08
1.04029e-12
-5.5023e-12
6.62854e-08
-5.72748e-12
7.12476e-08
-1.37971e-12
-2.57726e-12
5.0369e-08
1.88637e-12
-3.55102e-13
-2.93019e-12
6.41237e-08
1.05364e-12
-3.20764e-12
7.40188e-08
-3.34703e-12
7.919e-08
-1.2864e-12
5.73969e-08
1.84862e-12
-2.14961e-13
7.13441e-08
1.28948e-12
8.15167e-08
8.68721e-08
-4.60266e-13
-3.51673e-12
1.0261e-12
5.7752e-13
-4.0074e-12
1.72355e-12
-4.33865e-12
-4.52514e-12
-4.10944e-13
-2.7564e-12
9.51579e-13
5.48704e-13
-3.13249e-12
1.67693e-12
-3.42723e-12
-3.57245e-12
-3.85584e-13
-1.50136e-12
8.55666e-13
5.01491e-13
-1.7252e-12
1.61583e-12
-1.90284e-12
-1.99004e-12
-3.39706e-13
7.92289e-13
5.13971e-13
1.63298e-12
1.15818e-08
4.2879e-09
6.2904e-08
-9.93388e-10
2.47794e-09
7.65973e-08
1.22005e-08
3.5276e-09
3.31778e-08
5.88957e-09
5.26479e-08
1.56978e-09
6.79373e-09
7.74657e-08
5.31949e-09
1.0238e-08
6.27255e-08
1.12346e-08
1.99696e-09
6.26027e-08
3.12014e-10
7.35757e-08
-8.55923e-09
-3.7905e-09
9.10397e-08
-3.82886e-09
5.11517e-09
6.50856e-08
5.09546e-09
-1.26091e-09
5.07927e-08
-6.73495e-09
6.86444e-08
7.45752e-09
5.16347e-08
-1.9171e-08
8.64943e-08
-1.00806e-08
3.78975e-08
1.96605e-08
2.87398e-09
-2.34179e-09
5.74836e-08
8.82525e-09
-2.51948e-09
5.62186e-08
-1.89569e-09
-1.34928e-08
3.23564e-08
-9.14719e-09
3.92817e-08
-6.212e-10
2.68936e-09
7.40315e-08
8.65418e-09
-1.42456e-09
5.23552e-08
5.46877e-09
-5.23152e-09
5.75268e-08
-1.24238e-09
6.33826e-08
-1.55778e-08
-7.85627e-09
1.15843e-07
3.88089e-09
-6.11707e-09
5.03194e-08
9.99257e-09
-5.7263e-09
4.51757e-08
-6.62626e-09
8.62942e-08
-6.75201e-10
4.68813e-08
3.6681e-09
7.59409e-08
5.11525e-09
3.04841e-08
2.02485e-08
-4.1526e-09
-1.00521e-08
8.1784e-08
-2.85638e-08
-6.67943e-09
9.59049e-08
-2.58379e-09
-9.5497e-11
6.18931e-08
-1.5334e-08
6.78685e-08
1.63306e-08
1.92253e-09
5.03575e-08
-9.22874e-09
-5.50553e-09
7.67406e-08
-2.44854e-09
-3.08473e-09
5.37358e-08
-2.08441e-09
4.10672e-08
3.55566e-09
2.98805e-09
1.09444e-07
-4.94325e-09
-2.69059e-09
5.60033e-08
4.04985e-09
2.62059e-09
3.04773e-08
-1.72571e-09
8.23134e-08
-4.89454e-09
5.21265e-08
4.45596e-09
6.28203e-08
-4.08832e-10
4.03671e-08
2.78796e-08
-1.66425e-08
-4.71311e-09
1.10424e-07
-3.19164e-08
-4.33496e-09
1.14495e-07
-8.49655e-09
7.54589e-09
5.20655e-08
2.43923e-09
6.71785e-08
-3.42598e-09
-9.01749e-09
5.8657e-08
-5.83783e-09
-2.97931e-09
7.77968e-08
-1.26189e-08
-6.05002e-09
7.41128e-08
-4.57126e-09
4.06925e-08
2.38868e-08
7.96927e-09
7.47423e-08
4.70082e-09
3.65013e-10
7.1845e-08
-3.50285e-09
3.48885e-10
3.2282e-08
6.57974e-09
6.59248e-08
-6.70159e-09
6.35573e-08
4.00184e-09
4.9855e-08
-3.16553e-09
4.47186e-08
2.968e-08
6.80523e-09
-1.40864e-09
1.02393e-07
-1.00711e-08
-6.34344e-09
1.4119e-07
-4.78593e-09
-1.27834e-09
5.07544e-08
2.06913e-09
5.87454e-08
-4.33113e-09
-5.66456e-09
6.74434e-08
-4.69784e-09
-7.3218e-10
7.25522e-08
-3.0818e-09
3.82802e-09
6.73903e-08
4.18339e-09
3.65052e-08
1.63503e-08
3.39159e-09
5.20897e-08
8.08529e-09
-3.53186e-10
7.9731e-08
-2.09587e-09