/*--------------------------------*- C++ -*----------------------------------*\
| =========                 |                                                 |
| \\      /  F ield         | OpenFOAM: The Open Source CFD Toolbox           |
|  \\    /   O peration     | Version:  2506                                  |
|   \\  /    A nd           | Website:  www.openfoam.com                      |
|    \\/     M anipulation  |                                                 |
\*---------------------------------------------------------------------------*/
FoamFile
{
    version     2.0;
    format      ascii;
    arch        "LSB;label=32;scalar=64";
    class       volVectorField;
    location    "0.1";
    object      stored_U;
}
// * * * * * * * * * * * * * * * * * * * * * * * * * * * * * * * * * * * * * //

dimensions      [0 1 -1 0 0 0 0];

internalField   nonuniform List<vector> 
1152
(
(0.00124248 -0.00115931 0.0142894)
(0.000435355 -0.00139996 0.007283)
(0.00121074 -0.0028498 0.0139795)
(0.00104606 0.000273262 0.00491321)
(-0.000134896 0.00192142 0.0337121)
(-0.000881057 -0.000138928 0.020725)
(0.00228823 -0.000691668 0.0160423)
(-0.000140884 0.000612881 0.000403653)
(-0.00111843 0.00154564 0.010759)
(-0.000721877 0.00195567 0.0155511)
(0.00240281 0.00189886 0.0144425)
(0.00405498 -0.00588369 0.0336891)
(0.000239824 0.000906703 0.0119157)
(-0.0054873 0.00381382 0.0247599)
(-0.00106672 0.00225514 0.0141061)
(0.00113163 -0.00276785 0.0185237)
(0.00164602 -0.00231347 0.0490093)
(-0.000272092 -0.00142249 0.0342997)
(0.00417942 -0.00178959 0.0474053)
(-0.00115532 -0.000553858 0.00455749)
(0.000735503 -0.0022229 0.0175896)
(0.000438431 -0.00791898 0.0544884)
(0.00185272 -0.00274898 0.0367857)
(-0.000517487 -0.00823631 0.0392746)
(-1.72564e-05 -0.000907815 0.0476452)
(-0.000612004 -0.00219026 0.0364884)
(-0.000686808 -0.00194244 0.027981)
(-0.000785566 -0.00805117 0.0690625)
(-0.00145 -0.00431505 0.0736717)
(-0.00408966 -0.00100945 0.0497121)
(-0.000817832 -0.00445782 0.0392983)
(2.05095e-05 -0.00112109 0.0315342)
(-0.00532892 -0.00169615 0.0438193)
(0.000224684 3.75159e-05 0.010112)
(0.000789416 -0.00184591 0.0382603)
(0.00381374 -0.00489902 0.0448803)
(0.000796116 -0.00762027 0.0714115)
(-0.000537273 -0.00113586 0.0325108)
(0.000117089 0.000141536 0.0206078)
(0.00460322 -0.000394955 0.0507674)
(0.0014425 -0.00332726 0.0300063)
(0.0020944 -0.00219751 0.0343066)
(0.000411045 7.19136e-06 0.0490817)
(-0.000744353 -0.00333957 0.0400085)
(-0.00725935 0.00149485 0.0800668)
(0.0015716 -0.00139448 0.0200515)
(0.000536907 -0.00172634 0.0351383)
(0.000563048 -0.000262402 0.0184987)
(-0.00226019 -0.00299035 0.0469112)
(-0.00057056 0.000846651 0.0394833)
(-0.00123238 -0.00030589 0.0352799)
(-0.0157627 -0.00583545 0.0761384)
(-0.000209372 -0.000908952 0.047333)
(0.00212406 0.00359083 0.0503655)
(-0.0018058 0.000667505 0.0319391)
(-0.00714892 0.00223986 0.0559805)
(0.00177306 -0.000775071 0.0290685)
(0.000860942 7.36277e-05 0.0370131)
(-0.000401636 0.00212084 0.0341346)
(0.000841958 0.00500973 0.0718829)
(-0.000261118 0.00406167 0.0390535)
(0.00496401 -0.00189391 0.0486036)
(-0.000110012 0.00395875 0.0422579)
(0.000510987 -0.000492015 0.0147994)
(-0.000109336 -0.00261186 0.0407553)
(-0.00103704 0.00195486 0.03423)
(-0.00242526 0.00249837 0.0457956)
(0.0205374 0.00399574 0.0638453)
(-0.00105395 0.0037991 0.0607947)
(-0.0014504 0.00188702 0.0549962)
(-0.00193728 0.00353413 0.0418779)
(0.000713065 0.00119628 0.0252178)
(0.000389794 0.00295616 0.0321153)
(-0.000653504 0.0036681 0.0552226)
(-0.00153396 0.000632033 0.0274202)
(-0.00350542 0.00682659 0.0713406)
(0.00253355 0.00228531 0.0617771)
(-4.59838e-05 2.70598e-05 0.0246784)
(-0.00195706 0.000832666 0.0629453)
(-0.000360783 -0.000224858 0.0174298)
(-0.000737123 0.00107852 0.0199915)
(-0.00248223 -0.000362447 0.0414199)
(-0.00215091 0.000907618 0.0258203)
(-0.00155872 0.000848161 0.0164942)
(-0.00279462 0.000220387 0.0383921)
(-0.00246077 0.00111895 0.0296189)
(-0.00195221 -0.000961033 0.0286266)
(-0.0016834 0.000903499 0.0408372)
(0.000121563 0.00163804 0.0303704)
(-0.000863941 0.00170993 0.0233981)
(-0.0046639 0.00143791 0.0490556)
(0.00170248 0.0028955 0.0277949)
(-0.00586811 0.0192337 0.0538267)
(-0.00453983 0.00512021 0.0383688)
(-7.39375e-05 0.00255378 0.0221221)
(0.000224632 0.00915063 0.0265311)
(0.000712427 0.00237256 0.0217362)
(0.000965345 0.00154741 0.0271029)
(0.000344871 0.0016996 0.0306811)
(0.000486055 0.00223317 0.0359953)
(0.000519644 0.0023246 0.0361095)
(0.0021288 0.00175816 0.0294312)
(0.00149751 0.00165451 0.0231842)
(0.000162718 0.00122451 0.0240339)
(0.000311153 0.00240158 0.0220915)
(0.000225563 0.00264055 0.0292711)
(0.000387095 0.00169369 0.0216752)
(-0.000573579 0.00303825 0.0351435)
(0.000813249 -0.000708959 0.0352038)
(0.00156331 0.00129245 0.0224437)
(0.00336773 0.00304135 0.0268249)
(-0.00131893 0.0036753 0.0190647)
(-0.00159964 0.000779648 0.0197696)
(-0.00179486 0.00144527 0.0202625)
(-0.000479692 0.00121418 0.0153042)
(0.000657012 0.0037756 0.056188)
(-0.00228083 0.00261824 0.0318409)
(-0.00280301 0.0023835 0.0164752)
(-0.000173258 0.00253386 -0.00729594)
(0.0011981 0.00238164 0.0185542)
(-0.00171588 0.00419806 0.0206531)
(-0.00193765 0.00495536 0.0273831)
(-0.00106643 0.00661862 0.0145272)
(-0.0018089 0.00421991 0.0301448)
(-0.000911908 0.00379343 0.0517107)
(-0.000854073 0.00426321 0.027807)
(-0.00100472 0.0073681 0.0191963)
(-0.00950893 0.0111006 0.0302079)
(0.00203451 0.00120585 0.0134384)
(0.00205056 -0.000166951 0.0141223)
(-0.00185063 -0.000506141 0.0162876)
(-0.00124403 -0.000957756 0.0236549)
(0.0012829 -0.000598343 0.01398)
(0.00351976 -0.000561068 0.0135878)
(-0.000321583 -0.000144499 0.0129323)
(-0.0022 0.000878607 0.0158811)
(0.00133424 -0.00291191 0.0137362)
(0.00233105 -0.00226251 0.0130884)
(-0.0005737 -0.00350066 0.0112715)
(0.00120576 -0.00323753 0.0124949)
(0.000873633 -0.00454381 0.0188753)
(0.00255754 -0.00415143 0.0135628)
(-0.00147987 -0.0077935 0.0100761)
(0.00782121 -0.0154951 0.01014)
(0.00097016 0.000566518 0.0202856)
(0.000772848 9.95398e-05 0.0197586)
(-0.00092416 -0.000203943 0.0197152)
(-0.000598023 -0.000324132 0.0230887)
(0.000682107 -0.000293195 0.020301)
(0.00122921 -0.000218796 0.0192687)
(-0.000372897 -3.8443e-05 0.017777)
(-0.000890807 0.000378527 0.0203368)
(0.00058554 -0.00134826 0.0210747)
(0.000904847 -0.00123123 0.0199399)
(-0.000423148 -0.00159769 0.0185391)
(0.000112407 -0.00148469 0.0200842)
(4.15794e-05 -0.001655 0.0236802)
(0.000772393 -0.00184653 0.0213603)
(-0.000739678 -0.00295791 0.0198558)
(0.00129444 -0.00461066 0.0212888)
(0.000601298 8.72251e-05 0.0194015)
(0.000457277 -6.69512e-05 0.019223)
(-0.000218213 -0.000229087 0.0192031)
(-0.000191515 -0.00029801 0.0203955)
(0.000463359 -0.00032877 0.0192563)
(0.000513739 -0.000314508 0.0189085)
(-0.000103518 -0.000268878 0.0184973)
(-0.000270453 -0.000125515 0.0194382)
(0.000425204 -0.000849603 0.0195434)
(0.000456103 -0.000835833 0.0191476)
(-8.09944e-05 -0.000911833 0.0187366)
(1.9741e-05 -0.000845794 0.0194203)
(0.000184195 -0.00100259 0.0202688)
(0.000359242 -0.00109379 0.0196866)
(-0.000173471 -0.00137496 0.0193093)
(0.000272874 -0.00169281 0.0199634)
(0.0003503 -4.58627e-05 0.0199741)
(0.00026765 -0.000109264 0.0198598)
(-4.90413e-06 -0.000179873 0.0198175)
(-4.69004e-05 -0.000223522 0.0201794)
(0.00026552 -0.00021938 0.0199118)
(0.000243098 -0.000244628 0.0197665)
(-3.06567e-06 -0.000246735 0.0196491)
(-7.74253e-05 -0.000205222 0.019941)
(0.000218882 -0.000440177 0.0200752)
(0.000210663 -0.000482689 0.0199072)
(7.52644e-06 -0.000514819 0.0197745)
(8.37247e-06 -0.000488405 0.0199906)
(6.11896e-05 -0.000497341 0.0203627)
(0.000127103 -0.000590698 0.0201834)
(-3.78593e-05 -0.000690782 0.0200733)
(7.21229e-05 -0.000778802 0.0202815)
(0.000195096 -7.84541e-05 0.020124)
(0.000153247 -0.000107849 0.020073)
(4.55077e-05 -0.000138101 0.020047)
(2.02169e-06 -0.000158427 0.0201527)
(0.000147466 -0.000156315 0.0200942)
(0.000126998 -0.000180115 0.0200487)
(3.1897e-05 -0.000190017 0.0200149)
(-9.77742e-06 -0.000181082 0.02011)
(0.000120292 -0.000257579 0.0201542)
(0.00010742 -0.000288384 0.0201132)
(3.23039e-05 -0.000304757 0.0200798)
(1.62673e-05 -0.000297696 0.0201511)
(4.5624e-05 -0.000293693 0.0202338)
(6.26741e-05 -0.000338233 0.0202213)
(9.10545e-06 -0.000375826 0.0202079)
(3.4686e-05 -0.00040949 0.0202813)
(0.000108182 -7.42361e-05 0.0201875)
(8.86271e-05 -9.00709e-05 0.0201747)
(4.47575e-05 -0.000104303 0.0201663)
(1.57423e-05 -0.000113204 0.0201967)
(8.13666e-05 -0.000110319 0.0201749)
(7.07698e-05 -0.00012771 0.0201714)
(3.43365e-05 -0.000136832 0.0201666)
(1.06867e-05 -0.000136846 0.0201978)
(6.47091e-05 -0.000156092 0.0201953)
(5.76417e-05 -0.000176389 0.0201998)
(3.0596e-05 -0.000187018 0.0201989)
(1.8977e-05 -0.000187313 0.0202235)
(2.62605e-05 -0.000174282 0.0202108)
(3.26859e-05 -0.000197773 0.0202371)
(1.7552e-05 -0.000215235 0.0202485)
(2.50834e-05 -0.000230471 0.0202774)
(6.09782e-05 -6.08835e-05 0.020221)
(5.22418e-05 -7.00662e-05 0.0202301)
(3.34549e-05 -7.74092e-05 0.0202333)
(1.67283e-05 -8.15629e-05 0.0202433)
(4.59378e-05 -7.83422e-05 0.0202143)
(4.15176e-05 -8.96488e-05 0.0202312)
(2.71905e-05 -9.6107e-05 0.0202389)
(1.46951e-05 -9.76646e-05 0.020251)
(3.58819e-05 -9.8907e-05 0.0202136)
(3.31145e-05 -0.000111231 0.0202386)
(2.35665e-05 -0.000118163 0.0202511)
(1.73898e-05 -0.000119893 0.020263)
(1.60131e-05 -0.000106806 0.0201984)
(1.9417e-05 -0.000119141 0.0202399)
(1.61675e-05 -0.00012853 0.0202616)
(1.9492e-05 -0.000136035 0.0202777)
(3.50297e-05 -4.73407e-05 0.0202371)
(3.13147e-05 -5.28967e-05 0.020258)
(2.29955e-05 -5.69653e-05 0.020268)
(1.39128e-05 -5.90722e-05 0.0202741)
(2.65648e-05 -5.58492e-05 0.0202313)
(2.51314e-05 -6.28931e-05 0.020258)
(1.9451e-05 -6.70613e-05 0.0202718)
(1.3122e-05 -6.84341e-05 0.0202796)
(2.04416e-05 -6.47037e-05 0.0202192)
(1.98688e-05 -7.21036e-05 0.0202532)
(1.68536e-05 -7.65457e-05 0.0202717)
(1.40577e-05 -7.80405e-05 0.020281)
(9.88675e-06 -6.72239e-05 0.020189)
(1.22438e-05 -7.39038e-05 0.0202359)
(1.26425e-05 -7.9378e-05 0.0202619)
(1.47809e-05 -8.32686e-05 0.0202748)
(2.05619e-05 -3.58952e-05 0.0202445)
(1.91323e-05 -3.93581e-05 0.0202718)
(1.54107e-05 -4.17234e-05 0.0202859)
(1.05963e-05 -4.28314e-05 0.020292)
(1.57564e-05 -3.99297e-05 0.0202377)
(1.55622e-05 -4.42866e-05 0.0202694)
(1.34073e-05 -4.68948e-05 0.0202865)
(1.02929e-05 -4.78466e-05 0.020294)
(1.19636e-05 -4.33701e-05 0.020219)
(1.22748e-05 -4.78708e-05 0.0202572)
(1.17028e-05 -5.06767e-05 0.0202787)
(1.06154e-05 -5.17182e-05 0.0202881)
(6.20919e-06 -4.34117e-05 0.0201805)
(7.92807e-06 -4.71497e-05 0.0202297)
(9.27438e-06 -5.04937e-05 0.0202578)
(1.08341e-05 -5.25624e-05 0.0202703)
(1.23462e-05 -2.6781e-05 0.0202477)
(1.19164e-05 -2.89899e-05 0.0202785)
(1.02726e-05 -3.04165e-05 0.0202951)
(7.75745e-06 -3.10209e-05 0.0203019)
(9.55343e-06 -2.85615e-05 0.0202394)
(9.81053e-06 -3.12852e-05 0.0202738)
(9.11832e-06 -3.29094e-05 0.0202929)
(7.63427e-06 -3.35248e-05 0.0203009)
(7.15135e-06 -2.9567e-05 0.0202167)
(7.73941e-06 -3.23524e-05 0.0202571)
(8.0277e-06 -3.4122e-05 0.0202803)
(7.72237e-06 -3.48195e-05 0.0202902)
(3.91773e-06 -2.86397e-05 0.0201734)
(5.19646e-06 -3.07937e-05 0.0202238)
(6.58206e-06 -3.2878e-05 0.020253)
(7.74141e-06 -3.4081e-05 0.0202658)
(7.56818e-06 -1.96998e-05 0.0202489)
(7.54733e-06 -2.1135e-05 0.0202816)
(6.851e-06 -2.2024e-05 0.0202997)
(5.57344e-06 -2.238e-05 0.0203072)
(5.90593e-06 -2.0377e-05 0.0202392)
(6.27545e-06 -2.21031e-05 0.0202751)
(6.16878e-06 -2.31192e-05 0.0202954)
(5.50469e-06 -2.35117e-05 0.020304)
(4.36162e-06 -2.03588e-05 0.0202139)
(4.9583e-06 -2.21073e-05 0.0202556)
(5.47382e-06 -2.32296e-05 0.0202797)
(5.50084e-06 -2.36921e-05 0.0202901)
(2.48129e-06 -1.91974e-05 0.0201677)
(3.4347e-06 -2.04602e-05 0.0202188)
(4.58822e-06 -2.17764e-05 0.0202486)
(5.44357e-06 -2.25238e-05 0.0202618)
(4.71655e-06 -1.42341e-05 0.0202492)
(4.83677e-06 -1.51778e-05 0.020283)
(4.56655e-06 -1.57452e-05 0.020302)
(3.94705e-06 -1.5974e-05 0.02031)
(3.69811e-06 -1.4403e-05 0.0202384)
(4.05067e-06 -1.55086e-05 0.0202751)
(4.15445e-06 -1.61481e-05 0.0202961)
(3.89421e-06 -1.63965e-05 0.0203051)
(2.70291e-06 -1.40246e-05 0.0202114)
(3.21074e-06 -1.51289e-05 0.0202537)
(3.71347e-06 -1.58424e-05 0.0202784)
(3.8587e-06 -1.6146e-05 0.0202893)
(1.58233e-06 -1.29367e-05 0.0201633)
(2.28473e-06 -1.36918e-05 0.0202148)
(3.16219e-06 -1.45286e-05 0.0202451)
(3.78168e-06 -1.50085e-05 0.0202586)
(2.96046e-06 -9.98581e-06 0.020249)
(3.10797e-06 -1.06033e-05 0.0202835)
(3.02214e-06 -1.09672e-05 0.020303)
(2.74182e-06 -1.11196e-05 0.0203114)
(2.32606e-06 -9.94444e-06 0.0202374)
(2.61791e-06 -1.06506e-05 0.0202747)
(2.77315e-06 -1.10527e-05 0.0202961)
(2.69979e-06 -1.12061e-05 0.0203054)
(1.69165e-06 -9.50307e-06 0.0202094)
(2.08664e-06 -1.01993e-05 0.0202521)
(2.49586e-06 -1.06509e-05 0.0202772)
(2.65979e-06 -1.0848e-05 0.0202883)
(1.02376e-06 -8.61729e-06 0.0201601)
(1.52011e-06 -9.07348e-06 0.0202119)
(2.15112e-06 -9.60372e-06 0.0202424)
(2.58766e-06 -9.91559e-06 0.0202562)
(1.84483e-06 -6.6215e-06 0.0202488)
(1.97953e-06 -7.01152e-06 0.0202836)
(1.97071e-06 -7.24008e-06 0.0203034)
(1.85588e-06 -7.3405e-06 0.0203121)
(1.45703e-06 -6.51482e-06 0.0202366)
(1.67965e-06 -6.95264e-06 0.0202742)
(1.82146e-06 -7.20314e-06 0.0202958)
(1.82288e-06 -7.29813e-06 0.0203054)
(1.06466e-06 -6.14191e-06 0.0202079)
(1.3519e-06 -6.57095e-06 0.0202508)
(1.6476e-06 -6.85326e-06 0.0202761)
(1.78798e-06 -6.98183e-06 0.0202875)
(6.72039e-07 -5.49744e-06 0.0201579)
(1.00964e-06 -5.77318e-06 0.0202098)
(1.43377e-06 -6.10369e-06 0.0202405)
(1.72877e-06 -6.30516e-06 0.0202544)
(1.13951e-06 -3.92771e-06 0.0202486)
(1.25095e-06 -4.15367e-06 0.0202836)
(1.27457e-06 -4.28921e-06 0.0203036)
(1.2359e-06 -4.35394e-06 0.0203124)
(9.19168e-07 -3.82503e-06 0.0202361)
(1.078e-06 -4.07719e-06 0.0202737)
(1.18453e-06 -4.22826e-06 0.0202956)
(1.21103e-06 -4.29061e-06 0.0203053)
(6.94655e-07 -3.56766e-06 0.0202069)
(8.87923e-07 -3.8182e-06 0.0202499)
(1.07804e-06 -3.98838e-06 0.0202754)
(1.18172e-06 -4.0718e-06 0.0202869)
(4.81051e-07 -3.16241e-06 0.0201565)
(6.90265e-07 -3.32737e-06 0.0202084)
(9.50823e-07 -3.52324e-06 0.0202392)
(1.13734e-06 -3.64742e-06 0.0202533)
(8.11865e-07 -1.99947e-06 0.0202484)
(9.10369e-07 -2.11432e-06 0.0202835)
(9.54612e-07 -2.18726e-06 0.0203037)
(9.50566e-07 -2.2239e-06 0.0203126)
(6.9823e-07 -1.91553e-06 0.0202356)
(8.18833e-07 -2.04827e-06 0.0202734)
(9.01426e-07 -2.13617e-06 0.0202954)
(9.33357e-07 -2.18014e-06 0.0203052)
(5.74659e-07 -1.75176e-06 0.0202062)
(7.15235e-07 -1.8927e-06 0.0202493)
(8.36471e-07 -1.99494e-06 0.0202749)
(9.08286e-07 -2.05295e-06 0.0202865)
(4.4793e-07 -1.50865e-06 0.0201556)
(6.03639e-07 -1.63153e-06 0.0202076)
(7.59745e-07 -1.75008e-06 0.0202385)
(8.73598e-07 -1.82819e-06 0.0202526)
(-0.00103493 -0.000959132 0.0301601)
(0.000120774 -0.00135264 0.00816326)
(-0.000383461 0.000438158 0.0351751)
(-0.000245527 -0.0004498 0.00211891)
(-0.00244853 -0.00279513 0.0184734)
(-0.000105161 0.000325151 0.00680468)
(0.000265448 0.000619349 0.0154891)
(0.000799665 0.00121979 0.0120997)
(-0.000739068 -0.00127222 0.0153705)
(0.000723596 0.00403467 0.0248914)
(-0.000555661 0.00354874 0.0179009)
(0.00107865 0.00227003 0.0104191)
(-0.00266528 -0.000840546 0.0262337)
(0.00128627 -0.000557342 0.0103192)
(0.000495738 0.00174339 0.0194051)
(0.00224003 -0.000276523 0.0190066)
(-0.000137137 -0.00231859 0.0340466)
(-0.00316332 -0.00129407 0.0557052)
(0.000438609 -0.00179266 0.0413319)
(-0.000651019 -0.0010381 0.0545699)
(0.00133008 0.00147561 0.0590394)
(0.000328463 -0.00161103 0.0341182)
(-0.000200467 0.000930138 0.0385015)
(0.00059852 -0.00212365 0.0356267)
(0.000467238 -0.00100894 0.0339051)
(-0.00139057 -2.13629e-05 0.0627371)
(-0.000157706 -0.000791135 0.0515085)
(-0.0024447 -0.00182083 0.0556705)
(0.00185426 -0.0015877 0.0343945)
(-0.000781298 0.000583033 0.0472748)
(-0.00156386 -0.00127156 0.0573644)
(-0.00131485 -0.000261967 0.0326848)
(0.00124381 -0.000554791 0.0350384)
(-0.000607 0.00577838 0.0582613)
(0.00200616 -0.00261152 0.0352715)
(0.00737926 0.004449 0.0648434)
(0.000635509 0.000485054 0.0175219)
(0.00104369 -0.00110113 0.0204645)
(0.000579749 -0.00191478 0.0153129)
(0.000547717 -0.00417721 0.0308566)
(-0.00249885 0.00406525 0.048407)
(0.000999337 -0.00316428 0.0402081)
(-0.000821593 -0.00173882 0.0470866)
(-0.00167851 -0.00187508 0.0249647)
(-0.000207794 0.000926658 0.0475034)
(-0.00296643 -0.00071377 0.0507392)
(0.00122924 -0.00159176 0.031346)
(-0.00199415 0.00291529 0.0459888)
(0.000984348 0.000457631 0.0209046)
(0.0012901 0.000363891 0.0365037)
(0.000158968 -0.00153522 0.0248475)
(-0.0032628 0.00609659 0.0717364)
(0.00439232 -0.0050713 0.0508649)
(0.00105389 0.00326061 0.0598237)
(0.00158594 -0.0023909 0.0414271)
(-0.00111404 -0.000395259 0.0375209)
(0.00253202 0.000920892 0.0395765)
(0.000894857 1.61945e-05 0.0421388)
(0.00188512 -0.00326594 0.0593281)
(-0.00150275 -0.000294824 0.0425733)
(0.00119947 0.002821 0.0404224)
(0.000555153 0.000401023 0.0392864)
(0.00274553 -0.000838544 0.043027)
(-8.60234e-05 0.00096475 0.0447415)
(5.14772e-05 -0.00096116 0.0906613)
(-0.000157667 -0.00323769 0.0492075)
(0.00271615 2.75597e-05 0.0586587)
(-0.000354187 0.00415077 0.0568592)
(0.00238029 -0.000659447 0.01899)
(0.000316443 -0.000693006 0.0409176)
(0.0034097 -0.00155479 0.0295467)
(9.89404e-05 0.00255852 0.0546466)
(0.0029422 -0.00058587 0.0279584)
(0.00194662 0.00218171 0.0542021)
(0.0034035 -0.00227034 0.0579766)
(0.0014682 0.00165973 0.0379316)
(0.00161967 0.00308993 0.0628339)
(-0.000532154 0.000427553 0.0685195)
(0.00123423 -0.000339302 0.0222186)
(-0.00216078 0.00463954 0.0594904)
(0.00204024 0.000912624 0.0129636)
(-0.000197014 -0.00017676 0.0162634)
(0.00575843 0.00637267 0.0335598)
(0.000585655 -0.000344634 0.00985055)
(0.00563576 -0.0132704 0.0424895)
(0.00200568 -0.000715706 0.0285708)
(0.00113355 -1.41047e-05 0.0218118)
(0.00223761 0.000324396 0.0510227)
(0.00352903 -0.000333018 0.0228611)
(0.00100772 0.00108507 0.0296689)
(0.00558833 0.00125926 0.0368356)
(0.00062887 0.00103362 0.0100624)
(0.00527011 0.000629214 0.0343728)
(0.00253542 0.00220995 0.0271573)
(0.000374179 0.000337687 0.0155646)
(1.92347e-05 -0.00983806 0.054361)
(0.00248536 0.00472838 -0.0152017)
(0.00490254 0.00162502 0.0238668)
(0.00435141 0.00254246 0.0289027)
(0.00307606 -0.00348687 -0.0534181)
(0.00219574 0.00273296 0.0261687)
(0.00307668 -0.000696598 0.0210292)
(0.00365662 -0.00199509 0.0237715)
(0.000961255 -0.00375994 0.0196436)
(0.00340663 0.00023678 0.0172854)
(0.00235591 -0.00190014 0.0289425)
(0.00244543 -0.00038842 0.0291001)
(0.0027021 -0.00623052 -0.00661921)
(0.00209205 -0.000649021 0.0299673)
(0.00191363 -0.000352657 0.0394656)
(0.000969687 3.70772e-05 0.014039)
(0.000317418 0.000967061 0.0403515)
(-4.76592e-05 0.00319633 0.0723284)
(0.00162001 0.00375503 0.0444614)
(0.00535132 0.00529732 0.0640282)
(-0.00231974 0.0069797 0.214845)
(0.000568709 0.00146285 0.0505906)
(0.00130769 0.000803236 0.0289378)
(0.00328253 1.80268e-05 0.024837)
(-0.000155778 -0.000481945 0.0653595)
(0.000719078 0.000159952 0.0237396)
(0.00125161 -0.000895665 0.0326513)
(0.00288816 -0.000941161 0.0310892)
(0.000274503 -0.00216705 0.0561173)
(0.000467447 0.000372602 0.0309404)
(0.000632538 -0.000480428 0.0401974)
(0.00164047 -0.000293888 0.0141123)
(0.000419705 -0.00169898 0.0478052)
(-0.00104301 -0.000446767 0.0207992)
(-0.00134674 -0.00105016 0.0152864)
(-0.012209 -0.00328891 0.0130739)
(0.00315467 -0.00437706 0.0231708)
(-0.00150553 0.00265237 0.0175907)
(0.00126122 0.0023047 0.0131626)
(-0.00500886 0.00389572 0.0111607)
(-0.000206383 0.00991347 0.0153753)
(-0.00182114 0.00146904 0.0132919)
(0.00133712 0.000192322 0.0130553)
(-0.00333343 0.00148677 0.0126794)
(-0.000438947 0.002002 0.0183662)
(-0.00128863 -0.000317054 0.0122194)
(0.00196654 0.000360838 0.0141307)
(-0.00207378 0.00101142 0.0104971)
(-0.00122573 0.000446888 0.0181704)
(-0.000701953 -0.000299356 0.0251214)
(-0.000532161 -0.000727332 0.0235912)
(-0.00330145 -0.00153124 0.0246254)
(0.000683793 -0.00230773 0.0325144)
(-0.000936153 0.000716453 0.0242046)
(4.19972e-05 0.000546953 0.0226823)
(-0.0021656 0.00071727 0.0222092)
(-0.000532015 0.0011107 0.0271344)
(-0.00112214 0.000504255 0.0227739)
(2.34137e-05 0.000121542 0.0225372)
(-0.00204522 0.000448954 0.0219751)
(-0.000518606 0.000108473 0.0270965)
(-0.000839317 -0.000168497 0.0220908)
(0.000318404 0.000159576 0.0227366)
(-0.00157799 0.000264033 0.0204099)
(-0.000707533 0.000130617 0.02601)
(-0.000123347 -0.000563754 0.0205904)
(1.96175e-05 -0.000726516 0.0204115)
(-0.000735584 -0.000994349 0.0207561)
(0.000182291 -0.00140559 0.0227438)
(-0.000295171 -0.000167404 0.0203022)
(7.60075e-05 -0.00020237 0.020143)
(-0.000760621 -0.000230079 0.020171)
(-0.000189811 -0.000587496 0.0220194)
(-0.000382932 -0.000145192 0.0198315)
(8.1073e-05 -0.000153312 0.0200334)
(-0.000847082 -5.04046e-05 0.019983)
(-0.000218768 -0.000390177 0.022234)
(-0.000358093 -0.000251389 0.0194377)
(0.000168203 -1.13778e-05 0.0198701)
(-0.000742763 -3.45871e-05 0.019247)
(-0.000288961 -0.000132812 0.0217238)
(-7.27011e-05 -0.00038515 0.0205322)
(-1.35034e-06 -0.000497271 0.0204923)
(-0.000197993 -0.000609261 0.0205601)
(5.13786e-05 -0.000801831 0.021046)
(-0.000174435 -0.000239534 0.020479)
(-4.11934e-05 -0.000290431 0.0204921)
(-0.000313137 -0.000326017 0.0205213)
(-5.68439e-05 -0.000560355 0.0211806)
(-0.000246 -0.000175296 0.0203301)
(-6.50967e-05 -0.000167954 0.0204414)
(-0.00040828 -0.00012358 0.0204097)
(-9.31261e-05 -0.000306248 0.0212984)
(-0.000254591 -0.000182024 0.0201767)
(-4.8415e-05 -6.44832e-05 0.0203447)
(-0.000406071 -6.21725e-05 0.0201106)
(-0.000120362 -0.000100679 0.0211524)
(-1.83065e-05 -0.000260455 0.0202736)
(1.41341e-05 -0.000310837 0.0203243)
(-4.71298e-05 -0.000354733 0.0203714)
(3.03024e-05 -0.000435294 0.0205231)
(-7.39649e-05 -0.000196726 0.0202258)
(-1.7224e-05 -0.000222457 0.0203234)
(-0.000111319 -0.000240508 0.020384)
(-2.36861e-06 -0.000346928 0.0206476)
(-0.000115836 -0.000154586 0.0201206)
(-3.88029e-05 -0.000143078 0.020258)
(-0.000166412 -0.000125285 0.0202963)
(-2.24626e-05 -0.00020691 0.0206762)
(-0.000137189 -0.000127158 0.0199731)
(-4.65375e-05 -6.28942e-05 0.0201265)
(-0.000182186 -5.74012e-05 0.0200919)
(-3.46549e-05 -7.11151e-05 0.0205503)
(-5.92894e-06 -0.000162371 0.0202037)
(1.063e-05 -0.000187956 0.0202595)
(-5.91524e-06 -0.000206346 0.0202953)
(2.42891e-05 -0.000239704 0.0203541)
(-3.67084e-05 -0.000129767 0.0201493)
(-9.34466e-06 -0.000144573 0.0202299)
(-3.65359e-05 -0.000153122 0.020279)
(1.38044e-05 -0.000198609 0.02039)
(-6.23884e-05 -0.000102637 0.0200573)
(-2.63336e-05 -9.788e-05 0.0201531)
(-6.55681e-05 -9.05446e-05 0.0201956)
(3.82081e-06 -0.000125638 0.0203596)
(-7.92106e-05 -7.90695e-05 0.0199268)
(-3.86654e-05 -4.65756e-05 0.0200226)
(-8.04935e-05 -3.93255e-05 0.020037)
(-3.06537e-06 -4.34764e-05 0.0202353)
(-9.35079e-07 -0.000100357 0.0201642)
(8.13386e-06 -0.000113636 0.0202223)
(5.16911e-06 -0.000122566 0.0202574)
(1.93641e-05 -0.000136519 0.0202876)
(-1.84191e-05 -8.21777e-05 0.0201004)
(-4.09663e-06 -8.99332e-05 0.020171)
(-9.71654e-06 -9.46119e-05 0.0202151)
(1.55631e-05 -0.000113429 0.0202688)
(-3.34643e-05 -6.51636e-05 0.0200058)
(-1.56126e-05 -6.25468e-05 0.0200821)
(-2.48451e-05 -5.92399e-05 0.020125)
(1.06385e-05 -7.35773e-05 0.0202019)
(-4.46828e-05 -4.7803e-05 0.0198742)
(-2.52662e-05 -3.03404e-05 0.0199459)
(-3.4796e-05 -2.42672e-05 0.0199769)
(6.83419e-06 -2.50786e-05 0.0200678)
(6.12097e-07 -6.25579e-05 0.0201401)
(5.97503e-06 -6.98102e-05 0.020198)
(7.03365e-06 -7.45474e-05 0.0202332)
(1.46652e-05 -8.05757e-05 0.0202541)
(-9.68124e-06 -5.14896e-05 0.0200702)
(-1.55224e-06 -5.55368e-05 0.0201334)
(-6.2969e-07 -5.82276e-05 0.0201748)
(1.29776e-05 -6.62183e-05 0.0202067)
(-1.86308e-05 -4.05684e-05 0.0199728)
(-9.01072e-06 -3.90054e-05 0.0200362)
(-8.78522e-06 -3.73743e-05 0.0200777)
(1.03639e-05 -4.32034e-05 0.0201195)
(-2.57069e-05 -2.87662e-05 0.0198396)
(-1.56084e-05 -1.89746e-05 0.0198957)
(-1.48408e-05 -1.45287e-05 0.0199301)
(8.28985e-06 -1.43593e-05 0.0199766)
(9.47664e-07 -3.97655e-05 0.0201235)
(4.24715e-06 -4.38793e-05 0.020181)
(6.25205e-06 -4.65073e-05 0.0202164)
(1.06996e-05 -4.9204e-05 0.0202342)
(-5.31754e-06 -3.26202e-05 0.0200497)
(-4.11858e-07 -3.46747e-05 0.0201087)
(2.04555e-06 -3.62168e-05 0.0201486)
(9.77053e-06 -3.97822e-05 0.0201722)
(-1.07339e-05 -2.54419e-05 0.0199501)
(-5.16519e-06 -2.43253e-05 0.0200063)
(-2.52435e-06 -2.34201e-05 0.0200461)
(8.27523e-06 -2.58062e-05 0.020074)
(-1.51346e-05 -1.75473e-05 0.0198154)
(-9.44099e-06 -1.17329e-05 0.0198629)
(-6.1362e-06 -8.66629e-06 0.019897)
(7.14142e-06 -8.33236e-06 0.0199255)
(8.45971e-07 -2.57903e-05 0.0201118)
(2.97452e-06 -2.82163e-05 0.0201691)
(4.84591e-06 -2.97437e-05 0.0202047)
(7.58149e-06 -3.09657e-05 0.0202216)
(-3.09097e-06 -2.1018e-05 0.0200357)
(1.64518e-08 -2.20624e-05 0.0200924)
(2.45248e-06 -2.29541e-05 0.0201313)
(7.03364e-06 -2.45615e-05 0.0201518)
(-6.44314e-06 -1.62078e-05 0.0199346)
(-3.01292e-06 -1.53604e-05 0.0199869)
(-2.12442e-07 -1.47804e-05 0.0200253)
(6.12646e-06 -1.57659e-05 0.0200477)
(-9.1867e-06 -1.09303e-05 0.0197989)
(-5.73321e-06 -7.29978e-06 0.0198417)
(-2.38029e-06 -5.22458e-06 0.0198748)
(5.48728e-06 -4.94099e-06 0.019896)
(6.45205e-07 -1.70118e-05 0.0201034)
(2.0699e-06 -1.8474e-05 0.0201607)
(3.54031e-06 -1.93673e-05 0.0201964)
(5.2874e-06 -1.99735e-05 0.0202131)
(-1.88626e-06 -1.37597e-05 0.0200259)
(1.76246e-07 -1.42753e-05 0.0200814)
(2.11483e-06 -1.47842e-05 0.0201198)
(4.93115e-06 -1.55447e-05 0.0201392)
(-4.00608e-06 -1.04959e-05 0.019924)
(-1.77324e-06 -9.84009e-06 0.0199741)
(5.19361e-07 -9.44334e-06 0.0200117)
(4.36525e-06 -9.84296e-06 0.0200318)
(-5.73562e-06 -6.95333e-06 0.0197877)
(-3.50342e-06 -4.59244e-06 0.0198279)
(-8.0038e-07 -3.19999e-06 0.0198601)
(3.99623e-06 -3.00429e-06 0.0198783)
(4.64203e-07 -1.13105e-05 0.0200975)
(1.43005e-06 -1.22018e-05 0.0201547)
(2.50949e-06 -1.27271e-05 0.0201905)
(3.64838e-06 -1.30552e-05 0.0202074)
(-1.18525e-06 -9.08497e-06 0.0200192)
(2.1092e-07 -9.31883e-06 0.020074)
(1.62903e-06 -9.60229e-06 0.0201121)
(3.40558e-06 -9.99901e-06 0.0201311)
(-2.54718e-06 -6.86038e-06 0.0199168)
(-1.04632e-06 -6.35537e-06 0.0199657)
(6.43812e-07 -6.07449e-06 0.0200026)
(3.0383e-06 -6.25015e-06 0.0200218)
(-3.64885e-06 -4.48309e-06 0.01978)
(-2.15053e-06 -2.91283e-06 0.0198188)
(-1.68949e-07 -1.98497e-06 0.0198504)
(2.81882e-06 -1.8646e-06 0.0198673)
(3.36879e-07 -7.45336e-06 0.0200933)
(9.83474e-07 -7.99814e-06 0.0201506)
(1.73935e-06 -8.30829e-06 0.0201864)
(2.48287e-06 -8.49991e-06 0.0202034)
(-7.37835e-07 -5.95194e-06 0.0200145)
(2.0146e-07 -6.04549e-06 0.0200689)
(1.18599e-06 -6.20198e-06 0.0201069)
(2.31519e-06 -6.42798e-06 0.0201258)
(-1.61472e-06 -4.45603e-06 0.0199118)
(-6.04998e-07 -4.08179e-06 0.01996)
(5.70034e-07 -3.88761e-06 0.0199966)
(2.07402e-06 -3.97468e-06 0.0200155)
(-2.31649e-06 -2.87942e-06 0.0197748)
(-1.30711e-06 -1.8373e-06 0.0198128)
(6.64309e-08 -1.23153e-06 0.019844)
(1.94105e-06 -1.16368e-06 0.0198605)
(2.60199e-07 -4.71552e-06 0.0200905)
(6.78611e-07 -5.04616e-06 0.0201478)
(1.17719e-06 -5.22958e-06 0.0201837)
(1.65162e-06 -5.34763e-06 0.0202008)
(-4.17671e-07 -3.748e-06 0.0200114)
(1.91257e-07 -3.78235e-06 0.0200656)
(8.34957e-07 -3.86927e-06 0.0201035)
(1.53901e-06 -4.00582e-06 0.0201224)
(-9.6782e-07 -2.78492e-06 0.0199085)
(-3.10395e-07 -2.53096e-06 0.0199564)
(4.58404e-07 -2.40628e-06 0.0199927)
(1.38528e-06 -2.45617e-06 0.0200116)
(-1.4058e-06 -1.77675e-06 0.0197714)
(-7.47018e-07 -1.1147e-06 0.0198089)
(1.5254e-07 -7.38914e-07 0.0198399)
(1.30578e-06 -7.06822e-07 0.0198562)
(2.44925e-07 -2.69053e-06 0.0200887)
(4.99347e-07 -2.8843e-06 0.020146)
(8.01054e-07 -2.99428e-06 0.020182)
(1.0848e-06 -3.06876e-06 0.0201992)
(-1.47543e-07 -2.12616e-06 0.0200094)
(2.17062e-07 -2.14528e-06 0.0200636)
(6.0448e-07 -2.19885e-06 0.0201014)
(1.01454e-06 -2.28284e-06 0.0201203)
(-4.67998e-07 -1.56592e-06 0.0199065)
(-7.18529e-08 -1.41981e-06 0.0199541)
(3.90986e-07 -1.3542e-06 0.0199904)
(9.24201e-07 -1.39233e-06 0.0200092)
(-7.29362e-07 -9.72132e-07 0.0197693)
(-3.28007e-07 -5.96851e-07 0.0198066)
(2.14328e-07 -3.92082e-07 0.0198374)
(8.76062e-07 -3.91887e-07 0.0198537)
(3.06339e-07 -1.25436e-06 0.0200876)
(4.82396e-07 -1.37598e-06 0.0201449)
(6.68235e-07 -1.46044e-06 0.020181)
(8.33414e-07 -1.52455e-06 0.0201982)
(1.04127e-07 -9.7434e-07 0.0200082)
(3.22064e-07 -1.00594e-06 0.0200623)
(5.55162e-07 -1.05614e-06 0.0201001)
(7.85169e-07 -1.12477e-06 0.0201191)
(-7.74729e-08 -6.83548e-07 0.0199052)
(1.55142e-07 -6.25009e-07 0.0199527)
(4.31675e-07 -6.13295e-07 0.019989)
(7.26501e-07 -6.64919e-07 0.0200078)
(-2.27453e-07 -3.77837e-07 0.0197679)
(6.67541e-09 -2.10736e-07 0.0198051)
(3.22501e-07 -1.31708e-07 0.0198359)
(6.80559e-07 -1.66845e-07 0.0198522)
(0.00187636 0.00197345 0.0222347)
(-0.000344457 -0.000678297 0.0314908)
(0.00110191 0.000123271 0.0154596)
(0.00608515 0.000844783 0.0261926)
(0.00071581 0.00341007 0.0120503)
(0.00163135 0.00729897 0.0291705)
(0.00201755 0.00367958 0.0121444)
(0.0030998 0.00589594 0.0291037)
(-0.000941322 0.00366529 0.0167013)
(-0.0025815 0.00784417 0.0254739)
(-0.000235173 0.0021432 0.0117686)
(-0.00248869 0.00175547 0.0306659)
(0.00022053 -0.00266711 0.0208273)
(-0.000104742 0.000126238 0.000780411)
(-0.00811697 0.00373004 0.0307583)
(-0.000253323 0.000364023 0.0126847)
(0.000206061 0.000690172 0.0232974)
(0.0019937 -0.000217911 0.0296907)
(0.00132625 -0.000523464 0.0178635)
(-0.0008179 -0.00116498 0.0249219)
(-0.000244615 0.00173311 0.0571936)
(0.000353466 0.000164805 0.0228423)
(-0.00025095 -0.00318774 0.0584993)
(0.00105412 -0.00225263 0.0482908)
(-0.00457274 0.00151859 0.0701251)
(-0.00379988 0.000781101 0.0426952)
(-0.00120215 -0.00177135 0.0521292)
(0.0011893 -0.000471981 0.051013)
(-0.00103554 -0.00238438 0.0414604)
(-0.000888619 -0.000339585 0.0729133)
(0.000635616 -0.0011925 0.01828)
(0.00100151 -0.00147716 0.0265435)
(-0.000116737 0.000137423 0.0478224)
(-0.0030277 0.00274617 0.0477835)