/*--------------------------------*- C++ -*----------------------------------*\
| =========                 |                                                 |
| \\      /  F ield         | OpenFOAM: The Open Source CFD Toolbox           |
|  \\    /   O peration     | Version:  2506                                  |
|   \\  /    A nd           | Website:  www.openfoam.com                      |
|    \\/     M anipulation  |                                                 |
\*---------------------------------------------------------------------------*/
FoamFile
{
    version     2.0;
    format      ascii;
    arch        "LSB;label=32;scalar=64";
    class       volVectorField;
    location    "0.1";
    object      U;
}
// * * * * * * * * * * * * * * * * * * * * * * * * * * * * * * * * * * * * * //

dimensions      [0 1 -1 0 0 0 0];

internalField   nonuniform List<vector> 
1152
(
(0.00283178 -0.00199242 0.0155209)
(0.00038573 -0.0014919 0.0118759)
(-0.00160589 -0.00309798 0.0154147)
(0.000714537 -0.000367097 0.00483137)
(0.00225761 -0.00436178 0.0330357)
(-0.000802249 -0.0061424 0.0243528)
(-7.4326e-06 -0.00410562 0.0166829)
(8.54922e-05 0.00047465 0.000245636)
(-0.000945062 -0.000593559 0.00939609)
(-0.00124076 -0.00203751 0.0149835)
(0.00169629 -0.00139254 0.0135644)
(0.0029347 -0.0104613 0.0320152)
(-0.00017171 -0.000921148 0.0116768)
(-0.00589339 -0.000545966 0.0241347)
(-0.00126289 -0.000373378 0.0131629)
(0.000230567 -0.00579031 0.0179438)
(0.0287001 -0.00394039 0.0403919)
(0.000745441 -0.000656632 0.0135408)
(-0.0220276 -0.00203789 0.0399094)
(-0.000568604 -0.00121821 0.00486826)
(0.0026609 -0.00457278 0.015562)
(0.0013734 -0.0393709 0.0481904)
(-0.00382182 -0.00930852 0.0329614)
(-0.00227598 -0.0116313 0.0355531)
(-4.74107e-05 -0.00588884 0.0420882)
(-0.00100764 -0.00921979 0.0344429)
(-0.00214512 -0.00562211 0.0268638)
(-0.00249894 -0.0131852 0.0661381)
(-0.00166555 -0.00929461 0.0685193)
(-0.00443067 -0.00537166 0.0437367)
(-0.00149048 -0.00743174 0.0407091)
(-0.000540583 -0.00271286 0.0296019)
(-0.0159504 -0.00234932 0.0276514)
(9.02242e-05 2.48604e-05 0.0101004)
(0.0144866 -0.00171247 0.0257009)
(0.00409025 -0.00363903 0.0341703)
(0.00530682 0.000444219 0.0546975)
(0.000223123 0.00983745 0.0247682)
(-0.000144864 -4.8755e-05 0.0179653)
(0.00653703 0.000386693 0.0433796)
(0.00205444 -0.00239401 0.0274453)
(0.00221372 -0.00233713 0.0310779)
(-0.000231171 -0.000564564 0.0435239)
(-0.000300383 -0.00358712 0.0359864)
(-0.00529031 0.00221793 0.0738197)
(0.00106425 -0.00155271 0.0207269)
(-0.000616367 -0.00253563 0.0327371)
(0.000267467 -0.00115872 0.0187939)
(-0.0272505 -0.00202086 0.0471991)
(1.60231e-05 0.000614323 0.040667)
(0.0154712 0.000357045 0.0337821)
(-0.007148 -0.00350023 0.0706828)
(-0.00356762 0.00354494 0.0434632)
(0.00307208 0.0284275 0.0421627)
(0.00108426 0.0034038 0.029707)
(-0.00586794 0.00558133 0.0518093)
(0.00124979 0.000338506 0.0292049)
(0.00167195 0.00431813 0.0340143)
(-0.000178623 0.00278403 0.032228)
(0.00189458 0.010763 0.067794)
(-0.000515532 0.00540022 0.0359855)
(0.00568751 0.000728763 0.0455131)
(0.000824674 0.00458115 0.0406659)
(0.000183555 -0.0011879 0.0153141)
(-0.00218761 -0.00223998 0.0444469)
(-0.00134092 0.00202659 0.0446372)
(-0.00117336 0.00363263 0.0489014)
(0.0127676 0.00752699 0.0654305)
(-0.00185069 0.00659183 0.0626414)
(-0.00119025 0.00642322 0.0592685)
(-0.0010083 0.006428 0.044046)
(0.0011738 0.00148948 0.0253444)
(-0.000571486 0.00291144 0.0304924)
(0.00113563 0.00727761 0.0555183)
(-0.00131534 0.000670119 0.0271375)
(-0.00203821 0.0120101 0.069258)
(0.00283983 0.0040605 0.0608113)
(-0.00120777 5.6018e-05 0.0240586)
(0.000693406 0.00182148 0.0614721)
(0.000300742 -0.000904953 0.0166916)
(-0.000644213 0.00123196 0.0207357)
(-0.00182728 0.000342939 0.0448719)
(-0.00158776 0.00108628 0.0268775)
(-0.00101664 0.000101781 0.0174799)
(-0.00337299 0.000756001 0.0408043)
(-0.00265569 0.00132543 0.0314094)
(-0.00158584 -0.00201597 0.0290542)
(-0.000311039 -0.000353738 0.0413351)
(-0.0001032 0.00195908 0.0304899)
(-0.00131872 0.0018434 0.0238188)
(-0.00357064 0.00300962 0.0505934)
(0.00177818 0.00229491 0.0275196)
(-0.0053327 0.0238748 0.0521381)
(-0.00445656 0.00682276 0.0372154)
(-0.000285549 0.00323023 0.0217275)
(0.000910582 0.00671942 0.0234465)
(0.000796614 0.00249067 0.0228135)
(0.000687009 0.00136386 0.0283274)
(0.000552125 0.00197411 0.0319528)
(0.00138407 0.00221207 0.0352119)
(0.000873 0.00264661 0.0370785)
(0.00206371 0.00179012 0.0301067)
(0.000755153 0.000975154 0.0234073)
(0.000137621 0.000377855 0.023468)
(0.000213683 0.00279004 0.021858)
(0.000459084 0.00228308 0.0292526)
(0.000423212 0.000128072 0.0209095)
(-0.0010167 0.00192256 0.0334859)
(0.00101389 -0.000586272 0.032443)
(0.00152133 0.000962028 0.0216666)
(0.00187438 0.00186707 0.0248683)
(-0.000639077 0.00263858 0.0186898)
(-0.00152768 0.00114457 0.0217998)
(-0.00147857 0.00161685 0.0219067)
(-0.000250609 0.00146013 0.0189993)
(0.000790636 0.00444687 0.0522303)
(-0.00225403 0.0032787 0.0332227)
(-0.00249975 0.00303259 0.0166938)
(0.000477927 0.00318051 -0.00820027)
(0.00152725 0.00382898 0.0163615)
(-0.00157921 0.00482283 0.0215572)
(-0.00160738 0.00581919 0.0282555)
(-3.78974e-05 0.00764396 0.0138183)
(-0.00112318 0.0056072 0.0273801)
(-0.000530591 0.00399977 0.0513988)
(-0.000147921 0.00507996 0.0272953)
(0.000170054 0.00875396 0.0164232)
(-0.00827462 0.0121723 0.0154616)
(0.00213915 0.00144082 0.0137627)
(0.00219582 0.000102584 0.0142277)
(-0.00173393 -0.00015226 0.0161381)
(-0.00134011 -0.000581319 0.0233131)
(0.00141543 -0.000188587 0.0141141)
(0.00362796 -0.000213762 0.0135731)
(-0.00028766 0.00023889 0.012717)
(-0.00226276 0.00102196 0.0153409)
(0.00138636 -0.00243094 0.013679)
(0.00245008 -0.00184266 0.0129823)
(-0.000666538 -0.00280009 0.0110185)
(0.000881997 -0.00268733 0.0116005)
(0.000971664 -0.0041235 0.018747)
(0.0028732 -0.00383534 0.013285)
(-0.00132111 -0.00717267 0.00972553)
(0.00680334 -0.0143981 0.00933642)
(0.000992894 0.000743957 0.0203601)
(0.000804178 0.000293061 0.0197475)
(-0.000934889 5.28521e-05 0.0196472)
(-0.000684903 -8.37179e-05 0.0229572)
(0.000738368 -3.2335e-05 0.02029)
(0.0012979 6.33486e-05 0.0191807)
(-0.000394477 0.000304597 0.017679)
(-0.000994326 0.00065387 0.0202009)
(0.000645188 -0.0010567 0.0209687)
(0.00101657 -0.000907712 0.0198249)
(-0.000441887 -0.00112196 0.0183618)
(-2.14141e-05 -0.00105279 0.0200108)
(0.000155776 -0.00141122 0.0234739)
(0.00101962 -0.00158065 0.0211436)
(-0.000656198 -0.00256452 0.019463)
(0.00112614 -0.00424082 0.0209589)
(0.000610847 0.000215447 0.0194503)
(0.000460515 7.21748e-05 0.0192561)
(-0.000249354 -6.09545e-05 0.0192216)
(-0.000254048 -0.000125709 0.0204161)
(0.00049066 -0.000160622 0.0192526)
(0.000540313 -0.000125102 0.0188788)
(-0.000125866 -5.18378e-05 0.0184428)
(-0.000332706 7.66741e-05 0.01941)
(0.000464598 -0.000667962 0.0194819)
(0.000507934 -0.000631468 0.0190625)
(-9.9284e-05 -0.00066336 0.0185991)
(-3.53243e-05 -0.000619536 0.0193339)
(0.000246982 -0.000845946 0.0201428)
(0.000450197 -0.00092481 0.0195186)
(-0.00017473 -0.00118128 0.0190096)
(0.000232735 -0.00152996 0.019719)
(0.000355917 4.56834e-05 0.0199802)
(0.000262386 -8.98632e-06 0.0198616)
(-3.16241e-05 -6.6833e-05 0.0198157)
(-9.04433e-05 -0.000106474 0.0201899)
(0.000276238 -0.000108467 0.0198859)
(0.00024861 -0.000122702 0.0197294)
(-2.29292e-05 -0.000111971 0.0196037)
(-0.000117095 -7.343e-05 0.0199091)
(0.000238172 -0.000323708 0.0200117)
(0.000228937 -0.000354194 0.019828)
(-9.41296e-06 -0.000371924 0.019676)
(-2.4263e-05 -0.000350141 0.0199153)
(9.19536e-05 -0.000393918 0.0202607)
(0.000157951 -0.000478826 0.020058)
(-4.81875e-05 -0.000570277 0.0199099)
(4.92582e-05 -0.000659601 0.02015)
(0.000194296 -1.32586e-05 0.0201156)
(0.000145418 -3.64098e-05 0.0200622)
(2.45381e-05 -6.02385e-05 0.0200372)
(-2.76671e-05 -7.91499e-05 0.0201513)
(0.000150737 -8.16773e-05 0.0200652)
(0.0001254 -9.88837e-05 0.0200149)
(1.51127e-05 -0.000102569 0.019979)
(-3.67779e-05 -9.23329e-05 0.0200824)
(0.000127861 -0.000180274 0.0201011)
(0.000112135 -0.000204629 0.0200523)
(1.8745e-05 -0.000215232 0.0200125)
(-7.0379e-06 -0.00020642 0.0200958)
(5.92553e-05 -0.000223484 0.020157)
(7.29856e-05 -0.000262963 0.0201335)
(-1.95513e-07 -0.000295965 0.0201097)
(1.62752e-05 -0.000325599 0.020196)
(0.00010499 -2.76994e-05 0.0201729)
(8.07274e-05 -3.97508e-05 0.0201597)
(3.01158e-05 -5.07598e-05 0.0201529)
(-4.20888e-06 -5.80546e-05 0.0201897)
(8.0773e-05 -5.89675e-05 0.0201469)
(6.65333e-05 -7.23569e-05 0.0201414)
(2.22813e-05 -7.80914e-05 0.0201367)
(-7.31738e-06 -7.62499e-05 0.0201739)
(6.65303e-05 -0.000103734 0.0201515)
(5.69741e-05 -0.000120159 0.0201525)
(2.11412e-05 -0.000127497 0.0201501)
(3.06273e-06 -0.000125839 0.0201811)
(3.18684e-05 -0.000126451 0.0201517)
(3.54675e-05 -0.000146488 0.020173)
(1.07338e-05 -0.00016055 0.0201817)
(1.14957e-05 -0.000173362 0.0202163)
(5.72722e-05 -2.74293e-05 0.0202045)
(4.55356e-05 -3.42472e-05 0.020214)
(2.28728e-05 -3.96831e-05 0.0202189)
(2.86532e-06 -4.2621e-05 0.0202325)
(4.38393e-05 -4.2431e-05 0.0201886)
(3.70881e-05 -5.12111e-05 0.020205)
(1.83119e-05 -5.5611e-05 0.0202137)
(1.98276e-06 -5.57606e-05 0.020229)
(3.52869e-05 -6.2891e-05 0.0201774)
(3.09019e-05 -7.27576e-05 0.0202011)
(1.64265e-05 -7.76402e-05 0.0202138)
(5.95974e-06 -7.79072e-05 0.0202286)
(1.78656e-05 -7.39616e-05 0.0201521)
(1.94137e-05 -8.39518e-05 0.0201913)
(1.08063e-05 -9.10177e-05 0.0202126)
(9.48662e-06 -9.69486e-05 0.0202311)
(3.15522e-05 -2.31264e-05 0.0202204)
(2.59089e-05 -2.71343e-05 0.0202419)
(1.51713e-05 -2.99837e-05 0.0202534)
(4.07045e-06 -3.12847e-05 0.0202617)
(2.41026e-05 -3.04443e-05 0.0202081)
(2.12008e-05 -3.58259e-05 0.020235)
(1.27527e-05 -3.86644e-05 0.0202498)
(3.97043e-06 -3.90723e-05 0.0202595)
(1.89955e-05 -3.96399e-05 0.0201889)
(1.74011e-05 -4.54079e-05 0.0202226)
(1.13155e-05 -4.84999e-05 0.0202416)
(5.71e-06 -4.89967e-05 0.0202526)
(1.00946e-05 -4.45003e-05 0.0201517)
(1.1248e-05 -4.95845e-05 0.0201978)
(8.3022e-06 -5.34828e-05 0.0202239)
(7.32804e-06 -5.63628e-05 0.0202382)
(1.75695e-05 -1.82981e-05 0.0202282)
(1.48683e-05 -2.07129e-05 0.0202562)
(9.56214e-06 -2.2276e-05 0.0202715)
(3.50967e-06 -2.28782e-05 0.0202792)
(1.34223e-05 -2.18193e-05 0.0202168)
(1.22865e-05 -2.50481e-05 0.0202489)
(8.31697e-06 -2.67675e-05 0.0202669)
(3.62468e-06 -2.70634e-05 0.0202758)
(1.0348e-05 -2.57808e-05 0.0201931)
(9.99468e-06 -2.91642e-05 0.0202315)
(7.3974e-06 -3.10589e-05 0.0202536)
(4.46249e-06 -3.14243e-05 0.0202641)
(5.73572e-06 -2.75789e-05 0.0201498)
(6.65236e-06 -3.02248e-05 0.0201988)
(5.78261e-06 -3.24885e-05 0.0202272)
(5.26145e-06 -3.39151e-05 0.0202407)
(9.89912e-06 -1.39884e-05 0.0202321)
(8.61918e-06 -1.54729e-05 0.0202635)
(5.91419e-06 -1.63636e-05 0.0202811)
(2.62399e-06 -1.66556e-05 0.0202892)
(7.54385e-06 -1.56097e-05 0.0202205)
(7.18541e-06 -1.75534e-05 0.0202553)
(5.27027e-06 -1.85758e-05 0.0202752)
(2.75848e-06 -1.87479e-05 0.0202843)
(5.66078e-06 -1.71622e-05 0.0201942)
(5.80296e-06 -1.91718e-05 0.0202349)
(4.71542e-06 -2.03184e-05 0.0202587)
(3.18379e-06 -2.05489e-05 0.0202695)
(3.23367e-06 -1.75482e-05 0.0201475)
(3.95275e-06 -1.89593e-05 0.020198)
(3.83421e-06 -2.03116e-05 0.0202275)
(3.59328e-06 -2.10625e-05 0.0202411)
(5.65075e-06 -1.04429e-05 0.020234)
(5.06414e-06 -1.13724e-05 0.0202673)
(3.66009e-06 -1.18977e-05 0.0202862)
(1.84496e-06 -1.2048e-05 0.0202947)
(4.28009e-06 -1.11326e-05 0.0202219)
(4.24571e-06 -1.23171e-05 0.0202582)
(3.30973e-06 -1.29309e-05 0.0202792)
(1.95233e-06 -1.30355e-05 0.0202886)
(3.11213e-06 -1.16056e-05 0.020194)
(3.40514e-06 -1.28156e-05 0.020236)
(2.97452e-06 -1.35124e-05 0.0202606)
(2.17445e-06 -1.36602e-05 0.0202718)
(1.81455e-06 -1.14125e-05 0.0201453)
(2.35841e-06 -1.21759e-05 0.0201966)
(2.47776e-06 -1.29952e-05 0.0202268)
(2.3835e-06 -1.34313e-05 0.0202406)
(3.2773e-06 -7.61852e-06 0.0202349)
(3.0265e-06 -8.21197e-06 0.0202692)
(2.29256e-06 -8.53249e-06 0.0202889)
(1.26005e-06 -8.61373e-06 0.0202977)
(2.45273e-06 -7.8693e-06 0.0202222)
(2.53836e-06 -8.60333e-06 0.0202594)
(2.08212e-06 -8.98365e-06 0.020281)
(1.3372e-06 -9.05908e-06 0.0202907)
(1.72588e-06 -7.89451e-06 0.0201933)
(2.02184e-06 -8.63122e-06 0.020236)
(1.87296e-06 -9.05981e-06 0.0202612)
(1.45477e-06 -9.16075e-06 0.0202727)
(1.02591e-06 -7.50835e-06 0.0201435)
(1.41891e-06 -7.93276e-06 0.0201952)
(1.58381e-06 -8.43545e-06 0.0202258)
(1.55968e-06 -8.70716e-06 0.0202399)
(1.93441e-06 -5.38839e-06 0.0202352)
(1.84102e-06 -5.77049e-06 0.0202702)
(1.45717e-06 -5.97002e-06 0.0202903)
(8.57735e-07 -6.01314e-06 0.0202992)
(1.42718e-06 -5.44571e-06 0.0202222)
(1.54065e-06 -5.90387e-06 0.0202599)
(1.32379e-06 -6.14352e-06 0.0202818)
(9.11501e-07 -6.19909e-06 0.0202917)
(9.78707e-07 -5.31597e-06 0.0201927)
(1.224e-06 -5.76509e-06 0.0202357)
(1.19219e-06 -6.0281e-06 0.0202612)
(9.75597e-07 -6.0978e-06 0.0202729)
(6.06568e-07 -4.91986e-06 0.0201421)
(8.7526e-07 -5.15985e-06 0.020194)
(1.02245e-06 -5.4674e-06 0.0202249)
(1.0271e-06 -5.64134e-06 0.0202391)
(1.16794e-06 -3.6191e-06 0.0202354)
(1.14733e-06 -3.85917e-06 0.0202706)
(9.52813e-07 -3.98106e-06 0.0202909)
(6.13648e-07 -4.00109e-06 0.0203)
(8.60649e-07 -3.60215e-06 0.020222)
(9.65759e-07 -3.8816e-06 0.02026)
(8.72672e-07 -4.02861e-06 0.0202821)
(6.49418e-07 -4.0653e-06 0.0202921)
(5.91216e-07 -3.44766e-06 0.0201921)
(7.77711e-07 -3.71528e-06 0.0202353)
(7.92208e-07 -3.87277e-06 0.020261)
(6.85872e-07 -3.92049e-06 0.0202728)
(3.97402e-07 -3.12039e-06 0.020141)
(5.80202e-07 -3.25736e-06 0.0201932)
(6.93842e-07 -3.44288e-06 0.0202242)
(7.08377e-07 -3.55465e-06 0.0202385)
(7.58653e-07 -2.2438e-06 0.0202354)
(7.78236e-07 -2.38526e-06 0.0202708)
(6.97889e-07 -2.45728e-06 0.0202913)
(5.30489e-07 -2.46871e-06 0.0203004)
(5.83358e-07 -2.2044e-06 0.0202219)
(6.73834e-07 -2.36662e-06 0.0202599)
(6.52075e-07 -2.45411e-06 0.0202822)
(5.49221e-07 -2.47898e-06 0.0202922)
(4.29641e-07 -2.07486e-06 0.0201917)
(5.66683e-07 -2.22983e-06 0.020235)
(6.02893e-07 -2.32401e-06 0.0202608)
(5.64905e-07 -2.35942e-06 0.0202727)
(3.31133e-07 -1.84125e-06 0.0201403)
(4.56815e-07 -1.92664e-06 0.0201926)
(5.4426e-07 -2.03904e-06 0.0202236)
(5.68401e-07 -2.11199e-06 0.0202381)
(6.86032e-07 -1.4627e-06 0.0202353)
(7.50997e-07 -1.55031e-06 0.0202708)
(7.60233e-07 -1.60156e-06 0.0202914)
(7.16012e-07 -1.61823e-06 0.0203006)
(5.86085e-07 -1.40204e-06 0.0202216)
(6.8328e-07 -1.50536e-06 0.0202598)
(7.24676e-07 -1.56967e-06 0.0202821)
(7.13696e-07 -1.59863e-06 0.0202923)
(4.84534e-07 -1.27987e-06 0.0201913)
(6.08454e-07 -1.38866e-06 0.0202347)
(6.80964e-07 -1.46375e-06 0.0202606)
(7.04663e-07 -1.50494e-06 0.0202725)
(3.96186e-07 -1.0894e-06 0.0201398)
(5.27236e-07 -1.18542e-06 0.020192)
(6.27813e-07 -1.27628e-06 0.0202232)
(6.86448e-07 -1.33825e-06 0.0202377)
(-0.00287348 -0.00434842 0.02899)
(-9.93916e-05 -0.00225985 0.00787409)
(-0.00207648 -0.00397181 0.0351551)
(-0.000314486 -0.000658122 0.00201848)
(-0.00361863 -0.0050646 0.0177064)
(-0.000386078 -0.000231124 0.00626376)
(-0.000518177 -0.000558907 0.0145973)
(3.17821e-07 0.000456694 0.0116721)
(-0.00154904 -0.00304858 0.0148371)
(-0.000186232 0.00277989 0.0246518)
(-0.00136875 0.00263394 0.0172599)
(0.000682702 0.00245869 0.00987273)
(-0.0037888 -0.00211874 0.0253987)
(0.000939863 -0.000814733 0.00998241)
(-3.30861e-05 0.00148043 0.0188792)
(0.00543703 0.000348923 0.017217)
(-0.000755689 -0.00425415 0.0318115)
(-0.00387166 -0.00372507 0.0534893)
(-0.000437258 -0.00378221 0.0407604)
(-0.00133108 -0.00304058 0.0526051)
(0.00114096 -0.000754704 0.0570106)
(-0.000169425 -0.00255921 0.0334044)
(-0.000936224 -0.000295864 0.0381563)
(7.08248e-05 -0.00293625 0.0355085)
(0.00062359 -0.0013913 0.0324818)
(-0.00216066 -0.00125738 0.0614267)
(-0.00103 -0.00159295 0.0506026)
(-0.00311722 -0.00264647 0.0535972)
(0.00161458 -0.00178771 0.0329681)
(-0.00137851 0.000306617 0.0456524)
(-0.00253089 -0.00161291 0.0558182)
(-0.00226973 -0.000571657 0.0311677)
(0.000916939 -0.00102434 0.0337943)
(-0.000772385 0.00397827 0.0535704)
(0.0008907 -0.0026964 0.0346397)
(0.00265815 0.00188744 0.0606686)
(0.000310564 0.000229704 0.0171132)
(0.000632876 -0.00131582 0.0206717)
(0.000172179 -0.00161037 0.0153286)
(-3.61854e-05 -0.00431253 0.0291636)
(-0.00237721 0.00390128 0.0457502)
(0.000275715 -0.00344206 0.0396111)
(-0.00137948 -0.00247968 0.0447095)
(-0.00203379 -0.00185376 0.0218351)
(-0.000591685 0.00111039 0.0468237)
(-0.00353375 -0.000938921 0.0502481)
(0.000545934 -0.00151422 0.0309567)
(-0.0031055 0.00268072 0.0444447)
(0.000281785 0.000205045 0.0203976)
(0.000855425 0.000489475 0.0349111)
(0.000125349 -0.0011734 0.0237555)
(-0.00166679 0.00507751 0.0662365)
(0.00493509 -0.00506723 0.0487462)
(0.00190788 0.00203903 0.0565273)
(0.00144222 -0.00249533 0.0397056)
(-0.00169592 0.00042996 0.0373155)
(0.00242285 0.000563862 0.0376354)
(0.000848739 -0.000711095 0.0407016)
(0.00244331 -0.00346222 0.0572838)
(-0.00183428 -0.000432635 0.0421441)
(0.00129764 0.00249534 0.0393923)
(0.000718351 0.000148211 0.0374085)
(0.0026893 -0.000503275 0.0405138)
(-0.000717993 0.000421195 0.0450334)
(0.00250232 0.00113097 0.0904062)
(-0.000926479 -0.00250671 0.0490398)
(0.00265118 0.00142975 0.0574765)
(0.00246585 0.00402444 0.0537333)
(0.00141194 -0.00116512 0.0190651)
(-0.000655099 -0.000631146 0.0397519)
(0.00104942 0.000549726 0.0293266)
(0.00166564 0.00396609 0.0538452)
(0.00280241 -0.00122564 0.0276117)
(0.0017452 0.00154194 0.0513833)
(0.00522843 -0.00173435 0.0558464)
(0.00188433 0.00143988 0.0406705)
(0.00251395 0.00375907 0.0608547)
(1.24577e-05 0.000763743 0.0628152)
(0.00100288 0.00041103 0.0217002)
(-0.000902747 0.00266865 0.0558265)
(0.000534326 0.000604618 0.0134363)
(-0.00132075 0.000471856 0.0159599)
(0.00513053 0.00736614 0.0296173)
(-0.000100304 0.0012403 0.0144631)
(0.00609807 -0.0151565 0.0400265)
(0.00207452 -0.000275004 0.0281362)
(0.00183445 0.0018823 0.0226039)
(0.0050431 0.00552025 0.0441803)
(0.00293672 -0.000175804 0.0227636)
(0.00100357 0.00181904 0.0281722)
(0.00878953 0.00215065 0.0343177)
(0.000428127 0.00235186 0.0105035)
(0.0052423 0.000765557 0.0325459)
(0.00210056 0.00229183 0.0261294)
(-8.7361e-05 0.00102378 0.0147787)
(0.0013304 -0.0189525 0.0480906)
(0.00274561 0.00547956 -0.0376509)
(0.0040479 0.00187154 0.0200823)
(0.00540328 0.00269828 0.0275315)
(0.00208049 -0.00399632 -0.0441684)
(0.00231506 0.00298678 0.0231127)
(0.00243047 -0.000402822 0.0192145)
(0.00250199 -0.000802842 0.0188937)
(-9.63537e-05 -0.00287128 0.0135668)
(0.00314542 0.00042624 0.0173642)
(0.00179736 -0.0013906 0.0264122)
(4.61873e-05 0.00052467 0.025459)
(0.00215493 -0.00731982 -0.0518064)
(0.00240583 -0.000241535 0.0289905)
(0.00208619 0.000261325 0.0354662)
(1.92011e-06 0.000432655 0.0128723)
(0.00079987 0.00284834 0.0322964)
(0.000588227 0.00377456 0.0706082)
(0.00298001 0.00448109 0.04353)
(0.00691561 0.00569299 0.0546372)
(-0.00210943 0.00671598 0.174262)
(0.000822255 0.00231971 0.0495225)
(0.00182449 0.00120863 0.0282701)
(0.00398292 -0.000349127 0.0234712)
(-0.000237181 -0.00239634 0.0568629)
(0.000956873 0.00091682 0.0229849)
(0.0015006 -0.00042597 0.0323922)
(0.00262507 -0.000752519 0.0298185)
(0.000269116 -0.00233008 0.0548339)
(0.000786306 0.000774985 0.0308073)
(0.00090201 -0.000223295 0.0399435)
(0.00185731 -8.14437e-05 0.0130459)
(0.000487292 -0.000886968 0.0452639)
(-0.000928274 -8.64184e-05 0.0207126)
(-0.000944846 -0.000685426 0.0149511)
(-0.0115354 -0.00281558 0.0128617)
(0.00292934 -0.00389787 0.0246829)
(-0.00136474 0.0028093 0.0174025)
(0.00163094 0.0024872 0.0128541)
(-0.00475826 0.00385006 0.0108914)
(-0.00015411 0.00957342 0.0152745)
(-0.00170449 0.00152252 0.0129619)
(0.00153782 0.000273777 0.0126191)
(-0.00321221 0.00140384 0.0121468)
(-0.000373161 0.00192755 0.0181147)
(-0.00120074 -0.00028881 0.0119276)
(0.00216695 0.000462773 0.0136615)
(-0.00195896 0.00110299 0.00989572)
(-0.00120352 0.000528755 0.0174111)
(-0.000546375 -4.3209e-05 0.0248604)
(-0.000255613 -0.000442901 0.0233872)
(-0.00323588 -0.00125421 0.0242041)
(0.000596736 -0.00198541 0.0320791)
(-0.000781323 0.000869758 0.0239295)
(0.000351906 0.000688246 0.0224339)
(-0.00195905 0.000739237 0.0217287)
(-0.000531872 0.00123189 0.0267486)
(-0.00100744 0.00059835 0.0225039)
(0.000210788 0.000166261 0.0223038)
(-0.00192673 0.000348217 0.0216025)
(-0.00049089 -1.55342e-05 0.0267961)
(-0.000750858 -0.000103713 0.0218647)
(0.000463999 0.000218997 0.0225074)
(-0.0015005 0.000286678 0.0200297)
(-0.000696383 0.000136429 0.0256967)
(-3.3363e-05 -0.000393772 0.0204388)
(0.000109194 -0.000559092 0.0202179)
(-0.000771358 -0.000830585 0.0204199)
(0.000156555 -0.00122466 0.0225128)
(-0.000200175 -4.73381e-05 0.0201445)
(0.000202027 -8.53555e-05 0.0199297)
(-0.000712393 -0.000133409 0.0197866)
(-0.000201993 -0.000428803 0.0216449)
(-0.000299844 -5.63818e-05 0.0196776)
(0.000182602 -8.94611e-05 0.0198523)
(-0.000796084 -3.70012e-05 0.0197087)
(-0.000214098 -0.000368069 0.0219874)
(-0.000290307 -0.000192692 0.0193068)
(0.000254322 3.14817e-05 0.0197096)
(-0.000702069 -1.55368e-05 0.0189991)
(-0.000287991 -0.000122938 0.0215053)
(-2.13813e-05 -0.000272185 0.0204119)
(3.27474e-05 -0.000391579 0.0203461)
(-0.000210274 -0.00050517 0.0203772)
(3.48175e-05 -0.000690941 0.0209174)
(-0.000119622 -0.000154977 0.0203521)
(8.22327e-06 -0.000209072 0.0203288)
(-0.000303475 -0.000247049 0.0202955)
(-6.72018e-05 -0.00046834 0.0209731)
(-0.000191974 -0.000108643 0.0202024)
(-1.31393e-05 -0.000112506 0.0202821)
(-0.000389047 -8.36363e-05 0.0202055)
(-9.79534e-05 -0.000264262 0.0211027)
(-0.000206999 -0.000138557 0.0200659)
(5.74631e-07 -3.35566e-05 0.020202)
(-0.00038533 -4.62007e-05 0.0199234)
(-0.000123179 -8.82376e-05 0.020974)
(1.0518e-05 -0.000185129 0.020183)
(2.83804e-05 -0.000241277 0.0202198)
(-5.24723e-05 -0.000285481 0.0202556)
(1.66394e-05 -0.000361966 0.0204226)
(-4.25621e-05 -0.000138988 0.02013)
(4.55467e-06 -0.000167087 0.0202072)
(-0.000108506 -0.000185684 0.0202472)
(-1.20527e-05 -0.000288962 0.0205178)
(-8.28126e-05 -0.000108301 0.0200227)
(-1.21275e-05 -0.000102963 0.0201377)
(-0.000157675 -9.13027e-05 0.0201543)
(-2.88732e-05 -0.000173459 0.0205374)
(-0.000106453 -9.74617e-05 0.0198896)
(-1.86256e-05 -4.18971e-05 0.020018)
(-0.000170764 -4.46494e-05 0.0199605)
(-3.86793e-05 -6.07497e-05 0.0204206)
(1.06774e-05 -0.000111937 0.0201348)
(1.68184e-05 -0.000141409 0.0201833)
(-9.51688e-06 -0.000159215 0.0202149)
(1.34593e-05 -0.000190517 0.0202781)
(-1.82933e-05 -9.07745e-05 0.0200762)
(1.38909e-06 -0.000107232 0.0201455)
(-3.61009e-05 -0.00011601 0.0201862)
(5.4903e-06 -0.000160283 0.020299)
(-4.2259e-05 -7.14987e-05 0.019982)
(-1.18033e-05 -7.05641e-05 0.0200638)
(-6.14774e-05 -6.63945e-05 0.0200957)
(-2.17076e-06 -0.000102093 0.0202599)
(-5.97456e-05 -5.94313e-05 0.0198644)
(-2.22598e-05 -3.27754e-05 0.0199428)
(-7.40792e-05 -3.032e-05 0.0199446)
(-7.0302e-06 -3.60377e-05 0.0201422)
(8.77523e-06 -6.64086e-05 0.020111)
(1.06678e-05 -8.22409e-05 0.0201653)
(2.06649e-06 -9.04449e-05 0.0201985)
(1.09963e-05 -0.000103147 0.0202302)
(-7.38215e-06 -5.57862e-05 0.020044)
(1.43832e-06 -6.47229e-05 0.0201081)
(-1.03619e-05 -6.94272e-05 0.0201481)
(8.81483e-06 -8.7666e-05 0.0202021)
(-2.10807e-05 -4.42819e-05 0.0199476)
(-7.3531e-06 -4.41859e-05 0.0200153)
(-2.30929e-05 -4.27458e-05 0.0200525)
(5.49143e-06 -5.75127e-05 0.020129)
(-3.23779e-05 -3.48941e-05 0.0198279)
(-1.5386e-05 -2.13165e-05 0.0198878)
(-3.12455e-05 -1.82136e-05 0.0199111)
(3.26135e-06 -1.9969e-05 0.0200007)
(6.39138e-06 -3.95086e-05 0.0200982)
(6.79524e-06 -4.84774e-05 0.020154)
(4.24645e-06 -5.25984e-05 0.0201883)
(8.24043e-06 -5.77573e-05 0.02021)
(-2.9672e-06 -3.35717e-05 0.0200259)
(1.31325e-06 -3.8468e-05 0.0200852)
(-1.752e-06 -4.11314e-05 0.0201245)
(7.64935e-06 -4.86799e-05 0.0201565)
(-1.09224e-05 -2.65537e-05 0.0199271)
(-4.22993e-06 -2.66962e-05 0.0199852)
(-8.23775e-06 -2.62287e-05 0.0200234)
(6.17002e-06 -3.22567e-05 0.0200649)
(-1.78546e-05 -2.02479e-05 0.0198052)
(-9.56254e-06 -1.30606e-05 0.0198529)
(-1.29494e-05 -1.0504e-05 0.0198823)
(5.27321e-06 -1.08924e-05 0.0199277)
(4.42636e-06 -2.39771e-05 0.0200896)
(4.26327e-06 -2.92697e-05 0.020146)
(3.82277e-06 -3.14034e-05 0.020181)
(5.79666e-06 -3.35132e-05 0.0201995)
(-1.1798e-06 -2.03811e-05 0.020014)
(1.03233e-06 -2.30395e-05 0.0200707)
(7.74386e-07 -2.45374e-05 0.0201094)
(5.61967e-06 -2.77638e-05 0.0201332)
(-5.87334e-06 -1.5981e-05 0.0199133)
(-2.37101e-06 -1.60298e-05 0.0199663)
(-2.60351e-06 -1.58783e-05 0.0200042)
(4.93953e-06 -1.83197e-05 0.0200319)
(-1.00676e-05 -1.18831e-05 0.0197895)
(-5.69281e-06 -7.82915e-06 0.0198308)
(-5.21476e-06 -5.9925e-06 0.0198615)
(4.67909e-06 -5.98097e-06 0.0198892)
(2.95955e-06 -1.48949e-05 0.0200836)
(2.62858e-06 -1.81526e-05 0.0201404)
(2.84886e-06 -1.9302e-05 0.0201758)
(3.8999e-06 -2.0099e-05 0.0201933)
(-5.12229e-07 -1.26048e-05 0.0200062)
(6.81759e-07 -1.40735e-05 0.0200615)
(1.25561e-06 -1.49025e-05 0.0200998)
(3.86943e-06 -1.63013e-05 0.0201206)
(-3.34065e-06 -9.77208e-06 0.0199044)
(-1.37821e-06 -9.72187e-06 0.0199546)
(-5.7789e-07 -9.62749e-06 0.0199919)
(3.53064e-06 -1.06508e-05 0.0200142)
(-5.87956e-06 -7.1293e-06 0.0197791)
(-3.38619e-06 -4.69899e-06 0.0198171)
(-2.0061e-06 -3.43732e-06 0.0198477)
(3.5313e-06 -3.34811e-06 0.0198682)
(1.94914e-06 -9.46235e-06 0.0200794)
(1.61454e-06 -1.15259e-05 0.0201364)
(1.95664e-06 -1.21445e-05 0.0201721)
(2.55327e-06 -1.24319e-05 0.0201893)
(-2.58777e-07 -7.96303e-06 0.0200009)
(4.32478e-07 -8.78053e-06 0.0200556)
(1.09611e-06 -9.24277e-06 0.0200936)
(2.56266e-06 -9.83968e-06 0.0201132)
(-2.00342e-06 -6.1022e-06 0.0198984)
(-8.28468e-07 -5.99894e-06 0.0199472)
(8.71104e-08 -5.9293e-06 0.019984)
(2.40141e-06 -6.32822e-06 0.0200043)
(-3.5578e-06 -4.38791e-06 0.0197722)
(-2.03477e-06 -2.85463e-06 0.0198085)
(-6.93319e-07 -2.00572e-06 0.0198387)
(2.49896e-06 -1.91777e-06 0.0198564)
(1.28019e-06 -6.10142e-06 0.0200764)
(9.90349e-07 -7.43104e-06 0.0201335)
(1.29558e-06 -7.75797e-06 0.0201694)
(1.65274e-06 -7.85405e-06 0.0201867)
(-1.47024e-07 -5.11346e-06 0.0199973)
(2.71432e-07 -5.5602e-06 0.0200516)
(8.13291e-07 -5.80722e-06 0.0200896)
(1.66774e-06 -6.07779e-06 0.0201088)
(-1.24306e-06 -3.87343e-06 0.0198944)
(-5.00424e-07 -3.74785e-06 0.0199424)
(2.4069e-07 -3.68725e-06 0.019979)
(1.58843e-06 -3.84504e-06 0.0199984)
(-2.20799e-06 -2.75314e-06 0.0197676)
(-1.22593e-06 -1.75165e-06 0.019803)
(-1.85228e-07 -1.18779e-06 0.019833)
(1.70468e-06 -1.12689e-06 0.0198495)
(8.5196e-07 -3.92913e-06 0.0200743)
(6.24993e-07 -4.78623e-06 0.0201315)
(8.5851e-07 -4.95547e-06 0.0201676)
(1.07688e-06 -4.98291e-06 0.0201849)
(-7.41866e-08 -3.28326e-06 0.0199949)
(1.87109e-07 -3.5214e-06 0.020049)
(5.80442e-07 -3.64875e-06 0.0200869)
(1.08788e-06 -3.78355e-06 0.020106)
(-7.67805e-07 -2.45913e-06 0.0198917)
(-2.85524e-07 -2.33773e-06 0.0199394)
(2.46681e-07 -2.29034e-06 0.0199757)
(1.04604e-06 -2.35901e-06 0.0199948)
(-1.3703e-06 -1.72837e-06 0.0197646)
(-7.22995e-07 -1.06906e-06 0.0197995)
(1.12896e-08 -7.05076e-07 0.0198293)
(1.14685e-06 -6.7127e-07 0.0198454)
(5.83086e-07 -2.45295e-06 0.0200728)
(4.32822e-07 -2.99052e-06 0.0201302)
(5.97943e-07 -3.08086e-06 0.0201663)
(7.30887e-07 -3.09097e-06 0.0201837)
(-2.47886e-09 -2.04231e-06 0.0199932)
(1.67422e-07 -2.16852e-06 0.0200472)
(4.33967e-07 -2.23672e-06 0.0200851)
(7.34723e-07 -2.31515e-06 0.0201043)
(-4.35159e-07 -1.51057e-06 0.0198899)
(-1.19813e-07 -1.41603e-06 0.0199374)
(2.36765e-07 -1.38796e-06 0.0199737)
(7.09497e-07 -1.4276e-06 0.0199927)
(-8.0735e-07 -1.04361e-06 0.0197626)
(-3.84434e-07 -6.25959e-07 0.0197973)
(1.03116e-07 -4.05527e-07 0.0198269)
(7.81216e-07 -3.9496e-07 0.0198429)
(4.2865e-07 -1.42779e-06 0.0200719)
(3.66718e-07 -1.73924e-06 0.0201293)
(4.83869e-07 -1.79891e-06 0.0201654)
(5.70952e-07 -1.81473e-06 0.0201829)
(8.55716e-08 -1.17817e-06 0.0199922)
(2.06732e-07 -1.24762e-06 0.0200462)
(3.84875e-07 -1.29391e-06 0.020084)
(5.65508e-07 -1.34906e-06 0.0201032)
(-1.70468e-07 -8.57414e-07 0.0198888)
(3.54325e-08 -7.99202e-07 0.0199362)
(2.68174e-07 -7.91521e-07 0.0199724)
(5.45837e-07 -8.2755e-07 0.0199914)
(-3.95634e-07 -5.6422e-07 0.0197614)
(-1.26064e-07 -3.24861e-07 0.019796)
(1.85325e-07 -2.08544e-07 0.0198255)
(5.81068e-07 -2.21541e-07 0.0198415)
(3.65607e-07 -8.49399e-07 0.0200712)
(4.38387e-07 -1.01131e-06 0.0201286)
(5.64525e-07 -1.08066e-06 0.0201648)
(6.64332e-07 -1.12686e-06 0.0201823)
(1.77878e-07 -6.72228e-07 0.0199914)
(3.16679e-07 -7.2054e-07 0.0200454)
(4.81864e-07 -7.69948e-07 0.0200832)
(6.37122e-07 -8.30266e-07 0.0201024)
(1.63796e-08 -4.57674e-07 0.019888)
(1.86846e-07 -4.27791e-07 0.0199353)
(3.88729e-07 -4.36339e-07 0.0199715)
(6.01348e-07 -4.8778e-07 0.0199905)
(-1.22584e-07 -2.49161e-07 0.0197605)
(6.85438e-08 -1.25229e-07 0.019795)
(3.0978e-07 -7.46856e-08 0.0198245)
(5.83267e-07 -1.1375e-07 0.0198404)
(0.00233437 -0.000391223 0.021145)
(0.00234645 -0.00548722 0.0305797)
(0.00199745 -0.00289549 0.0155534)
(0.00690035 -0.00236879 0.0255894)
(0.000814391 0.00217969 0.0109688)
(0.00297762 0.00342271 0.0274227)
(0.00262781 0.00150134 0.0113998)
(0.00435735 0.00125136 0.0282145)
(-0.000742209 0.00210924 0.0151616)
(-0.00143176 0.0056784 0.0239149)
(0.000353831 0.000602977 0.0113251)
(-0.00206883 -0.00305774 0.0296083)
(0.00100343 -0.00470884 0.0192466)
(-6.82897e-05 0.000248423 0.000678441)
(-0.00986149 0.00151703 0.0284794)
(-0.00172462 -0.00122692 0.0121885)
(0.000593382 -0.00083076 0.0220035)
(0.00330384 -0.0030787 0.0263995)
(0.00147289 -0.00450284 0.0140374)
(0.000639111 -0.00304936 0.0201901)
(-0.000148541 -0.000666368 0.0527912)
(0.000688301 -0.00105021 0.0217925)
(0.00282168 -0.00823877 0.0535172)
(0.00397683 -0.00437853 0.0411638)
(-0.00434488 -0.00047762 0.066138)
(-0.00275375 -0.00120697 0.0394232)
(0.00198101 -0.0052928 0.0481805)
(0.0013402 -0.00440388 0.0455012)
(-0.00174336 -0.00263592 0.0395168)
(-0.000507676 -0.00255848 0.0672518)
(0.00127195 -0.00220926 0.017843)
(0.000742251 -0.003764 0.0253213)
(-0.000955276 -0.000777104 0.0433497)
(-0.00683193 0.00164648 0.0427456)
(-0.00777135 0.00724849 0.0378192)