/*--------------------------------*- C++ -*----------------------------------*\
| =========                 |                                                 |
| \\      /  F ield         | OpenFOAM: The Open Source CFD Toolbox           |
|  \\    /   O peration     | Version:  2506                                  |
|   \\  /    A nd           | Website:  www.openfoam.com                      |
|    \\/     M anipulation  |                                                 |
\*---------------------------------------------------------------------------*/
FoamFile
{
    version     2.0;
    format      ascii;
    arch        "LSB;label=32;scalar=64";
    class       volScalarField;
    location    "0.1";
    object      voidfraction;
}
// * * * * * * * * * * * * * * * * * * * * * * * * * * * * * * * * * * * * * //

dimensions      [0 0 0 0 0 0 0];

internalField   nonuniform List<scalar> 
1152
(
0.42593
0.375896
0.41013
0.354829
0.470697
0.460163
0.428563
0.331129
0.39433
0.412763
0.41803
0.52073
0.446997
0.454897
0.436463
0.439097
0.499664
0.45753
0.48913
0.339029
0.454897
0.491764
0.470697
0.470697
0.494397
0.47333
0.460163
0.531264
0.53653
0.483863
0.486497
0.446997
0.423296
0.367996
0.407496
0.44963
0.468063
0.41803
0.357463
0.46543
0.431196
0.396963
0.439097
0.412763
0.515464
0.423296
0.38643
0.354829
0.431196
0.38643
0.38643
0.468063
0.407496
0.383796
0.357463
0.444363
0.360096
0.360096
0.362729
0.468063
0.354829
0.381163
0.39433
0.354829
0.370629
0.346929
0.381163
0.415396
0.420663
0.42593
0.407496
0.360096
0.339029
0.412763
0.375896
0.454897
0.43383
0.373263
0.468063
0.312696
0.373263
0.389063
0.357463
0.341663
0.41803
0.396963
0.381163
0.415396
0.407496
0.39433
0.486497
0.389063
0.494397
0.43383
0.38643
0.312696
0.573397
0.552331
0.578664
0.533897
0.633964
0.541797
0.460163
0.491764
0.604998
0.589197
0.475963
0.541797
0.655031
0.570764
0.46543
0.53653
1
1
1
0.997367
1
0.997367
0.997367
1
1
1
1
1
1
1
1
0.997367
1
1
1
1
1
1
1
1
1
1
1
1
1
1
1
1
1
1
1
1
1
1
1
1
1
1
1
1
1
1
1
1
1
1
1
1
1
1
1
1
1
1
1
1
1
1
1
1
1
1
1
1
1
1
1
1
1
1
1
1
1
1
1
1
1
1
1
1
1
1
1
1
1
1
1
1
1
1
1
1
1
1
1
1
1
1
1
1
1
1
1
1
1
1
1
1
1
1
1
1
1
1
1
1
1
1
1
1
1
1
1
1
1
1
1
1
1
1
1
1
1
1
1
1
1
1
1
1
1
1
1
1
1
1
1
1
1
1
1
1
1
1
1
1
1
1
1
1
1
1
1
1
1
1
1
1
1
1
1
1
1
1
1
1
1
1
1
1
1
1
1
1
1
1
1
1
1
1
1
1
1
1
1
1
1
1
1
1
1
1
1
1
1
1
1
1
1
1
1
1
1
1
1
1
1
1
1
1
1
1
1
1
1
1
1
1
1
1
1
1
1
1
1
1
1
1
1
1
1
1
1
1
1
1
1
1
1
1
1
1
1
1
1
1
1
1
1
1
1
1
1
1
1
1
1
1
0.491801
0.422277
0.526293
0.413628
0.448733
0.390625
0.449189
0.427367
0.427599
0.47379
0.462965
0.442169
0.506302
0.434709
0.481646
0.446992
0.478658
0.489678
0.488396
0.476275
0.506762
0.437713
0.470557
0.453899
0.45854
0.512769
0.507366
0.507447
0.455043
0.47167
0.517854
0.464889
0.391038
0.451164
0.396362
0.46124
0.372572
0.385085
0.347099
0.374305
0.446164
0.427503
0.427022
0.337329
0.444252
0.456451
0.41304
0.411199
0.342847
0.377343
0.355758
0.458734
0.405212
0.437713
0.394583
0.387571
0.399753
0.41045
0.448165
0.38876
0.411879
0.410792
0.393983
0.409409
0.469896
0.419068
0.458621
0.411122
0.347184
0.407244
0.377963
0.442844
0.337872
0.439684
0.450279
0.402607
0.47123
0.452102
0.35968
0.455941
0.329703
0.345248
0.350345
0.313394
0.416093
0.393394
0.394583
0.447266
0.371906
0.415322
0.422793
0.335351
0.436159
0.410792
0.355869
0.504262
0.710852
0.62448
0.615621
0.676744
0.604684
0.587287
0.662866
0.617508
0.631807
0.66381
0.613081
0.754713
0.633099
0.74127
0.683652
0.787029
1
1
1
1
1
1
1
1
1
1
1
1
1
1
1
1
1
1
1
1
1
1
1
1
1
1
1
1
1
1
1
1
1
1
1
1
1
1
1
1
1
1
1
1
1
1
1
1
1
1
1
1
1
1
1
1
1
1
1
1
1
1
1
1
1
1
1
1
1
1
1
1
1
1
1
1
1
1
1
1
1
1
1
1
1
1
1
1
1
1
1
1
1
1
1
1
1
1
1
1
1
1
1
1
1
1
1
1
1
1
1
1
1
1
1
1
1
1
1
1
1
1
1
1
1
1
1
1
1
1
1
1
1
1
1
1
1
1
1
1
1
1
1
1
1
1
1
1
1
1
1
1
1
1
1
1
1
1
1
1
1
1
1
1
1
1
1
1
1
1
1
1
1
1
1
1
1
1
1
1
1
1
1
1
1
1
1
1
1
1
1
1
1
1
1
1
1
1
1
1
1
1
1
1
1
1
1
1
1
1
1
1
1
1
1
1
1
1
1
1
1
1
1
1
1
1
1
1
1
1
1
1
1
1
1
1
1
1
1
1
1
1
1
1
1
1
1
1
1
1
1
1
1
1
1
1
1
1
1
1
1
1
1
1
1
1
1
1
1
1
1
1
0.455941
0.456016
0.378727
0.456228
0.428286
0.446051
0.399331
0.488396
0.473844
0.47379
0.440483
0.515355
0.468532
0.381189
0.488628
0.417324
0.412989
0.414476
0.389782
0.433675
0.494986
0.437593
0.494298
0.499224
0.53907
0.481099
0.49865
0.508936
0.482022
0.532797
0.459614
0.465515
0.421937
0.436235
0.442844
0.466251
0.3997
0.427022
0.368467
0.377414
0.508631
0.395833
0.374005
0.338829
0.428065
0.461634
0.434226
0.412943
0.430885
0.461951
0.403047
0.431169
0.374926
0.441822
0.423073
0.377414
0.456451
0.429939
0.346306
0.415858
0.436159
0.446164
0.390705
0.412943
0.466679
0.418432
0.352196
0.358499
0.405417
0.424908
0.411202
0.372
0.393399
0.417758
0.368465
0.419068
0.44695
0.396659
0.426973
0.373514
0.421937
0.497557
0.394203
0.386064
0.407323
0.427022
0.401705
0.361172
0.367308
0.459173
0.432173
0.447954
0.433461
0.356436
0.408839
0.382276
0.713653
0.812078
0.732477
0.784496
0.727483
0.623653
0.639124
0.583138
0.649954
0.634576
0.620525
0.589175
0.55756
0.563738
0.622818
0.697709
1
1
1
1
1
1
1
1
1
1
1
1
0.997302
1
1
1
1
1
1
1
1
1
1
1
1
1
1
1
1
1
1
1
1
1
1
1
1
1
1
1
1
1
1
1
1
1
1
1
1
1
1
1
1
1
1
1
1
1
1
1
1
1
1
1
1
1
1
1
1
1
1
1
1
1
1
1
1
1
1
1
1
1
1
1
1
1
1
1
1
1
1
1
1
1
1
1
1
1
1
1
1
1
1
1
1
1
1
1
1
1
1
1
1
1
1
1
1
1
1
1
1
1
1
1
1
1
1
1
1
1
1
1
1
1
1
1
1
1
1
1
1
1
1
1
1
1
1
1
1
1
1
1
1
1
1
1
1
1
1
1
1
1
1
1
1
1
1
1
1
1
1
1
1
1
1
1
1
1
1
1
1
1
1
1
1
1
1
1
1
1
1
1
1
1
1
1
1
1
1
1
1
1
1
1
1
1
1
1
1
1
1
1
1
1
1
1
1
1
1
1
1
1
1
1
1
1
1
1
1
1
1
1
1
1
1
1
1
1
1
1
1
1
1
1
1
1
1
1
1
1
1
1
1
1
1
1
1
1
1
1
1
1
1
1
1
1
1
1
1
1
1
1
)
;

boundaryField
{
    inlet
    {
        type            fixedValue;
        value           uniform 1;
    }
    outlet
    {
        type            fixedValue;
        value           uniform 1;
    }
    wall
    {
        type            zeroGradient;
    }
    procBoundary2to0
    {
        type            processor;
        value           nonuniform List<scalar> 
192
(
0.40223
0.53653
0.475963
0.420663
0.486497
0.468063
0.475963
0.48913
0.41803
0.454897
0.349563
0.360096
0.41803
0.49703
0.420663
0.48913
0.415396
0.39433
0.370629
0.412763
0.531264
0.375896
0.367996
0.428563
0.657665
0.539164
0.478597
0.507564
1
1
1
0.997367
1
1
1
1
1
1
1
1
1
1
1
1
1
1
1
1
1
1
1
1
1
1
1
1
1
1
1
1
1
1
1
1
1
1
1
1
1
1
1
1
1
1
1
1
1
1
1
1
1
1
1
1
1
1
1
1
1
1
1
1
1
1
1
1
0.425516
0.42041
0.462742
0.456228
0.482786
0.531185
0.500328
0.486298
0.377195
0.390738
0.325664
0.428663
0.418358
0.37887
0.361039
0.408616
0.387933
0.34722
0.427367
0.431169
0.418358
0.426344
0.427367
0.421146
0.640277
0.679544
0.756797
0.67925
1
1
1
1
1
1
1
1
1
1
1
1
1
1
1
1
1
1
1
1
1
1
1
1
1
1
1
1
1
1
1
1
1
1
1
1
1
1
1
1
1
1
1
1
1
1
1
1
1
1
1
1
1
1
1
1
1
1
1
1
1
1
1
1
1
1
1
1
)
;
    }
    procBoundary2to3
    {
        type            processor;
        value           nonuniform List<scalar> 
192
(
0.591831
0.53653
0.344296
0.460163
0.518097
0.47333
0.452263
0.491764
0.486497
0.323229
0.399596
0.38643
0.257395
0.412763
0.362729
0.404863
0.341663
0.357463
0.38643
0.420663
0.483863
0.45753
0.381163
0.499664
0.454897
0.52863
0.53653
0.431196
1
1
1
1
1
1
1
1
1
1
1
1
1
1
1
1
1
1
1
1
1
1
1
1
1
1
1
1
1
1
1
1
1
1
1
1
1
1
1
1
1
1
1
1
1
1
1
1
1
1
1
1
1
1
1
1
1
1
1
1
1
1
1
1
1
1
1
1
0.471263
0.400836
0.499535
0.382564
0.428663
0.495906
0.529207
0.56869
0.396087
0.40968
0.434257
0.386144
0.335946
0.391992
0.410519
0.400461
0.398593
0.347774
0.305679
0.314557
0.476275
0.383149
0.424366
0.377195
0.476275
0.66836
0.689435
0.751236
1
1
1
1
1
1
1
1
1
1
1
1
1
1
1
1
1
1
1
1
1
1
1
1
1
1
1
1
1
1
1
1
1
1
1
1
1
1
1
1
1
1
1
1
1
1
1
1
1
1
1
1
1
1
1
1
1
1
1
1
1
1
1
1
1
1
1
1
)
;
    }
}


// ************************************************************************* //
