/*--------------------------------*- C++ -*----------------------------------*\
| =========                 |                                                 |
| \\      /  F ield         | OpenFOAM: The Open Source CFD Toolbox           |
|  \\    /   O peration     | Version:  2506                                  |
|   \\  /    A nd           | Website:  www.openfoam.com                      |
|    \\/     M anipulation  |                                                 |
\*---------------------------------------------------------------------------*/
FoamFile
{
    version     2.0;
    format      ascii;
    arch        "LSB;label=32;scalar=64";
    class       volScalarField;
    location    "0.004";
    object      p;
}
// * * * * * * * * * * * * * * * * * * * * * * * * * * * * * * * * * * * * * //

dimensions      [0 2 -2 0 0 0 0];

internalField   nonuniform List<scalar> 
512
(
14.1436
25.4748
33.5933
42.2123
53.3955
64.7264
65.2894
50.5851
31.2725
25.4801
20.7711
5.79945
-6.07154
-9.33641
-15.4294
-23.2342
-27.4716
-30.9943
-34.3405
-35.8856
-35.04
-25.5676
-12.7781
-9.30497
-9.66698
-7.04653
-2.39354
-5.24129
-16.5904
-19.8586
-13.3497
-0.861998
12.8472
22.4259
32.2483
43.1519
53.0412
62.153
63.2934
50.1008
30.2834
22.3343
16.8772
5.39485
-5.5809
-11.2082
-15.0975
-20.8133
-24.9631
-27.2248
-32.0582
-36.0861
-35.6693
-28.3731
-16.4129
-10.5492
-8.98491
-4.78955
0.58947
-1.17873
-11.6877
-19.6476
-14.6317
-2.29568
14.7394
21.2067
30.1855
40.8484
48.7769
57.443
60.7375
49.0663
28.8233
20.7044
15.9463
3.48598
-8.52192
-13.5728
-15.2168
-18.5327
-21.0215
-25.0536
-31.6924
-35.2256
-34.9142
-27.1854
-17.0939
-12.1869
-8.70185
-1.5913
3.88972
0.631418
-9.20984
-16.7371
-11.1184
1.40347
19.3732
23.9414
26.375
32.7799
41.312
50.443
55.9937
49.9245
33.4591
16.7762
7.10967
-1.4866
-5.24649
-8.72466
-13.893
-17.5682
-21.6679
-28.7433
-32.9149
-33.4391
-30.0886
-22.5014
-15.2434
-11.298
-8.08928
-1.93617
2.4498
0.941885
-6.55162
-8.33399
-3.69048
7.47275
20.6125
22.9462
26.0435
30.387
37.2321
42.5869
47.8747
48.5135
37.4057
16.6887
3.94338
-1.06272
-4.48442
-6.66169
-10.2188
-17.1314
-27.1673
-32.0205
-32.4068
-30.7799
-25.9599
-18.1955
-13.5301
-10.9284
-10.4406
-6.18805
-2.23169
-2.3596
2.50026
2.8086
-0.554828
10.012
16.4619
22.9436
28.3959
32.5145
36.716
39.6005
41.1222
43.8428
37.7922
19.8154
9.05335
3.49961
-2.69394
-6.86942
-10.6186
-19.6292
-28.1594
-30.7653
-29.7401
-27.809
-25.2638
-21.6001
-17.6187
-13.6221
-12.3368
-16.0818
-14.7323
-5.39936
10.3871
17.8629
11.1452
9.87612
19.1934
28.0286
32.5819
31.8308
34.6749
37.5409
37.607
40.3591
37.5176
24.5429
13.2291
6.48594
-2.1914
-10.3905
-13.3714
-18.94
-26.9945
-27.0678
-24.7398
-24.8127
-26.8441
-28.4018
-23.9871
-18.9414
-21.2216
-23.0381
-17.3424
-5.19239
10.4473
22.0447
20.9156
15.3601
24.4673
32.5958
34.7611
30.8815
33.9488
36.8116
32.8778
34.6392
35.3759
27.0573
15.1156
7.50098
0.796158
-6.62951
-12.6785
-19.3627
-26.7458
-24.9668
-21.4837
-25.0687
-30.6026
-29.4996
-28.7376
-28.7431
-27.9647
-23.9938
-15.9104
-4.54594
9.7823
21.1926
23.9991
20.9378
14.8473
18.1848
26.8862
40.3666
53.5249
61.9304
62.1197
48.8182
29.2872
20.2997
14.3405
4.0681
-6.82431
-11.4639
-13.1142
-19.5324
-25.4376
-26.6587
-27.4117
-27.9136
-29.5705
-29.1239
-21.2813
-17.0076
-14.017
-7.88606
-2.1049
-2.94866
-12.2607
-10.6563
-1.91264
7.93861
10.9831
19.2283
30.2622
43.1553
53.9963
59.8195
58.6079
45.574
28.1906
19.6917
14.5706
4.25925
-6.90726
-12.996
-14.5741
-18.7104
-24.3206
-25.3836
-24.8217
-28.5837
-34.4598
-29.5133
-19.4433
-15.0461
-11.5926
-5.37348
-0.652712
-3.00176
-10.0133
-8.73781
-2.00451
2.64059
10.6761
18.051
30.5427
42.5284
49.4076
55.6051
56.8681
45.0797
26.2432
17.9045
13.1033
2.09317
-7.70327
-11.6019
-14.2601
-19.2227
-23.0745
-25.4538
-26.7008
-28.9485
-32.564
-27.1548
-18.9796
-13.4777
-8.37241
-2.09221
1.18101
-2.69426
-9.68262
-7.82667
-0.841337
4.61138
16.3656
19.9811
25.7231
34.126
42.0665
49.806
53.0151
45.4226
29.8196
13.1349
5.79898
-0.17882
-4.04856
-6.76015
-11.4178
-18.189
-22.0992
-26.8496
-30.626
-29.9473
-27.2509
-23.0049
-16.9417
-10.7857
-5.89562
-0.468081
1.84754
-3.33759
-6.65832
-5.17856
-0.829965
8.90357
15.619
18.8347
23.6722
31.8839
38.9037
43.6104
45.4687
43.8215
33.0121
13.8053
4.74593
0.193566
-2.59636
-3.95997
-8.52638
-17.2024
-24.1788
-29.8478
-31.4615
-28.3923
-23.8626
-18.239
-13.7915
-10.5028
-8.69849
-4.54301
-1.90332
-2.48843
2.23881
2.71839
1.27981
8.3002
13.2241
18.8929
26.8869
32.9538
35.4696
38.1123
40.8273
41.3189
35.5441
21.0674
8.54793
3.7383
0.215679
-5.47288
-12.53
-19.3107
-24.7359
-29.8653
-28.7694
-25.4859
-22.7258
-17.7081
-15.3339
-17.7964
-14.9884
-10.5787
-8.33917
-1.64065
8.36406
10.9515
6.29675
8.04042
17.0557
22.6863
29.4543
32.2786
32.8197
34.8808
37.25
38.8274
35.5994
24.9524
13.7496
8.43456
2.01872
-6.94214
-15.7093
-22.6932
-26.0719
-25.6293
-23.4683
-21.1875
-22.4568
-23.668
-22.2801
-23.7197
-20.1088
-14.3538
-10.0105
-1.31102
8.25844
12.2077
12.2858
13.7351
21.9537
25.9271
31.4371
32.4672
30.8009
32.2328
32.7699
33.1813
32.6674
27.1463
18.0271
11.9544
6.76152
-2.77596
-16.3601
-26.584
-28.1559
-24.0921
-21.0434
-22.7457
-24.9531
-25.7227
-28.8318
-28.0367
-21.8659
-14.9225
-9.74586
-1.95513
7.26121
11.0402
15.8937
19.6226
)
;

boundaryField
{
    wall
    {
        type            zeroGradient;
    }
    outlet
    {
        type            cyclic;
    }
    inlet
    {
        type            cyclic;
    }
    procBoundary2to1
    {
        type            processor;
        value           nonuniform List<scalar> 
256
(
8.95928
30.8517
45.2855
47.0068
55.3196
67.4214
64.7471
45.9909
33.593
30.7839
23.7281
5.886
-8.14669
-9.22813
-10.1397
-17.0589
-24.4442
-32.2031
-40.2162
-42.5658
-37.3694
-24.6392
-10.9132
-0.517246
0.667303
-6.97547
-4.6457
-4.29179
-16.8816
-30.7718
-27.4028
-11.5255
10.6241
30.3423
42.747
44.5282
52.5952
65.1712
63.9608
45.991
31.6397
27.2696
21.3951
7.66357
-6.53848
-9.37036
-10.7077
-16.5818
-22.3342
-28.4314
-36.8097
-42.1176
-38.7077
-26.8055
-13.4315
-3.46682
-1.30062
-5.75457
-2.74268
-2.24051
-13.869
-27.6057
-25.6323
-9.94066
14.7214
30.0854
36.0055
39.8908
48.4228
59.2857
61.4446
48.6923
31.0712
24.6442
18.596
4.87051
-5.50895
-8.43973
-12.8738
-18.7441
-19.891
-23.9665
-33.7257
-41.2495
-38.9883
-26.8916
-13.4206
-6.75572
-5.38547
-3.58293
-0.508369
-2.83549
-10.5328
-20.3818
-19.7089
-5.21548
18.4011
28.1954
30.5506
35.4807
43.2847
52.7874
57.7125
48.8088
33.1753
21.7335
11.2761
2.91103
-1.77632
-8.09506
-16.1534
-18.7659
-21.0449
-27.3714
-33.2591
-38.17
-33.6374
-22.715
-13.5107
-8.35996
-6.85665
-4.72549
-3.49499
-4.82994
-5.34823
-9.06478
-10.0812
1.7813
20.6924
26.7898
29.0511
31.8182
39.5046
46.919
51.0571
46.0562
32.3971
22.1376
11.795
0.519822
-2.16055
-4.6913
-12.2448
-20.2637
-27.8973
-30.0559
-31.3158
-33.3324
-28.5065
-20.4202
-17.5284
-13.1898
-7.86295
-7.4581
-9.06141
-7.95115
1.24741
6.30518
-0.182924
7.13572
20.0822
22.8648
28.079
35.1559
40.4728
43.3918
44.0265
41.1634
31.796
23.7921
16.1283
4.72173
-2.81227
-7.93595
-12.5964
-20.2182
-27.6391
-29.7394
-29.4869
-28.9882
-28.7191
-27.8725
-24.322
-16.5577
-11.1971
-15.5643
-18.7277
-8.66104
10.2704
19.7175
14.2774
13.5433
21.6138
25.1165
30.8934
36.8282
38.7057
38.1082
39.5025
38.8356
32.1023
25.7205
18.2427
6.54626
-3.50274
-10.0985
-12.4457
-16.5651
-23.9966
-28.3036
-28.4472
-27.3659
-31.2938
-34.0829
-27.9362
-19.399
-18.9958
-26.7214
-22.6457
-8.11105
11.055
26.7692
29.3939
21.2028
25.1985
31.4636
35.0542
34.4759
35.3743
36.403
36.7511
36.3253
31.9037
26.3414
18.1277
6.61392
-2.33934
-9.89022
-11.3776
-14.1756
-22.9374
-26.1842
-26.625
-28.4281
-35.4745
-36.4288
-28.9281
-23.0608
-27.2333
-32.8583
-23.3201
-6.70988
11.7114
29.6635
35.7044
26.1653
)
;
    }
    procBoundary2to3
    {
        type            processor;
        value           nonuniform List<scalar> 
256
(
12.6057
20.4355
28.0347
40.1948
51.2911
56.8644
55.7262
44.1757
25.7053
15.8929
10.1897
2.24787
-6.6039
-10.9612
-11.535
-14.6586
-19.6963
-23.1423
-24.4981
-25.1121
-26.7985
-28.823
-23.6678
-17.9631
-12.739
-5.44544
-1.87475
-4.11351
-9.90287
-7.06745
0.231544
5.51879
12.3384
21.0994
30.3519
41.7904
51.2952
54.5681
50.0997
37.338
25.0415
17.99
11.6608
3.15444
-5.09695
-10.9897
-12.0453
-15.7572
-21.1726
-23.5122
-22.1131
-25.8139
-31.2263
-27.5836
-19.9128
-14.7644
-10.5657
-5.46555
-2.04267
-3.96938
-8.72176
-6.56215
-1.12289
4.17546
11.5173
20.9827
31.3204
40.7422
47.622
51.1951
47.6936
34.5888
23.9604
16.7226
10.7189
4.21742
-2.31364
-8.77035
-12.5621
-16.7574
-21.7063
-24.6357
-25.4393
-27.7273
-29.3816
-24.7421
-17.7775
-11.6129
-5.595
-1.44336
-1.5201
-5.2139
-8.85843
-6.18623
-0.000330952
3.98618
12.8725
19.736
27.8171
36.3607
43.7903
47.5086
44.033
34.6793
24.4626
15.2855
7.87906
3.49818
0.0496447
-4.08802
-10.743
-18.4941
-22.8815
-25.8899
-27.4227
-27.7849
-26.3162
-21.7708
-16.295
-9.50275
-4.00618
-1.49442
-1.54924
-4.15259
-5.87603
-3.34295
0.172615
5.98578
12.5663
17.794
25.4578
33.9851
40.3893
43.0185
42.0811
36.1926
25.6459
15.6468
8.8479
4.02287
1.11846
-2.55408
-10.64
-17.5808
-21.2172
-26.0221
-29.5065
-27.2895
-23.5943
-18.8362
-15.1129
-11.0596
-8.00636
-5.37532
-2.21042
-1.29144
0.218795
1.02454
2.24842
7.51352
13.5814
18.5704
26.287
33.1641
36.9805
39.0651
39.6468
35.0239
26.6704
19.8628
13.6724
7.74381
2.27263
-5.41507
-13.8733
-18.9616
-22.5477
-26.109
-26.7807
-24.1483
-21.6968
-18.2226
-17.4436
-19.16
-14.1308
-7.97561
-1.66108
1.96388
3.19916
2.82528
4.87261
8.91864
15.8888
20.5409
27.6681
31.609
32.1746
33.8958
35.4234
33.1466
28.6554
24.422
19.8897
14.4344
6.57839
-5.48788
-16.7319
-24.2684
-26.9644
-25.594
-22.0891
-19.5723
-19.6998
-21.321
-23.0924
-22.935
-16.9247
-7.9138
-2.30976
0.82445
2.64729
3.87594
8.44743
13.5602
19.1133
23.9267
28.5309
28.6724
28.374
29.8314
30.5387
31.1795
30.6186
28.8529
23.6319
17.1392
10.8073
1.16926
-16.6349
-30.7636
-31.7622
-26.8432
-20.2224
-18.6926
-22.4591
-25.0551
-25.7659
-22.9938
-16.4181
-6.65219
-1.06174
-0.225281
-0.0198757
4.13953
11.7284
16.6983
)
;
    }
}


// ************************************************************************* //
