/*--------------------------------*- C++ -*----------------------------------*\
| =========                 |                                                 |
| \\      /  F ield         | OpenFOAM: The Open Source CFD Toolbox           |
|  \\    /   O peration     | Version:  2506                                  |
|   \\  /    A nd           | Website:  www.openfoam.com                      |
|    \\/     M anipulation  |                                                 |
\*---------------------------------------------------------------------------*/
FoamFile
{
    version     2.0;
    format      ascii;
    arch        "LSB;label=32;scalar=64";
    class       volScalarField;
    location    "0.06";
    object      Ksl;
}
// * * * * * * * * * * * * * * * * * * * * * * * * * * * * * * * * * * * * * //

dimensions      [1 -3 -1 0 0 0 0];

internalField   nonuniform List<scalar> 
1152
(
211536
125362
221988
190715
121225
237220
179120
207618
180349
173273
242800
140689
207898
246935
257077
305281
561545
176294
242824
257944
250848
211775
211853
264772
304752
311003
212562
246085
241156
310193
178154
194516
167959
184915
210837
233688
260272
239418
250149
240964
280520
175985
253077
243032
226613
389766
241283
234117
337387
228620
314363
217116
204382
198921
218414
218917
299419
248595
301672
247026
202497
183241
209441
315612
267935
284516
238976
258290
454722
265482
227815
235448
173509
210691
195841
196507
371411
129161
292608
135116
201722
224339
291772
248590
173051
303059
231628
233825
251584
166531
273015
373689
310709
248928
306027
198394
47269.8
53104.1
82296
39613.5
154925
140161
107619
57633.4
89171.6
68218.9
152362
79934.6
165631
90594.5
139890
30404.5
0
0
0
0
0
0
0
0
0
0
798.341
0
0
477.771
512.841
0
0
0
0
0
0
0
0
0
0
0
0
0
0
0
0
0
0
0
0
0
0
0
0
0
0
0
0
0
0
0
0
0
0
0
0
0
0
0
0
0
0
0
0
0
0
0
0
0
0
0
0
0
0
0
0
0
0
0
0
0
0
0
0
0
0
0
0
0
0
0
0
0
0
0
0
0
0
0
0
0
0
0
0
0
0
0
0
0
0
0
0
0
0
0
0
0
0
0
0
0
0
0
0
0
0
0
0
0
0
0
0
0
0
0
0
0
0
0
0
0
0
0
0
0
0
0
0
0
0
0
0
0
0
0
0
0
0
0
0
0
0
0
0
0
0
0
0
0
0
0
0
0
0
0
0
0
0
0
0
0
0
0
0
0
0
0
0
0
0
0
0
0
0
0
0
0
0
0
0
0
0
0
0
0
0
0
0
0
0
0
0
0
0
0
0
0
0
0
0
0
0
0
0
0
0
0
0
0
0
0
0
0
0
0
0
0
0
0
0
0
0
0
0
0
0
0
0
0
0
0
0
0
0
0
0
0
0
0
0
0
0
0
0
0
0
0
0
0
0
0
0
0
0
0
0
0
173998
226553
138387
216432
209425
241767
199564
207380
160443
160675
200830
165693
124758
197350
164886
249324
208218
198640
157414
202853
259033
160885
308871
239990
178484
234033
222206
101826
262201
248616
277973
255994
198229
205810
204515
164432
199596
212997
229530
239528
257500
226711
138852
320495
290509
290154
210279
230163
187909
215150
226145
141401
234545
262742
275082
263562
220573
167982
278966
174828
363209
265082
258661
326617
174305
243780
148937
209664
284971
297553
179222
341403
160314
189316
192078
381087
198284
169770
296863
200172
190102
157106
243035
185265
231545
315951
205137
181214
256243
287953
359472
222119
127323
216051
210488
251016
55893.6
53697.9
47078.8
138002
49548.5
45620.4
76401.3
87823
42090
20636.7
32299.7
73731.9
38821.7
80936
19663.3
35848.2
0
0
0
0
0
0
0
0
0
0
0
0
0
0
0
0
0
0
0
0
0
0
0
0
0
0
0
0
0
0
0
0
0
0
0
0
0
0
0
0
0
0
0
0
0
0
0
0
0
0
0
0
0
0
0
0
0
0
0
0
0
0
0
0
0
0
0
0
0
0
0
0
0
0
0
0
0
0
0
0
0
0
0
0
0
0
0
0
0
0
0
0
0
0
0
0
0
0
0
0
0
0
0
0
0
0
0
0
0
0
0
0
0
0
0
0
0
0
0
0
0
0
0
0
0
0
0
0
0
0
0
0
0
0
0
0
0
0
0
0
0
0
0
0
0
0
0
0
0
0
0
0
0
0
0
0
0
0
0
0
0
0
0
0
0
0
0
0
0
0
0
0
0
0
0
0
0
0
0
0
0
0
0
0
0
0
0
0
0
0
0
0
0
0
0
0
0
0
0
0
0
0
0
0
0
0
0
0
0
0
0
0
0
0
0
0
0
0
0
0
0
0
0
0
0
0
0
0
0
0
0
0
0
0
0
0
0
0
0
0
0
0
0
0
0
0
0
0
0
0
0
0
0
0
0
0
0
0
0
0
0
0
0
0
0
0
0
0
0
0
0
0
222305
185763
171416
196403
165085
198607
204203
147945
269519
194616
157314
179767
146540
300289
110725
142603
177825
141298
343888
115444
227391
309234
296302
175780
243625
237572
363364
243041
209038
246172
231826
174902
271773
256347
300085
213394
218584
232273
173507
233775
197454
160309
204210
194341
198119
196362
201511
323161
312985
258127
278816
200713
220909
229728
176921
262726
255828
243932
232478
167258
177454
344179
151373
218947
196512
433014
202121
132312
188352
352244
188890
223578
288479
196343
281134
245631
217388
207917
199642
194618
145145
305444
248970
199172
100960
191783
170454
213779
248943
233383
213156
176579
243597
281318
298932
325201
75743.8
100888
79878.9
47863.6
57834.4
41585.1
81542.2
111256
24273.3
31821.6
30056.9
166177
70082.8
24176.6
64508.8
46828
0
0
0
0
0
0
0
0
0
0
0
284.076
0
0
0
0
0
0
0
0
0
0
0
0
0
0
0
0
0
0
0
0
0
0
0
0
0
0
0
0
0
0
0
0
0
0
0
0
0
0
0
0
0
0
0
0
0
0
0
0
0
0
0
0
0
0
0
0
0
0
0
0
0
0
0
0
0
0
0
0
0
0
0
0
0
0
0
0
0
0
0
0
0
0
0
0
0
0
0
0
0
0
0
0
0
0
0
0
0
0
0
0
0
0
0
0
0
0
0
0
0
0
0
0
0
0
0
0
0
0
0
0
0
0
0
0
0
0
0
0
0
0
0
0
0
0
0
0
0
0
0
0
0
0
0
0
0
0
0
0
0
0
0
0
0
0
0
0
0
0
0
0
0
0
0
0
0
0
0
0
0
0
0
0
0
0
0
0
0
0
0
0
0
0
0
0
0
0
0
0
0
0
0
0
0
0
0
0
0
0
0
0
0
0
0
0
0
0
0
0
0
0
0
0
0
0
0
0
0
0
0
0
0
0
0
0
0
0
0
0
0
0
0
0
0
0
0
0
0
0
0
0
0
0
0
0
0
0
0
0
0
0
0
0
0
0
0
0
0
0
0
0
)
;

boundaryField
{
    inlet
    {
        type            zeroGradient;
    }
    outlet
    {
        type            zeroGradient;
    }
    wall
    {
        type            zeroGradient;
    }
    procBoundary1to0
    {
        type            processor;
        value           nonuniform List<scalar> 
192
(
140014
201130
205787
104973
199232
259273
355553
181651
247934
293808
139356
170954
179326
240576
247419
486069
173497
123209
255122
203778
287345
284206
177451
162963
42251
63806.4
81765.6
79685.2
0
0
0
0
0
0
0
0
0
0
0
0
0
0
0
0
0
0
0
0
0
0
0
0
0
0
0
0
0
0
0
0
0
0
0
0
0
0
0
0
0
0
0
0
0
0
0
0
0
0
0
0
0
0
0
0
0
0
0
0
0
0
0
0
0
0
0
0
224293
196323
226771
302265
224394
205545
229830
216554
182018
245289
227588
244532
263576
140040
248693
199590
208373
278964
386204
272248
203411
226166
269615
323681
48985.9
27922
37194.2
40131.1
0
0
0
0
0
0
0
0
0
0
0
0
0
0
0
0
0
0
0
0
0
0
0
0
0
0
0
0
0
0
0
0
0
0
0
0
0
0
0
0
0
0
0
0
0
0
0
0
0
0
0
0
0
0
0
0
0
0
0
0
0
0
0
0
0
0
0
0
)
;
    }
    procBoundary1to3
    {
        type            processor;
        value           nonuniform List<scalar> 
192
(
190748
154065
115533
229549
182508
170220
252554
312827
298048
311644
183453
138173
224166
344542
271806
175857
135320
550266
166704
291917
306659
119988
283927
365347
39510.7
85982.4
45179.6
21514.3
0
0
0
0
0
0
0
0
0
0
0
0
0
0
0
0
0
0
0
0
0
0
0
0
0
0
0
0
0
0
0
0
0
0
0
0
0
0
0
0
0
0
0
0
0
0
0
0
0
0
0
0
0
0
0
0
0
0
0
0
0
0
0
0
0
0
0
0
236471
148846
284503
243325
273586
185203
131486
248434
357201
289908
391314
170554
279902
265348
213948
306770
287758
220225
245426
192044
189529
191135
181904
185785
34134.1
35055.1
45913.4
42055.3
0
0
0
0
0
0
0
0
0
0
0
0
0
0
0
0
0
0
0
0
0
0
0
0
0
0
0
0
0
0
0
0
0
0
0
0
0
0
0
0
0
0
0
0
0
0
0
0
0
0
0
0
0
0
0
0
0
0
0
0
0
0
0
0
0
0
0
0
)
;
    }
}


// ************************************************************************* //
