/*--------------------------------*- C++ -*----------------------------------*\
| =========                 |                                                 |
| \\      /  F ield         | OpenFOAM: The Open Source CFD Toolbox           |
|  \\    /   O peration     | Version:  2506                                  |
|   \\  /    A nd           | Website:  www.openfoam.com                      |
|    \\/     M anipulation  |                                                 |
\*---------------------------------------------------------------------------*/
FoamFile
{
    version     2.0;
    format      ascii;
    arch        "LSB;label=32;scalar=64";
    class       volVectorField;
    location    "0.06";
    object      U;
}
// * * * * * * * * * * * * * * * * * * * * * * * * * * * * * * * * * * * * * //

dimensions      [0 1 -1 0 0 0 0];

internalField   nonuniform List<vector> 
1152
(
(6.89593e-05 -0.00045483 0.013256)
(0.000381784 -0.00096123 0.0243247)
(-0.000591823 -0.000397054 0.0130815)
(0.00212095 -0.00158708 0.0145751)
(-0.000292772 -0.000352659 0.0231454)
(-0.000285156 -0.00175806 0.0114062)
(-8.55641e-05 -0.000921405 0.0159627)
(0.000730342 0.000165309 0.0131835)
(-0.000573704 0.000324297 0.0151644)
(0.000681944 -0.000677187 0.017624)
(0.0019064 0.000540239 0.010592)
(0.00100689 0.000715222 0.0209677)
(-0.00197425 0.00213928 0.013019)
(0.00102014 0.00155658 0.0101705)
(0.00214895 0.00206253 0.00911489)
(0.00187838 0.000117094 0.0082867)
(-0.000229899 0.000129889 0.00806135)
(0.00023834 0.000550422 0.0355304)
(0.0011577 -0.000540844 0.0251046)
(0.000476454 -0.000656964 0.0216575)
(0.000774503 -0.000551597 0.0247313)
(0.00258001 0.00103439 0.0299617)
(0.000969606 -9.52731e-05 0.0296869)
(0.00110746 -0.000147453 0.0233716)
(-0.00137081 0.00232805 0.0196605)
(0.0014978 -0.000252487 0.0188703)
(0.00107018 0.000512762 0.0286879)
(0.00192671 0.00124519 0.0257111)
(0.000965462 0.00096164 0.0258439)
(0.00158193 -0.000744932 0.0193455)
(0.00286289 -0.00122804 0.0357932)
(0.000716046 0.00427447 0.0340678)
(-0.0020654 0.00084973 0.0389485)
(-0.000763458 0.00010479 0.0368679)
(0.000608436 0.000171229 0.0321005)
(8.00166e-05 0.00206357 0.0270843)
(0.000138873 0.000491185 0.0254708)
(-0.000197095 0.00150713 0.0273545)
(0.0012392 0.000298292 0.0266214)
(0.0012142 0.00054198 0.027157)
(0.000696435 0.000133706 0.0238501)
(0.000242264 0.00179649 0.0389363)
(-0.000124983 -1.96461e-05 0.0260574)
(0.00151363 5.88719e-05 0.0276095)
(0.00278096 -0.00076083 0.0295964)
(0.000253038 -0.0017297 0.0154339)
(-0.00168085 -0.000330587 0.026739)
(0.000745663 0.000267792 0.0286952)
(-0.000984536 -0.000472449 0.0181268)
(0.00015024 -0.00154908 0.0295966)
(0.00140372 0.00075916 0.0198939)
(0.0019641 0.000845174 0.0309057)
(-0.00273058 0.00221802 0.0321603)
(0.000734822 0.00191251 0.0328091)
(0.00119557 0.00216827 0.0294552)
(0.0010272 0.00126287 0.0302686)
(0.00127143 0.00028376 0.0200545)
(8.05784e-05 0.00238388 0.0257545)
(0.000648649 0.00057122 0.0207514)
(-0.000723622 0.00162318 0.0256552)
(0.0033011 0.000798462 0.0323956)
(0.000381691 -0.000227725 0.0363852)
(-0.000598846 -0.000933112 0.0312985)
(-0.000420533 -0.0010297 0.0204153)
(0.000529728 -0.00123127 0.0235607)
(-0.000743358 -0.000980563 0.0221504)
(0.000364272 -0.000721713 0.0268049)
(0.00138275 0.000228491 0.0245926)
(-0.000435928 -0.000164983 0.0113055)
(-0.000598163 0.000180889 0.0222149)
(0.00141536 -0.000121168 0.0270076)
(0.00272709 -0.00034108 0.0267878)
(-0.000466329 -0.000532236 0.0361173)
(-0.000462603 0.00131968 0.0296649)
(-0.000360207 0.000391917 0.0310876)
(0.00153922 0.000449556 0.0331242)
(-0.000819176 0.000285565 0.0148936)
(2.3957e-05 0.00485354 0.0494299)
(0.0004629 0.000836533 0.0201345)
(0.000876804 5.12145e-06 0.0529246)
(-0.000373549 -0.0028727 0.0197098)
(-0.00049203 -0.00169756 0.0172854)
(0.000254162 -0.00301316 0.0128023)
(-0.000536377 -0.000842768 0.0153373)
(0.00077629 -0.00308071 0.0241421)
(9.58801e-05 -0.00155747 0.0131492)
(0.00174199 -0.00287915 0.0175955)
(0.00135887 -0.00120139 0.0165661)
(-0.000521147 0.000396147 0.0156947)
(-0.000832104 -0.000902273 0.0252901)
(0.00112153 0.000211187 0.0138917)
(0.00218509 0.000292831 0.0100835)
(-0.000974279 0.00158514 0.0121686)
(0.00018308 0.00117175 0.0158305)
(0.00189445 0.00208074 0.0128278)
(0.00244382 0.00361112 0.0205727)
(-0.000489374 0.000765755 0.0197405)
(0.000165174 0.000176483 0.0176795)
(-0.000131397 -4.83878e-05 0.0119341)
(-0.000565342 -5.03419e-06 0.0197244)
(8.39017e-05 0.000371783 0.0089163)
(-0.000138462 -3.16743e-05 0.00998431)
(-7.62326e-05 9.02443e-05 0.0125774)
(-0.000225876 0.000126882 0.0174224)
(-0.000212473 0.000383007 0.0162956)
(0.000213744 -0.000177245 0.0215846)
(2.97224e-05 1.14199e-05 0.00985216)
(-0.000473017 -0.000213558 0.0135967)
(-0.000238051 2.31067e-05 0.00807207)
(-0.000143627 0.000240773 0.0169572)
(-0.000171824 -0.000103471 0.00943132)
(-0.000458641 -0.000129814 0.0296639)
(0.000221021 0.000151485 0.0282102)
(0.000234267 -0.000369868 0.0222342)
(0.000236406 -8.28262e-05 0.0192436)
(0.00067879 -0.000563185 0.0259877)
(-0.000246003 -0.000307104 0.0188822)
(-7.78164e-05 -0.000843696 0.0143629)
(1.99534e-05 -0.000850111 0.0162605)
(0.000164154 -0.00084935 0.0245642)
(-0.000560142 -0.000385367 0.021462)
(-0.000332561 -0.000914199 0.0266424)
(0.000100388 -0.000768292 0.00860424)
(-1.45874e-05 -0.00113056 0.0208823)
(-0.000517441 -0.000668767 0.0123562)
(-0.000545507 -0.000213703 0.0184841)
(-0.000185723 -0.000344365 0.0103722)
(0.000300178 -0.000832644 0.0292729)
(0.000848595 0.00117425 0.00809535)
(0.000720953 0.00097535 0.00673556)
(-0.000388177 0.00128924 0.00631525)
(-0.000785275 0.000484481 0.00740495)
(0.00102504 0.000873257 0.00628384)
(0.000524675 0.000215986 0.00544394)
(-0.000778857 0.000897758 0.00556704)
(-0.00149343 0.000404061 0.00735796)
(0.000231242 0.000467078 0.00634662)
(0.000741958 -5.71891e-05 0.00688163)
(-0.000165262 0.000163925 0.00516529)
(-0.0016007 -0.000167858 0.00714017)
(0.000422165 -0.000692226 0.00551654)
(0.000196346 -0.000365984 0.00629749)
(-0.000875809 -0.00110633 0.00575465)
(-0.00123772 -0.000603137 0.00854389)
(0.000430627 0.000728659 0.0136494)
(0.000359573 0.000599668 0.0130501)
(-8.94963e-05 0.000595098 0.0129203)
(-0.000283077 7.60421e-05 0.0134887)
(0.000431082 0.000539512 0.0127639)
(0.000205817 0.000229682 0.0123427)
(-0.000359732 0.000348354 0.0123181)
(-0.000670588 2.28188e-05 0.0132871)
(0.000117636 0.000222556 0.0125898)
(0.000180385 -2.17939e-05 0.0126591)
(-0.000258019 -4.33773e-05 0.011996)
(-0.000801264 -0.000199921 0.0130661)
(0.00011758 -0.000332712 0.012222)
(-6.23029e-05 -0.000288772 0.012338)
(-0.000526368 -0.000566695 0.0121544)
(-0.000720934 -0.000414657 0.0133901)
(0.000185049 0.000384908 0.0122789)
(0.000100229 0.000332493 0.0120605)
(-0.000108615 0.000329552 0.012011)
(-0.000237188 0.000151228 0.0121636)
(0.000162441 0.000298692 0.0119157)
(3.92478e-05 0.000191579 0.011781)
(-0.00019792 0.000188391 0.0117907)
(-0.000330216 6.99931e-05 0.0121321)
(6.22706e-05 0.000117531 0.0118091)
(-4.42514e-06 2.3224e-05 0.0118432)
(-0.000207805 -1.85542e-05 0.0117156)
(-0.000376978 -7.73606e-05 0.0121184)
(2.52051e-05 -0.000137606 0.0117097)
(-9.56814e-05 -0.000169145 0.0117717)
(-0.000290159 -0.000256005 0.0117988)
(-0.000365112 -0.000226784 0.0122416)
(8.89315e-05 0.000211609 0.012461)
(3.78698e-05 0.000177847 0.0123914)
(-4.688e-05 0.000155814 0.012397)
(-0.000102889 6.48162e-05 0.0124732)
(6.52493e-05 0.000159423 0.0123091)
(-1.07792e-06 0.000110915 0.0122693)
(-9.84539e-05 8.13327e-05 0.0122925)
(-0.000151902 1.67855e-05 0.0124244)
(2.29462e-05 5.82821e-05 0.0122443)
(-3.80078e-05 1.17638e-05 0.0122524)
(-0.000130922 -2.374e-05 0.0122584)
(-0.000189109 -6.19637e-05 0.012412)
(-9.12871e-06 -6.78468e-05 0.0122153)
(-8.21432e-05 -0.000100744 0.0122404)
(-0.000168305 -0.00013766 0.0122884)
(-0.000201555 -0.000143766 0.0124518)
(4.33421e-05 0.000111094 0.0125051)
(1.27118e-05 9.10337e-05 0.0124786)
(-2.59274e-05 7.46194e-05 0.0124823)
(-5.31269e-05 3.38426e-05 0.0125065)
(2.66519e-05 8.07772e-05 0.0124374)
(-9.84998e-06 5.57345e-05 0.0124243)
(-5.2427e-05 3.43679e-05 0.0124388)
(-7.57831e-05 2.52208e-06 0.012487)
(4.53042e-06 2.61923e-05 0.0124033)
(-3.31533e-05 1.13258e-06 0.0124065)
(-7.51711e-05 -2.11576e-05 0.0124262)
(-9.7697e-05 -4.36202e-05 0.0124878)
(-1.622e-05 -3.84844e-05 0.0123948)
(-5.67315e-05 -5.99604e-05 0.0124087)
(-9.54878e-05 -7.97967e-05 0.0124423)
(-0.000109974 -9.03315e-05 0.0125102)
(2.17839e-05 5.66722e-05 0.0125392)
(4.86865e-06 4.47038e-05 0.0125283)
(-1.32218e-05 3.3816e-05 0.0125314)
(-2.63251e-05 1.38569e-05 0.0125422)
(1.09937e-05 3.90644e-05 0.0125067)
(-8.49428e-06 2.50325e-05 0.0125023)
(-2.79512e-05 1.16163e-05 0.0125111)
(-3.89993e-05 -5.23525e-06 0.0125318)
(-1.7435e-06 9.56415e-06 0.0124891)
(-2.25192e-05 -4.67417e-06 0.0124919)
(-4.19969e-05 -1.81801e-05 0.0125058)
(-5.18458e-05 -3.14768e-05 0.0125337)
(-1.45084e-05 -2.45288e-05 0.0124867)
(-3.60462e-05 -3.76029e-05 0.0124955)
(-5.40382e-05 -4.93435e-05 0.0125156)
(-6.06482e-05 -5.77551e-05 0.0125476)
(1.08836e-05 2.8181e-05 0.0125623)
(1.75171e-06 2.1067e-05 0.0125573)
(-7.17352e-06 1.42396e-05 0.0125588)
(-1.38214e-05 4.04038e-06 0.0125635)
(4.17494e-06 1.78804e-05 0.0125464)
(-6.17519e-06 9.75962e-06 0.0125449)
(-1.55944e-05 1.65414e-06 0.0125497)
(-2.11999e-05 -7.56301e-06 0.0125591)
(-3.41796e-06 1.69705e-06 0.0125377)
(-1.45158e-05 -6.64462e-06 0.01254)
(-2.39435e-05 -1.47349e-05 0.0125481)
(-2.86557e-05 -2.25437e-05 0.0125615)
(-1.12423e-05 -1.67586e-05 0.0125375)
(-2.2538e-05 -2.46713e-05 0.0125432)
(-3.11913e-05 -3.17799e-05 0.0125546)
(-3.43112e-05 -3.74082e-05 0.0125707)
(5.19342e-06 1.34448e-05 0.0125763)
(2.92086e-07 9.20467e-06 0.0125739)
(-4.31637e-06 5.01723e-06 0.0125746)
(-7.8383e-06 -3.45232e-07 0.0125768)
(1.07066e-06 7.37976e-06 0.0125685)
(-4.42788e-06 2.58652e-06 0.0125681)
(-9.20657e-06 -2.26266e-06 0.0125707)
(-1.21695e-05 -7.41722e-06 0.0125753)
(-3.54251e-06 -1.65686e-06 0.0125645)
(-9.39373e-06 -6.62264e-06 0.0125661)
(-1.41153e-05 -1.14533e-05 0.0125708)
(-1.64697e-05 -1.60114e-05 0.0125777)
(-8.33371e-06 -1.18152e-05 0.0125651)
(-1.42032e-05 -1.66315e-05 0.0125687)
(-1.8465e-05 -2.09529e-05 0.0125753)
(-1.99227e-05 -2.4471e-05 0.0125838)
(2.2187e-06 5.9868e-06 0.0125846)
(-4.27551e-07 3.43566e-06 0.0125834)
(-2.88736e-06 8.9544e-07 0.0125837)
(-4.80029e-06 -2.01306e-06 0.0125848)
(-3.08932e-07 2.39408e-06 0.0125809)
(-3.24803e-06 -4.74366e-07 0.0125808)
(-5.74463e-06 -3.37376e-06 0.0125823)
(-7.33948e-06 -6.299e-06 0.0125848)
(-3.12937e-06 -2.72078e-06 0.0125792)
(-6.22207e-06 -5.71364e-06 0.0125803)
(-8.63118e-06 -8.6049e-06 0.012583)
(-9.81656e-06 -1.1265e-05 0.0125868)
(-6.08088e-06 -8.40997e-06 0.0125801)
(-9.12657e-06 -1.1353e-05 0.0125824)
(-1.12356e-05 -1.39792e-05 0.0125862)
(-1.18758e-05 -1.61146e-05 0.012591)
(7.13891e-07 2.34711e-06 0.0125896)
(-7.29117e-07 7.94287e-07 0.012589)
(-2.06752e-06 -7.50798e-07 0.0125891)
(-3.12575e-06 -2.37664e-06 0.0125897)
(-8.33761e-07 2.10163e-07 0.0125878)
(-2.42636e-06 -1.53385e-06 0.0125879)
(-3.74468e-06 -3.27437e-06 0.0125888)
(-4.60597e-06 -4.95439e-06 0.0125902)
(-2.55805e-06 -2.70613e-06 0.0125873)
(-4.22471e-06 -4.53562e-06 0.0125881)
(-5.44784e-06 -6.27749e-06 0.0125898)
(-6.03357e-06 -7.83596e-06 0.0125919)
(-4.36067e-06 -5.99921e-06 0.0125882)
(-5.99554e-06 -7.77912e-06 0.0125897)
(-7.01254e-06 -9.36496e-06 0.012592)
(-7.25159e-06 -1.06411e-05 0.0125948)
(1.31813e-08 6.63316e-07 0.0125925)
(-7.81804e-07 -2.89386e-07 0.0125922)
(-1.51434e-06 -1.23028e-06 0.0125923)
(-2.10474e-06 -2.15609e-06 0.0125926)
(-9.30593e-07 -6.10509e-07 0.0125918)
(-1.80323e-06 -1.68156e-06 0.0125919)
(-2.49757e-06 -2.72428e-06 0.0125925)
(-2.96373e-06 -3.69878e-06 0.0125933)
(-1.9749e-06 -2.28042e-06 0.0125917)
(-2.89617e-06 -3.40731e-06 0.0125923)
(-3.50372e-06 -4.46004e-06 0.0125934)
(-3.78564e-06 -5.37685e-06 0.0125947)
(-3.04546e-06 -4.26441e-06 0.0125925)
(-3.98041e-06 -5.31916e-06 0.0125935)
(-4.44604e-06 -6.26469e-06 0.012595)
(-4.50121e-06 -7.01714e-06 0.0125967)
(-2.53733e-07 -5.01333e-08 0.0125942)
(-6.88417e-07 -6.33064e-07 0.0125941)
(-1.08789e-06 -1.20015e-06 0.0125942)
(-1.41978e-06 -1.73055e-06 0.0125943)
(-8.20155e-07 -8.10115e-07 0.012594)
(-1.29499e-06 -1.46011e-06 0.0125942)
(-1.65861e-06 -2.07822e-06 0.0125946)
(-1.91422e-06 -2.64244e-06 0.0125951)
(-1.44202e-06 -1.76842e-06 0.0125941)
(-1.95159e-06 -2.45169e-06 0.0125946)
(-2.24748e-06 -3.08084e-06 0.0125953)
(-2.38254e-06 -3.6159e-06 0.0125961)
(-2.05319e-06 -2.98351e-06 0.0125947)
(-2.60423e-06 -3.59573e-06 0.0125955)
(-2.80736e-06 -4.14978e-06 0.0125965)
(-2.79556e-06 -4.585e-06 0.0125975)
(-2.9263e-07 -2.90297e-07 0.0125953)
(-5.27584e-07 -6.39117e-07 0.0125952)
(-7.46819e-07 -9.74414e-07 0.0125952)
(-9.34832e-07 -1.27672e-06 0.0125953)
(-6.26185e-07 -7.42637e-07 0.0125952)
(-8.76563e-07 -1.12392e-06 0.0125954)
(-1.06995e-06 -1.48027e-06 0.0125957)
(-1.21412e-06 -1.80102e-06 0.012596)
(-9.89473e-07 -1.29075e-06 0.0125954)
(-1.25847e-06 -1.68798e-06 0.0125958)
(-1.4054e-06 -2.05048e-06 0.0125963)
(-1.47412e-06 -2.35382e-06 0.0125968)
(-1.32539e-06 -2.01527e-06 0.0125959)
(-1.63291e-06 -2.366e-06 0.0125965)
(-1.72398e-06 -2.68222e-06 0.0125971)
(-1.70402e-06 -2.9267e-06 0.0125978)
(-2.46638e-07 -3.09838e-07 0.0125959)
(-3.64422e-07 -5.09753e-07 0.0125959)
(-4.8563e-07 -7.01238e-07 0.0125958)
(-5.92964e-07 -8.69284e-07 0.0125958)
(-4.34828e-07 -5.69211e-07 0.0125959)
(-5.55371e-07 -7.80234e-07 0.0125961)
(-6.61612e-07 -9.76927e-07 0.0125962)
(-7.46403e-07 -1.15403e-06 0.0125964)
(-6.39089e-07 -8.73452e-07 0.0125962)
(-7.65847e-07 -1.09133e-06 0.0125965)
(-8.45262e-07 -1.28881e-06 0.0125968)
(-8.86213e-07 -1.45433e-06 0.0125971)
(-8.1995e-07 -1.27864e-06 0.0125965)
(-9.67636e-07 -1.47843e-06 0.012597)
(-1.01569e-06 -1.65356e-06 0.0125974)
(-1.00837e-06 -1.78599e-06 0.0125978)
(-2.15912e-07 -2.33617e-07 0.0125962)
(-2.64376e-07 -3.42398e-07 0.0125962)
(-3.18536e-07 -4.46862e-07 0.0125961)
(-3.73988e-07 -5.38465e-07 0.012596)
(-3.17568e-07 -3.69473e-07 0.0125963)
(-3.65495e-07 -4.80679e-07 0.0125964)
(-4.13873e-07 -5.86748e-07 0.0125965)
(-4.58967e-07 -6.85346e-07 0.0125966)
(-4.27869e-07 -5.26267e-07 0.0125965)
(-4.76919e-07 -6.39706e-07 0.0125968)
(-5.13273e-07 -7.43658e-07 0.012597)
(-5.33562e-07 -8.33347e-07 0.0125972)
(-5.23501e-07 -7.32071e-07 0.0125969)
(-5.80422e-07 -8.41495e-07 0.0125972)
(-6.0105e-07 -9.3517e-07 0.0125974)
(-5.9677e-07 -1.0046e-06 0.0125978)
(-2.80287e-07 -1.40486e-07 0.0125964)
(-2.96293e-07 -2.02341e-07 0.0125964)
(-3.06298e-07 -2.61977e-07 0.0125963)
(-3.15685e-07 -3.14688e-07 0.0125961)
(-3.41277e-07 -2.09083e-07 0.0125966)
(-3.56893e-07 -2.73344e-07 0.0125966)
(-3.63822e-07 -3.35652e-07 0.0125966)
(-3.66258e-07 -3.93847e-07 0.0125966)
(-4.05801e-07 -2.86928e-07 0.0125967)
(-4.20071e-07 -3.5049e-07 0.0125969)
(-4.20639e-07 -4.09263e-07 0.012597)
(-4.08612e-07 -4.60526e-07 0.0125972)
(-4.63034e-07 -3.76949e-07 0.012597)
(-4.77348e-07 -4.36279e-07 0.0125972)
(-4.69054e-07 -4.87141e-07 0.0125974)
(-4.42825e-07 -5.25223e-07 0.0125976)
(0.000405877 -0.00116162 0.0170052)
(0.000981449 0.000480358 0.0122492)
(0.00137399 -0.00270493 0.0208834)
(-0.000327201 -0.00011652 0.0129618)
(0.000618514 -0.000569898 0.0141045)
(0.00112784 -0.00023467 0.0111438)
(0.000980974 -0.00207902 0.0139631)
(-5.70875e-05 0.000857517 0.0131778)
(0.00108645 -0.000245912 0.0169382)
(0.00016925 -0.00151635 0.0180761)
(0.00190008 -0.000540373 0.014405)
(0.00185353 -0.00139217 0.0167589)
(0.00115025 -0.00274585 0.0220774)
(0.000104164 -0.00029244 0.0133563)
(0.00128271 -0.0015198 0.0176402)
(0.00223145 -0.0032213 0.0102284)
(-0.00184517 -0.000884088 0.0305876)
(-0.00171715 -0.000970116 0.0315721)
(-0.000423677 0.00103265 0.0382281)
(0.00118726 -0.00177595 0.0294651)
(-0.000386186 -0.00241098 0.0226539)
(-0.000306873 -0.00270119 0.0395301)
(-0.000680759 0.000986985 0.017329)
(0.00135451 -0.00214588 0.0236)
(-0.000456555 -0.00487277 0.0343738)
(0.00160604 -0.00200163 0.0260531)
(0.000703078 -0.000590869 0.0266727)
(-0.00156439 -0.00251168 0.0632257)
(-0.00110007 -9.29477e-05 0.0211734)
(0.00218993 -0.000452016 0.0225189)
(0.0015589 -0.00118746 0.019879)
(0.000820605 -0.000561514 0.0221748)
(-0.000829577 -0.000739334 0.0339634)
(-0.00141489 -0.00118406 0.0306126)
(0.000977692 0.00126347 0.0321948)
(0.00192096 -0.0020898 0.0399857)
(-0.00136034 -0.00139133 0.0336977)
(-0.000670859 0.00106621 0.029924)
(-0.000161842 0.000398293 0.0279218)
(0.00205722 -0.00320514 0.024649)
(-0.000280947 -0.000554553 0.0274805)
(-0.000377385 0.00178308 0.0296925)
(-0.00330242 -0.00132331 0.0493762)
(0.000243757 -0.000416795 0.0190899)
(-0.00139743 -0.000159586 0.0234454)
(2.69283e-05 -0.000348102 0.0220011)
(-0.000473877 -0.000174305 0.0310772)
(-0.000132327 0.00268846 0.0273311)
(0.000521503 -0.00102524 0.035633)
(0.000760397 -0.000186111 0.0305863)
(0.00029325 -0.000532553 0.0283549)
(-0.000137261 0.000204988 0.0490057)
(-0.000242117 0.00109253 0.0276746)
(0.000602474 0.00142658 0.0237904)
(0.000591118 -0.00204803 0.0221875)
(0.000409317 -1.12592e-05 0.0233132)
(0.000981007 0.00275985 0.0310078)
(-0.00328901 0.00239154 0.0413839)
(0.000269203 -0.00137194 0.0220327)
(0.00119134 0.00156803 0.0383385)
(0.00057998 -0.000455641 0.0167716)
(-0.00178597 -0.000773452 0.0241318)
(-0.000893305 0.000394812 0.0245491)
(0.00069971 0.00115764 0.018979)
(0.000611991 0.000192706 0.0380769)
(0.000229181 -0.0011557 0.0257805)
(-0.00322386 -0.000895241 0.0454882)
(-0.00133032 0.00152474 0.0308667)
(0.000691206 0.000354945 0.0215099)
(0.000306881 -0.000873593 0.0205884)
(-0.000112314 0.000125022 0.0366783)
(-0.000737093 0.000931469 0.0157742)
(-0.000377415 0.0034875 0.043862)
(-0.000907152 0.00139575 0.0364637)
(0.00103586 0.000716861 0.0364262)
(0.000248254 0.000601091 0.0142746)
(0.00133816 0.00135889 0.0327529)
(-0.00250813 0.00108089 0.0391307)
(0.000236598 9.34244e-05 0.021521)
(0.000257387 0.00251817 0.0340339)
(-0.000702804 0.00167096 0.0207613)
(-0.00100755 0.00212232 0.0257561)
(-0.00133658 -0.000733364 0.0148939)
(-0.00232094 0.00153393 0.02289)
(-0.000542691 0.00103821 0.0164728)
(-0.00130423 0.00136569 0.0112732)
(-0.00334369 0.00242395 0.0188678)
(-0.00289025 0.00420365 0.0225888)
(-3.22724e-06 -0.000142695 0.015204)
(0.000571161 -0.000727292 0.0127363)
(-0.00146463 0.00184098 0.0099587)
(-0.00304867 0.00277587 0.0173151)
(-0.00356059 -0.00108798 0.0312386)
(0.00185065 -0.00141501 0.017824)
(0.000977668 -0.00127885 0.0181815)
(-0.00226333 0.000351055 0.0146327)
(-0.000209951 -0.000231137 0.0191127)
(-0.000194065 -0.000336163 0.0182167)
(-0.000485206 0.000880693 0.0246507)
(-1.06201e-05 -0.000216402 0.0101597)
(0.000153483 -0.000125298 0.0157299)
(6.32422e-05 -6.21819e-05 0.0149048)
(-3.04884e-05 -2.79282e-05 0.0145845)
(1.80788e-05 -0.000121991 0.014757)
(7.2731e-05 -0.000532875 0.0203001)
(-4.62198e-05 0.000142082 0.0230519)
(0.000402148 8.29681e-05 0.0193936)
(0.000493182 -0.000141709 0.0135771)
(-0.000172942 -3.02676e-05 0.0242785)
(-0.00205385 -0.000419685 0.0125581)
(-0.000738805 0.000530365 0.0241055)
(0.000408601 -0.000551031 0.0221402)
(0.000358798 -0.000121945 0.0280766)
(0.000274663 -9.42495e-05 0.0278831)
(0.000616067 0.000396122 0.0330904)
(0.000326514 -9.68393e-05 0.0197509)
(0.000660211 -0.000433273 0.023992)
(0.000623462 -0.00065678 0.0229142)
(0.000827714 -0.000376113 0.0256858)
(0.000681603 -0.000447287 0.0217873)
(9.19376e-05 -0.000621232 0.0277095)
(0.000315104 -0.000327558 0.0266448)
(0.00114595 -0.000859877 0.025919)
(0.00116899 -0.000726144 0.0224209)
(0.000340733 -0.000186431 0.032117)
(-8.93464e-05 -9.5209e-05 0.0230407)
(0.000204525 -0.000234521 0.0252792)
(0.00116531 -0.000698195 0.0260939)
(-3.93164e-05 0.000156442 0.00799364)
(-0.000446347 0.000104093 0.00796255)
(0.000205327 0.000670507 0.00890139)
(0.000175229 -0.000163553 0.00609996)
(0.000267439 -2.3569e-05 0.00751484)
(-0.000180745 4.61403e-06 0.00725616)
(-0.000133139 0.000714532 0.00766208)
(0.000238419 -0.000344984 0.00637971)
(-2.21378e-05 -0.000382853 0.00828329)
(0.000113468 -4.90618e-06 0.00801314)
(-2.25837e-05 0.000478294 0.00775148)
(0.000256306 -0.000364115 0.00670367)
(0.000346142 0.000246876 0.00899068)
(0.000400425 0.000535627 0.00731254)
(-0.000327656 0.000831633 0.00765963)
(-9.62116e-05 -7.27479e-05 0.00738219)
(0.000111955 0.000137859 0.0141091)
(1.41865e-05 0.000136559 0.0139785)
(0.000372012 0.000452718 0.0146647)
(0.000226123 8.25872e-05 0.0133269)
(0.000220986 0.00018294 0.0138621)
(0.000101885 0.000214146 0.0136254)
(0.000200874 0.000574861 0.0141208)
(0.000214568 1.64111e-05 0.0134226)
(0.000152825 0.000137624 0.0140294)
(0.000234238 0.00025801 0.013732)
(0.000193693 0.000514628 0.013878)
(0.000177502 -2.37644e-05 0.0135313)
(0.000273308 0.000411503 0.0141336)
(0.000326088 0.000469255 0.0134846)
(6.99027e-05 0.000560667 0.0135835)
(3.10805e-05 1.02029e-05 0.0136407)
(0.000100959 5.80441e-05 0.0127993)
(1.90776e-05 5.02782e-05 0.0126076)
(0.000121331 0.000160842 0.0127692)
(7.09491e-05 2.68229e-05 0.0120784)
(0.000132936 0.000112624 0.0126625)
(4.01802e-05 0.000107702 0.0124579)
(4.29237e-05 0.000231924 0.0125555)
(5.16435e-05 5.08701e-06 0.0121081)
(0.000120908 0.000150862 0.0126263)
(7.14316e-05 0.000157669 0.0124162)
(1.55508e-06 0.000246859 0.0124048)
(-4.62041e-07 1.5643e-05 0.012144)
(0.000148989 0.000271052 0.0125391)
(9.24271e-05 0.000262782 0.0122804)
(-5.33491e-05 0.000296635 0.0122525)
(-8.67785e-05 8.33907e-05 0.0121807)
(8.87682e-05 4.0453e-05 0.0127367)
(5.47878e-05 4.18354e-05 0.0126385)
(8.7041e-05 8.96194e-05 0.0127294)
(4.57978e-05 2.98758e-05 0.0124935)
(9.52867e-05 9.3833e-05 0.0126887)
(5.44585e-05 8.72611e-05 0.0125926)
(4.97373e-05 0.000133751 0.0126574)
(3.14354e-05 2.68402e-05 0.0125063)
(9.0783e-05 0.000133829 0.0126503)
(5.66053e-05 0.000122034 0.0125616)
(2.266e-05 0.000148491 0.0125903)
(3.78084e-06 3.2177e-05 0.0125179)
(9.13583e-05 0.000183213 0.0125851)
(5.27156e-05 0.000163077 0.0124991)
(-7.17775e-06 0.000162528 0.0125135)
(-3.46766e-05 5.48838e-05 0.0125147)
(6.19386e-05 2.44458e-05 0.0126791)
(4.38575e-05 2.63202e-05 0.0126178)
(4.65155e-05 4.34601e-05 0.0126373)
(2.0725e-05 1.47248e-05 0.0125236)
(6.16321e-05 5.91546e-05 0.0126516)
(3.90333e-05 5.26636e-05 0.0125948)
(2.83462e-05 6.56686e-05 0.012606)
(1.29158e-05 1.54322e-05 0.0125261)
(5.73584e-05 8.5133e-05 0.0126173)
(3.37061e-05 7.23465e-05 0.0125693)
(1.20259e-05 7.49699e-05 0.012571)
(-1.84722e-06 2.0076e-05 0.0125276)
(5.17701e-05 0.00010609 0.0125701)
(2.57618e-05 8.99502e-05 0.0125324)
(-4.61863e-06 8.15695e-05 0.0125329)
(-2.0693e-05 3.22345e-05 0.0125236)
(3.87146e-05 1.38051e-05 0.0126368)
(2.88272e-05 1.53126e-05 0.0126027)
(2.47608e-05 2.11972e-05 0.0126046)
(9.52543e-06 7.14186e-06 0.0125562)
(3.71917e-05 3.36583e-05 0.0126217)
(2.49104e-05 2.94741e-05 0.0125915)
(1.60845e-05 3.17381e-05 0.0125911)
(5.52099e-06 8.19627e-06 0.0125567)
(3.38286e-05 4.83802e-05 0.0126007)
(2.00955e-05 3.99224e-05 0.0125765)
(7.48329e-06 3.66738e-05 0.0125747)
(-1.78049e-06 1.05346e-05 0.0125561)
(2.88632e-05 5.77451e-05 0.0125733)
(1.38269e-05 4.74072e-05 0.0125561)
(-1.4639e-06 3.969e-05 0.012556)
(-1.07702e-05 1.58675e-05 0.0125526)
(2.28189e-05 7.6113e-06 0.0126153)
(1.73729e-05 8.58487e-06 0.0125968)
(1.28043e-05 1.02038e-05 0.0125938)
(3.78809e-06 2.88519e-06 0.0125722)
(2.15665e-05 1.85005e-05 0.0126072)
(1.48309e-05 1.59663e-05 0.0125909)
(8.65552e-06 1.50987e-05 0.0125877)
(1.78228e-06 3.49948e-06 0.012572)
(1.92328e-05 2.62967e-05 0.0125952)
(1.1531e-05 2.11182e-05 0.0125825)
(4.16882e-06 1.73484e-05 0.0125798)
(-1.78292e-06 4.34939e-06 0.0125712)
(1.57286e-05 3.03598e-05 0.01258)
(7.38815e-06 2.41301e-05 0.0125715)
(-6.7154e-07 1.85606e-05 0.0125707)
(-6.15439e-06 6.59995e-06 0.012569)
(1.28834e-05 4.06562e-06 0.0126049)
(9.79416e-06 4.58154e-06 0.0125947)
(6.27378e-06 4.69491e-06 0.0125913)
(9.18681e-07 5.87453e-07 0.0125815)
(1.20709e-05 9.81804e-06 0.0126004)
(8.30471e-06 8.28666e-06 0.0125916)
(4.28905e-06 6.8643e-06 0.0125885)
(-3.16107e-08 7.89472e-07 0.0125813)
(1.05628e-05 1.37477e-05 0.0125938)
(6.26682e-06 1.06514e-05 0.012587)
(1.9319e-06 7.72766e-06 0.0125847)
(-1.77672e-06 8.94708e-07 0.0125806)
(8.29044e-06 1.54e-05 0.0125855)
(3.72171e-06 1.17224e-05 0.0125812)
(-7.21695e-07 8.07137e-06 0.0125803)
(-3.97859e-06 1.80574e-06 0.0125794)
(6.98835e-06 2.09016e-06 0.0125997)
(5.17294e-06 2.29672e-06 0.0125942)
(2.77069e-06 1.95005e-06 0.0125916)
(-4.07634e-07 -4.99079e-07 0.0125871)
(6.51375e-06 5.01639e-06 0.0125973)
(4.35726e-06 4.06906e-06 0.0125925)
(1.8282e-06 2.85001e-06 0.0125903)
(-8.23385e-07 -5.28507e-07 0.0125869)
(5.57644e-06 6.89974e-06 0.0125937)
(3.16761e-06 5.04677e-06 0.0125901)
(5.84076e-07 3.04264e-06 0.0125885)
(-1.69194e-06 -7.26833e-07 0.0125865)
(4.15208e-06 7.47321e-06 0.0125894)
(1.63739e-06 5.29816e-06 0.012587)
(-8.76214e-07 3.00456e-06 0.0125864)
(-2.82835e-06 -4.01085e-07 0.012586)
(3.62644e-06 1.0255e-06 0.0125974)
(2.53986e-06 1.05752e-06 0.0125944)
(9.6478e-07 6.21712e-07 0.0125927)
(-9.13048e-07 -9.22359e-07 0.0125905)
(3.36511e-06 2.45265e-06 0.0125961)
(2.11864e-06 1.84985e-06 0.0125935)
(5.28929e-07 9.26758e-07 0.0125921)
(-1.08406e-06 -1.02652e-06 0.0125904)
(2.79215e-06 3.29676e-06 0.0125942)
(1.42915e-06 2.16911e-06 0.0125922)
(-1.24207e-07 8.46293e-07 0.0125912)
(-1.53013e-06 -1.25136e-06 0.0125903)
(1.90819e-06 3.4074e-06 0.0125919)
(5.16189e-07 2.11161e-06 0.0125907)
(-9.18789e-07 7.03923e-07 0.0125903)
(-2.11801e-06 -1.1802e-06 0.0125901)
(1.77251e-06 4.71254e-07 0.0125965)
(1.11163e-06 4.14691e-07 0.0125949)
(1.07985e-07 2.93312e-08 0.0125938)
(-1.00007e-06 -9.64389e-07 0.0125928)
(1.63453e-06 1.12828e-06 0.0125958)
(9.08109e-07 7.30636e-07 0.0125944)
(-7.61519e-08 9.15293e-08 0.0125935)
(-1.05559e-06 -1.07424e-06 0.0125927)
(1.28774e-06 1.46269e-06 0.0125948)
(5.13805e-07 7.7155e-07 0.0125937)
(-4.1469e-07 -7.58336e-08 0.0125931)
(-1.28329e-06 -1.28226e-06 0.0125926)
(7.46563e-07 1.39507e-06 0.0125936)
(-2.92897e-08 6.24523e-07 0.012593)
(-8.51625e-07 -2.34391e-07 0.0125927)
(-1.58967e-06 -1.30238e-06 0.0125926)
(7.90239e-07 1.92575e-07 0.0125963)
(3.85728e-07 1.10495e-07 0.0125954)
(-2.338e-07 -1.94153e-07 0.0125947)
(-8.85597e-07 -8.34627e-07 0.0125941)
(7.2638e-07 4.70023e-07 0.0125959)
(2.9827e-07 2.09197e-07 0.0125951)
(-3.00154e-07 -2.18802e-07 0.0125946)
(-8.87179e-07 -9.21214e-07 0.0125941)
(5.2062e-07 5.67254e-07 0.0125954)
(7.63508e-08 1.41617e-07 0.0125948)
(-4.72749e-07 -3.81904e-07 0.0125944)
(-9.99408e-07 -1.08779e-06 0.0125941)
(1.95324e-07 4.45538e-07 0.0125948)
(-2.37519e-07 -9.42373e-09 0.0125944)
(-7.09749e-07 -5.16064e-07 0.0125942)
(-1.16077e-06 -1.13148e-06 0.0125941)
(3.00721e-07 6.0947e-08 0.0125963)
(5.70531e-08 -1.69914e-08 0.0125958)
(-3.13819e-07 -2.37397e-07 0.0125954)
(-6.93895e-07 -6.44713e-07 0.012595)
(2.7801e-07 1.55953e-07 0.0125961)
(2.76638e-08 -4.95821e-09 0.0125957)
(-3.25417e-07 -2.79745e-07 0.0125953)
(-6.74298e-07 -7.02002e-07 0.012595)
(1.62775e-07 1.53049e-07 0.0125958)
(-8.99168e-08 -9.57929e-08 0.0125955)
(-4.10211e-07 -4.1096e-07 0.0125952)
(-7.26596e-07 -8.23442e-07 0.012595)
(-2.57169e-08 3.90881e-08 0.0125955)
(-2.63104e-07 -2.20004e-07 0.0125953)
(-5.34116e-07 -5.09724e-07 0.0125952)
(-8.09799e-07 -8.6365e-07 0.012595)
(7.66252e-08 7.70851e-09 0.0125964)
(-6.37895e-08 -5.43143e-08 0.0125962)
(-2.80258e-07 -2.01762e-07 0.0125958)
(-4.94819e-07 -4.51308e-07 0.0125955)
(7.18011e-08 2.63673e-08 0.0125963)
(-6.66759e-08 -6.82584e-08 0.012596)
(-2.71639e-07 -2.36251e-07 0.0125957)
(-4.74127e-07 -4.83428e-07 0.0125954)
(1.0561e-08 -9.6459e-09 0.0125961)
(-1.25328e-07 -1.48214e-07 0.0125959)
(-3.10298e-07 -3.31117e-07 0.0125957)
(-4.97088e-07 -5.6498e-07 0.0125954)
(-9.38921e-08 -9.95074e-08 0.012596)
(-2.15122e-07 -2.39672e-07 0.0125959)
(-3.7055e-07 -3.97987e-07 0.0125957)
(-5.38558e-07 -5.96223e-07 0.0125955)
(-3.46623e-08 -9.25623e-09 0.0125966)
(-1.05299e-07 -5.3754e-08 0.0125964)
(-2.15194e-07 -1.43787e-07 0.012596)
(-3.2463e-07 -2.89281e-07 0.0125957)
(-3.62579e-08 -1.20899e-08 0.0125965)
(-1.04148e-07 -6.7865e-08 0.0125963)
(-2.0896e-07 -1.64764e-07 0.012596)
(-3.14398e-07 -3.0439e-07 0.0125957)
(-7.12842e-08 -4.59387e-08 0.0125963)
(-1.35489e-07 -1.23657e-07 0.0125962)
(-2.2874e-07 -2.24909e-07 0.0125959)
(-3.27238e-07 -3.51334e-07 0.0125957)
(-1.30588e-07 -1.10538e-07 0.0125963)
(-1.83699e-07 -1.85713e-07 0.0125962)
(-2.5908e-07 -2.67904e-07 0.012596)
(-3.49039e-07 -3.72523e-07 0.0125958)
(-1.41963e-07 -1.73376e-08 0.0125966)
(-1.68614e-07 -5.89748e-08 0.0125965)
(-2.06848e-07 -1.21092e-07 0.0125962)
(-2.43665e-07 -2.08409e-07 0.0125958)
(-1.53014e-07 -2.27565e-08 0.0125966)
(-1.79722e-07 -6.97432e-08 0.0125964)
(-2.16159e-07 -1.35188e-07 0.0125961)
(-2.49675e-07 -2.17377e-07 0.0125958)
(-1.83304e-07 -4.3361e-08 0.0125965)
(-2.08911e-07 -9.94694e-08 0.0125963)
(-2.39729e-07 -1.64901e-07 0.0125961)
(-2.67705e-07 -2.36471e-07 0.0125958)
(-2.26988e-07 -8.0261e-08 0.0125964)
(-2.474e-07 -1.31975e-07 0.0125963)
(-2.6818e-07 -1.84844e-07 0.0125961)
(-2.88991e-07 -2.41412e-07 0.0125959)
(0.00274636 -0.00103276 0.0118213)
(0.000983769 -0.00292155 0.0140831)
(0.00227123 -0.00258027 0.015211)
(0.00195442 -0.00113795 0.0124298)
(0.000868247 -0.00126781 0.0178758)
(0.000784102 -0.00115581 0.0145006)
(0.00253641 -0.000929471 0.0141702)
(0.00223098 -0.00205523 0.0185197)
(0.000767556 0.000708883 0.0101009)
(0.00158153 0.000730289 0.0155986)
(0.00238621 0.00155123 0.0184916)
(0.00105487 0.000870805 0.0151261)
(0.00266001 0.00153739 0.0197715)
(0.00140032 1.81674e-05 0.00813795)
(0.00588223 0.00137218 0.0248184)
(0.000943627 -0.00052076 0.0172568)
(0.000561954 -0.00050839 0.0337812)
(0.000584361 -0.000245355 0.0416317)
(0.00090537 -0.000262987 0.0141465)
(1.46677e-07 -0.00304478 0.0534735)
(0.0020726 0.00109651 0.0271886)
(0.00196256 0.0010728 0.0179895)
(0.000721472 0.00114368 0.0191335)
(-0.00167226 0.000638496 0.0335019)
(0.00269573 0.000286271 0.0255777)
(-0.000362553 0.0013937 0.0257488)
(-0.000273651 -0.00024467 0.014845)