/*--------------------------------*- C++ -*----------------------------------*\
| =========                 |                                                 |
| \\      /  F ield         | OpenFOAM: The Open Source CFD Toolbox           |
|  \\    /   O peration     | Version:  2506                                  |
|   \\  /    A nd           | Website:  www.openfoam.com                      |
|    \\/     M anipulation  |                                                 |
\*---------------------------------------------------------------------------*/
FoamFile
{
    version     2.0;
    format      ascii;
    arch        "LSB;label=32;scalar=64";
    class       volVectorField;
    location    "0.06";
    object      Us;
}
// * * * * * * * * * * * * * * * * * * * * * * * * * * * * * * * * * * * * * //

dimensions      [0 1 -1 0 0 0 0];

internalField   nonuniform List<vector> 
1152
(
(-0.000236239 -1.33362e-05 -0.000195369)
(-7.84781e-05 4.59061e-05 0.000396168)
(4.20382e-05 -6.00521e-05 0.000208023)
(0.000967222 -0.000317416 -0.00049955)
(-0.00016806 2.78113e-05 -0.000137304)
(-0.000129556 -0.000572727 -1.1392e-05)
(-0.00019808 -0.000575832 -0.0001746)
(0.000327647 -9.44238e-05 -0.000526067)
(-0.000199779 0.000558096 -0.000268021)
(0.000525417 0.000237422 -4.37939e-05)
(0.00112534 0.000406218 -0.000736706)
(0.000343056 0.000266599 -0.00034504)
(0.000154902 0.000903142 0.000107917)
(0.000881867 0.000331198 -0.000595626)
(0.00136059 0.00105491 -0.00097537)
(0.00120578 0.000161316 -0.000270864)
(-0.0002778 0.000211986 0.000941053)
(0.000239087 7.60704e-05 0.00281157)
(0.000353385 -0.000213148 0.00289975)
(0.000332868 -0.000255297 0.0013334)
(0.000247161 0.000513611 0.00365752)
(0.000526598 0.000136965 0.00271624)
(0.000424349 -0.000325385 0.00275359)
(0.000729554 7.86097e-05 0.00329263)
(-0.000841218 0.00139684 0.00310148)
(0.000563155 -0.000124347 0.0025892)
(0.001322 -0.0002372 0.00222708)
(0.000899332 0.000351751 0.00363731)
(0.000382981 0.000557073 0.00368572)
(0.000844512 -7.14965e-05 0.0026202)
(0.000598696 4.73059e-05 0.00318944)
(0.000271514 0.00150696 0.00412265)
(-0.000324166 -0.000244954 0.00142109)
(0.000255242 -0.000181597 0.00198568)
(-1.11573e-05 -5.07653e-05 0.0038616)
(0.000999273 0.000247419 0.00218645)
(0.000339034 0.000569704 0.00216317)
(0.000227447 0.000434002 0.00234504)
(0.000886423 1.11594e-05 0.00285194)
(0.00076373 0.000280919 0.00278933)
(0.00022106 0.0003389 0.00317918)
(0.00073323 1.83058e-05 0.00223984)
(0.000122974 1.90953e-06 0.00305925)
(0.000856816 0.00058671 0.00288988)
(5.03963e-05 -3.73483e-05 0.0024675)
(0.00034147 -0.000648627 0.00225919)
(-0.00033158 -0.00013085 0.00225067)
(-3.22194e-05 3.34117e-05 0.00305682)
(0.000136629 0.000505032 0.00202573)
(0.000248022 1.98876e-05 0.00316704)
(0.00086843 0.00018367 0.00199844)
(0.00057135 -2.19498e-05 0.00189002)
(0.000238125 0.000399322 0.00183255)
(0.000720276 0.000152342 0.00187262)
(0.000425949 0.00047438 0.00171301)
(0.000543152 0.000129382 0.00228022)
(0.000103373 -4.70712e-05 0.00180449)
(0.000151315 0.000205207 0.00233065)
(0.000353236 0.000126742 0.00242797)
(0.000407801 0.000484226 0.00220165)
(0.000142553 -0.000284448 0.00185775)
(0.000136573 -7.58352e-05 0.00207023)
(-0.000119092 7.32036e-05 0.00209124)
(-0.000176782 0.000175076 0.00270468)
(0.000136726 0.00037458 0.00197615)
(0.000213768 0.000430116 0.00219544)
(0.000182881 0.000310208 0.00168744)
(5.03528e-05 0.000212803 0.00189507)
(-3.87343e-05 0.000278781 0.00178692)
(-4.255e-05 0.000117203 0.00210553)
(-0.000137259 0.000174738 0.00179773)
(-0.000192365 -6.10894e-05 0.00179922)
(3.62097e-05 0.000296959 0.00186215)
(2.69269e-05 0.000135103 0.00186267)
(-0.000134762 0.000147915 0.00177143)
(0.000385942 0.000312716 0.00201123)
(8.60164e-05 0.000208 0.00204121)
(-0.000132714 0.000224619 0.00187714)
(2.33173e-05 0.000208251 0.00215558)
(0.000159813 0.000341347 0.0020885)
(-5.92498e-05 -8.00971e-05 0.00173543)
(-0.000301544 -4.17658e-05 0.00180335)
(-0.000205097 -0.000192269 0.00162394)
(8.60718e-05 -3.81539e-05 0.00148018)
(0.000100668 0.000295514 0.00189536)
(-5.96674e-05 -2.72396e-05 0.00191736)
(2.33223e-05 -0.000233482 0.00179025)
(-9.40664e-05 -3.36007e-05 0.00162072)
(1.57885e-05 0.000199037 0.00172549)
(-3.88183e-05 6.44595e-05 0.00190163)
(-0.000162254 3.36543e-06 0.00175872)
(-0.000192483 3.5617e-05 0.00175636)
(-3.55415e-05 0.000352092 0.00183769)
(-6.64611e-05 0.000144315 0.00189988)
(-5.41073e-05 3.15573e-05 0.0020014)
(-1.02323e-05 -2.61174e-05 0.00199511)
(-0.000695114 0.000279079 0.00115621)
(-5.59957e-05 -3.56074e-05 0.00178357)
(-6.25736e-05 -0.000151506 0.00175247)
(-0.000473306 -0.000182373 0.000888904)
(-0.000104206 0.000367803 0.00177654)
(-0.000106315 9.11468e-05 0.0017266)
(7.50598e-05 -2.42193e-05 0.00160992)
(1.30778e-05 -7.2427e-05 0.0015394)
(-1.6219e-05 0.000240807 0.00179316)
(-9.13191e-05 0.000110207 0.00178532)
(-9.05134e-05 -7.48579e-05 0.00183397)
(-0.00014603 -3.36189e-05 0.00170946)
(-0.000230176 0.000104615 0.0018641)
(-0.000120088 7.59157e-05 0.00175416)
(-0.00010187 5.89909e-05 0.00191297)
(2.9126e-05 4.68029e-06 0.00185949)
(0 0 0)
(0 0 0)
(0 0 0)
(0 0 0)
(0 0 0)
(0 0 0)
(0 0 0)
(0 0 0)
(0 0 0)
(0 0 0)
(-0.000174136 -4.03376e-05 0.0016968)
(0 0 0)
(0 0 0)
(2.33542e-05 1.76575e-05 0.00164112)
(-0.000161244 0.000178362 0.00187212)
(0 0 0)
(0 0 0)
(0 0 0)
(0 0 0)
(0 0 0)
(0 0 0)
(0 0 0)
(0 0 0)
(0 0 0)
(0 0 0)
(0 0 0)
(0 0 0)
(0 0 0)
(0 0 0)
(0 0 0)
(0 0 0)
(0 0 0)
(0 0 0)
(0 0 0)
(0 0 0)
(0 0 0)
(0 0 0)
(0 0 0)
(0 0 0)
(0 0 0)
(0 0 0)
(0 0 0)
(0 0 0)
(0 0 0)
(0 0 0)
(0 0 0)
(0 0 0)
(0 0 0)
(0 0 0)
(0 0 0)
(0 0 0)
(0 0 0)
(0 0 0)
(0 0 0)
(0 0 0)
(0 0 0)
(0 0 0)
(0 0 0)
(0 0 0)
(0 0 0)
(0 0 0)
(0 0 0)
(0 0 0)
(0 0 0)
(0 0 0)
(0 0 0)
(0 0 0)
(0 0 0)
(0 0 0)
(0 0 0)
(0 0 0)
(0 0 0)
(0 0 0)
(0 0 0)
(0 0 0)
(0 0 0)
(0 0 0)
(0 0 0)
(0 0 0)
(0 0 0)
(0 0 0)
(0 0 0)
(0 0 0)
(0 0 0)
(0 0 0)
(0 0 0)
(0 0 0)
(0 0 0)
(0 0 0)
(0 0 0)
(0 0 0)
(0 0 0)
(0 0 0)
(0 0 0)
(0 0 0)
(0 0 0)
(0 0 0)
(0 0 0)
(0 0 0)
(0 0 0)
(0 0 0)
(0 0 0)
(0 0 0)
(0 0 0)
(0 0 0)
(0 0 0)
(0 0 0)
(0 0 0)
(0 0 0)
(0 0 0)
(0 0 0)
(0 0 0)
(0 0 0)
(0 0 0)
(0 0 0)
(0 0 0)
(0 0 0)
(0 0 0)
(0 0 0)
(0 0 0)
(0 0 0)
(0 0 0)
(0 0 0)
(0 0 0)
(0 0 0)
(0 0 0)
(0 0 0)
(0 0 0)
(0 0 0)
(0 0 0)
(0 0 0)
(0 0 0)
(0 0 0)
(0 0 0)
(0 0 0)
(0 0 0)
(0 0 0)
(0 0 0)
(0 0 0)
(0 0 0)
(0 0 0)
(0 0 0)
(0 0 0)
(0 0 0)
(0 0 0)
(0 0 0)
(0 0 0)
(0 0 0)
(0 0 0)
(0 0 0)
(0 0 0)
(0 0 0)
(0 0 0)
(0 0 0)
(0 0 0)
(0 0 0)
(0 0 0)
(0 0 0)
(0 0 0)
(0 0 0)
(0 0 0)
(0 0 0)
(0 0 0)
(0 0 0)
(0 0 0)
(0 0 0)
(0 0 0)
(0 0 0)
(0 0 0)
(0 0 0)
(0 0 0)
(0 0 0)
(0 0 0)
(0 0 0)
(0 0 0)
(0 0 0)
(0 0 0)
(0 0 0)
(0 0 0)
(0 0 0)
(0 0 0)
(0 0 0)
(0 0 0)
(0 0 0)
(0 0 0)
(0 0 0)
(0 0 0)
(0 0 0)
(0 0 0)
(0 0 0)
(0 0 0)
(0 0 0)
(0 0 0)
(0 0 0)
(0 0 0)
(0 0 0)
(0 0 0)
(0 0 0)
(0 0 0)
(0 0 0)
(0 0 0)
(0 0 0)
(0 0 0)
(0 0 0)
(0 0 0)
(0 0 0)
(0 0 0)
(0 0 0)
(0 0 0)
(0 0 0)
(0 0 0)
(0 0 0)
(0 0 0)
(0 0 0)
(0 0 0)
(0 0 0)
(0 0 0)
(0 0 0)
(0 0 0)
(0 0 0)
(0 0 0)
(0 0 0)
(0 0 0)
(0 0 0)
(0 0 0)
(0 0 0)
(0 0 0)
(0 0 0)
(0 0 0)
(0 0 0)
(0 0 0)
(0 0 0)
(0 0 0)
(0 0 0)
(0 0 0)
(0 0 0)
(0 0 0)
(0 0 0)
(0 0 0)
(0 0 0)
(0 0 0)
(0 0 0)
(0 0 0)
(0 0 0)
(0 0 0)
(0 0 0)
(0 0 0)
(0 0 0)
(0 0 0)
(0 0 0)
(0 0 0)
(0 0 0)
(0 0 0)
(0 0 0)
(0 0 0)
(0 0 0)
(0 0 0)
(0 0 0)
(0 0 0)
(0 0 0)
(0 0 0)
(0 0 0)
(0 0 0)
(0 0 0)
(0 0 0)
(0 0 0)
(0 0 0)
(0 0 0)
(0 0 0)
(0 0 0)
(0 0 0)
(0 0 0)
(-0.000167053 -0.000273542 -0.000211471)
(0.00025353 0.000118147 1.88661e-05)
(-0.000236747 -0.000103161 0.000176994)
(-0.000291354 -0.000454305 0.000163623)
(0.000206799 -0.000507538 0.000160391)
(0.000633581 -0.000210227 -0.000163716)
(6.55766e-05 -0.0001787 -0.000123717)
(0.000202074 -0.0007456 6.69381e-05)
(8.74689e-06 -0.00056812 -0.000651886)
(0.000115529 -0.000117473 1.00932e-05)
(0.000632281 1.69191e-06 -6.98741e-05)
(0.00086991 -0.000530532 0.000132999)
(0.000128371 -0.000106146 -0.000200754)
(0.000353997 0.000136735 -0.000222166)
(0.000537692 -0.000244904 -5.69274e-05)
(0.00134025 -0.000717901 -0.000144717)
(-0.00136106 -0.000664189 0.00309591)
(-0.0010875 -0.00042133 0.00339896)
(-9.76633e-05 0.000276296 0.0013853)
(9.55517e-06 -0.000642066 0.00193432)
(-0.000472171 -0.00113896 0.00193173)
(-0.000204683 -0.000612471 0.00253664)
(-0.000192504 0.000369876 0.00168073)
(0.000848903 -0.00055252 0.00192896)
(-0.000217896 -0.00101841 0.00225569)
(0.00016221 -0.000402022 0.00277852)
(0.000418441 5.90232e-05 0.00208575)
(0.000546851 -0.000298302 0.00246906)
(-0.000498718 -0.000318512 0.00207168)
(0.000523184 0.000169067 0.00152535)
(0.000493664 -0.000359798 0.00160228)
(0.000684292 -0.000263325 0.00160168)
(-0.000184166 -0.00034756 0.00280699)
(-0.000268885 -0.000274826 0.00164397)
(0.000765676 0.000407856 0.00123473)
(0.00104449 0.000559513 0.00185834)
(0.000515295 -2.03748e-05 0.00359677)
(0.000327511 0.000460947 0.00249263)
(-0.000319492 8.02227e-05 0.00218043)
(0.000549199 0.000433778 0.00143138)
(-0.00042193 0.000398116 0.00436408)
(0.000163809 0.00129763 0.00283591)
(0.000520047 0.000468992 0.00329605)
(0.000413862 0.000684801 0.00221081)
(-0.00111516 -0.000330607 0.00320143)
(-8.42183e-05 0.000529404 0.00212135)
(0.000546215 0.000255374 0.00277329)
(0.00110889 0.000240654 0.00236257)
(0.000445261 -9.53222e-05 0.0016736)
(0.000442513 7.91532e-05 0.000927702)
(9.16014e-05 0.000162115 0.000684249)
(-0.000259521 -0.000110848 0.00173135)
(8.45597e-05 0.000286027 0.00240165)
(0.000368314 0.000720291 0.00164522)
(-9.86892e-05 -0.000217736 0.00135814)
(0.000262828 -1.05108e-05 0.000990098)
(0.000337394 0.000746484 0.00263051)
(0.000237212 5.53986e-05 0.00252623)
(0.000711102 -6.23193e-05 0.00140702)
(0.000483128 0.00018982 0.00105336)
(9.14948e-06 0.000535609 0.00191342)
(0.000178936 0.000728553 0.00174353)
(0.000525447 0.000265912 0.00185295)
(0.000188019 2.67976e-06 0.00149737)
(-9.36941e-05 5.23414e-05 0.00105133)
(0.000100573 -2.7628e-05 0.0012295)
(-0.000216284 -0.000163243 0.000891642)
(0.000179102 -0.000336624 0.00293425)
(2.30783e-05 -1.27601e-05 0.00148995)
(0.000102757 9.3533e-05 0.00127975)
(8.92679e-05 0.00021462 0.00136503)
(-8.67712e-05 0.000104682 0.000945936)
(-0.000124728 6.2614e-05 0.00193188)
(6.07471e-05 0.000317856 0.00132679)
(0.00123827 -3.10595e-05 0.00157521)
(0.000257979 -6.05058e-05 0.00100322)
(6.22486e-05 0.000426354 0.00156549)
(8.90467e-05 0.000526574 0.00140062)
(0.000623663 -0.000156037 0.0016436)
(0.000153155 0.000167888 0.0015611)
(-7.65221e-05 -3.02373e-06 0.0004989)
(-4.5055e-05 0.000135157 0.000948792)
(0.000141143 0.000100441 0.000169499)
(7.5755e-06 -6.21296e-06 0.000712269)
(-9.07909e-06 -8.4066e-05 0.00115449)
(-0.000166695 0.000239499 0.00106757)
(-8.17211e-06 0.000246244 0.000768825)
(0.000108622 1.15444e-05 0.000781627)
(0.000129214 0.00014136 0.0014298)
(-3.6247e-05 0.0001691 0.0012633)
(4.44028e-05 0.000340324 0.00147825)
(-3.20852e-05 -0.000101617 0.000835349)
(1.43604e-05 -0.00014423 0.00170332)
(4.22859e-05 0.000167691 0.0015159)
(-0.00013342 0.000131142 0.0015614)
(-8.25572e-06 -0.000215903 0.00108532)
(-0.000184717 -0.000390084 0.000407592)
(-8.0719e-05 -0.000526184 0.000361148)
(-0.000506922 0.00049677 7.47842e-05)
(-3.85394e-05 -0.000139035 0.000509992)
(6.10616e-05 -0.000174394 0.000933742)
(0.000106545 -8.23218e-05 0.000950391)
(7.62445e-05 -0.000189458 0.000239968)
(-5.5367e-05 -7.94206e-05 0.000791648)
(0.000320898 -0.000132807 0.00133298)
(-0.000150884 0.000194141 0.00120072)
(0.000191867 0.000149489 0.000721347)
(0.000308643 -0.000168608 0.000693455)
(-0.000233076 2.19334e-05 0.00170855)
(-0.00223413 -0.000498314 0.0011889)
(-5.868e-05 0.000225589 0.00153516)
(0.00026703 -0.000343657 0.000613625)
(0 0 0)
(0 0 0)
(0 0 0)
(0 0 0)
(0 0 0)
(0 0 0)
(0 0 0)
(0 0 0)
(0 0 0)
(0 0 0)
(0 0 0)
(0 0 0)
(0 0 0)
(0 0 0)
(0 0 0)
(0 0 0)
(0 0 0)
(0 0 0)
(0 0 0)
(0 0 0)
(0 0 0)
(0 0 0)
(0 0 0)
(0 0 0)
(0 0 0)
(0 0 0)
(0 0 0)
(0 0 0)
(0 0 0)
(0 0 0)
(0 0 0)
(0 0 0)
(0 0 0)
(0 0 0)
(0 0 0)
(0 0 0)
(0 0 0)
(0 0 0)
(0 0 0)
(0 0 0)
(0 0 0)
(0 0 0)
(0 0 0)
(0 0 0)
(0 0 0)
(0 0 0)
(0 0 0)
(0 0 0)
(0 0 0)
(0 0 0)
(0 0 0)
(0 0 0)
(0 0 0)
(0 0 0)
(0 0 0)
(0 0 0)
(0 0 0)
(0 0 0)
(0 0 0)
(0 0 0)
(0 0 0)
(0 0 0)
(0 0 0)
(0 0 0)
(0 0 0)
(0 0 0)
(0 0 0)
(0 0 0)
(0 0 0)
(0 0 0)
(0 0 0)
(0 0 0)
(0 0 0)
(0 0 0)
(0 0 0)
(0 0 0)
(0 0 0)
(0 0 0)
(0 0 0)
(0 0 0)
(0 0 0)
(0 0 0)
(0 0 0)
(0 0 0)
(0 0 0)
(0 0 0)
(0 0 0)
(0 0 0)
(0 0 0)
(0 0 0)
(0 0 0)
(0 0 0)
(0 0 0)
(0 0 0)
(0 0 0)
(0 0 0)
(0 0 0)
(0 0 0)
(0 0 0)
(0 0 0)
(0 0 0)
(0 0 0)
(0 0 0)
(0 0 0)
(0 0 0)
(0 0 0)
(0 0 0)
(0 0 0)
(0 0 0)
(0 0 0)
(0 0 0)
(0 0 0)
(0 0 0)
(0 0 0)
(0 0 0)
(0 0 0)
(0 0 0)
(0 0 0)
(0 0 0)
(0 0 0)
(0 0 0)
(0 0 0)
(0 0 0)
(0 0 0)
(0 0 0)
(0 0 0)
(0 0 0)
(0 0 0)
(0 0 0)
(0 0 0)
(0 0 0)
(0 0 0)
(0 0 0)
(0 0 0)
(0 0 0)
(0 0 0)
(0 0 0)
(0 0 0)
(0 0 0)
(0 0 0)
(0 0 0)
(0 0 0)
(0 0 0)
(0 0 0)
(0 0 0)
(0 0 0)
(0 0 0)
(0 0 0)
(0 0 0)
(0 0 0)
(0 0 0)
(0 0 0)
(0 0 0)
(0 0 0)
(0 0 0)
(0 0 0)
(0 0 0)
(0 0 0)
(0 0 0)
(0 0 0)
(0 0 0)
(0 0 0)
(0 0 0)
(0 0 0)
(0 0 0)
(0 0 0)
(0 0 0)
(0 0 0)
(0 0 0)
(0 0 0)
(0 0 0)
(0 0 0)
(0 0 0)
(0 0 0)
(0 0 0)
(0 0 0)
(0 0 0)
(0 0 0)
(0 0 0)
(0 0 0)
(0 0 0)
(0 0 0)
(0 0 0)
(0 0 0)
(0 0 0)
(0 0 0)
(0 0 0)
(0 0 0)
(0 0 0)
(0 0 0)
(0 0 0)
(0 0 0)
(0 0 0)
(0 0 0)
(0 0 0)
(0 0 0)
(0 0 0)
(0 0 0)
(0 0 0)
(0 0 0)
(0 0 0)
(0 0 0)
(0 0 0)
(0 0 0)
(0 0 0)
(0 0 0)
(0 0 0)
(0 0 0)
(0 0 0)
(0 0 0)
(0 0 0)
(0 0 0)
(0 0 0)
(0 0 0)
(0 0 0)
(0 0 0)
(0 0 0)
(0 0 0)
(0 0 0)
(0 0 0)
(0 0 0)
(0 0 0)
(0 0 0)
(0 0 0)
(0 0 0)
(0 0 0)
(0 0 0)
(0 0 0)
(0 0 0)
(0 0 0)
(0 0 0)
(0 0 0)
(0 0 0)
(0 0 0)
(0 0 0)
(0 0 0)
(0 0 0)
(0 0 0)
(0 0 0)
(0 0 0)
(0 0 0)
(0 0 0)
(0 0 0)
(0 0 0)
(0 0 0)
(0 0 0)
(0 0 0)
(0 0 0)
(0 0 0)
(0 0 0)
(0 0 0)
(0 0 0)
(0 0 0)
(0 0 0)
(0 0 0)
(0 0 0)
(0 0 0)
(0 0 0)
(0 0 0)
(0 0 0)
(0 0 0)
(0 0 0)
(0 0 0)
(0 0 0)
(0 0 0)
(0 0 0)
(0 0 0)
(0 0 0)
(0 0 0)
(0 0 0)
(0 0 0)
(0 0 0)
(0.000949624 -0.000248922 -0.000195865)
(0.000534696 -0.000611054 -0.000251488)
(-6.32892e-05 -0.000527283 -0.000317449)
(-0.000303565 -0.000358622 -7.35283e-05)
(0.000783212 -0.000404332 -0.000395847)
(0.000348288 -0.00018145 -0.000101506)
(0.000117656 0.000329206 0.000130244)
(0.000291581 0.000160049 -7.2837e-05)
(0.000401528 7.21801e-05 -0.000438956)
(-0.000113144 0.000183817 -0.000279132)
(0.000136135 -6.78923e-05 -1.22845e-05)
(0.000323787 0.000361687 -0.000647393)
(0.00105929 0.000143083 -0.000925961)
(0.000352917 -0.000777962 -0.000369973)
(0.000790159 -0.000968149 -3.22433e-05)
(0.000148754 6.97084e-05 -0.000744516)
(0.000849681 -0.000286675 0.00196201)
(0.00109625 -0.000747423 0.00226449)
(0.000526801 -0.000276347 0.000987892)
(-0.000343314 -0.000404022 0.0030228)
(0.00123611 3.55781e-05 0.00285688)
(0.00104367 0.000434488 0.00154028)
(0.000894673 0.000821108 0.00160501)
(-0.000375301 -0.000223144 0.00126855)
(0.000857965 -0.000144649 0.00284207)
(0.000371125 0.000453234 0.00263153)
(0.000272698 0.000242183 0.00153519)
(-0.00016886 -0.000228797 0.00231877)
(0.000145365 -8.62307e-06 0.00243942)
(-0.000106588 -0.000355176 0.00234596)
(-0.000274524 -0.000311364 0.00197085)
(3.31274e-05 0.000991813 0.00411449)
(0.00104314 0.000676615 0.00148685)
(0.00113098 0.00065751 0.00221911)
(0.000563038 0.000468114 0.00152196)
(0.000490844 0.00113871 0.00418244)
(0.000593413 0.000639344 0.00201339)
(0.000815118 0.00101242 0.00228465)
(0.000318483 0.000394247 0.00288103)
(0.000337079 0.000504031 0.00147077)
(0.0011913 0.000510621 0.00260775)
(0.000959013 0.000699406 0.00237392)
(0.000761823 -0.000592472 0.00264047)
(0.000298912 -0.000152316 0.00182951)
(0.000592806 0.000738032 0.00292559)
(0.000843436 0.00103391 0.00291803)
(0.000799477 0.000483184 0.00262714)
(0.000263363 0.000575166 0.00234494)
(0.000500127 0.000196302 0.00129655)
(0.000569826 0.000576735 0.00162749)
(0.000484987 -0.000104701 0.00234041)
(0.000665845 -7.39756e-05 0.00237698)
(0.000283655 0.000338941 0.00149833)
(0.000180276 0.000356822 0.00176981)
(-0.000669214 -0.000180954 0.00492521)
(-0.00033302 6.38375e-05 0.00159188)
(0.000360682 0.000390768 0.00216775)
(0.000860037 0.000407036 0.0023505)
(0.000435935 0.000224614 0.002106)
(4.82787e-05 0.000473777 0.00249029)
(7.45754e-05 0.000543795 0.00328288)
(0.000136896 0.000741447 0.00214464)
(-0.000277018 0.000427291 0.00276273)
(0.000180158 0.000514647 0.00144295)
(-2.14929e-07 -0.000218529 0.00174672)
(-5.34697e-05 1.47036e-05 0.00105124)
(0.000576654 0.000223881 0.00185914)
(0.000255306 8.7107e-06 0.00312198)
(-0.000179327 0.000235963 0.00230515)
(-0.00041637 0.000212167 0.00160771)
(-0.000334006 -0.000120449 0.00191804)
(0.000257183 -0.000145415 0.00124913)
(-0.000228474 2.01472e-05 0.00225293)
(-0.000332346 0.000123015 0.00226397)
(-5.92488e-05 0.000401564 0.00135653)
(-0.000227556 -0.000195664 0.00139775)
(0.000108433 0.000293922 0.00204972)
(-0.000269699 0.000200475 0.00218012)
(-0.000277687 0.000281932 0.0019028)
(0.000159252 6.40911e-05 0.00151665)
(-0.000143257 -0.000131471 0.000991554)
(-2.78593e-05 9.18247e-05 0.000799764)
(-8.91391e-05 0.000145098 0.000960827)
(-4.39379e-05 -1.9896e-05 0.000876482)
(3.48374e-05 0.000149068 0.00166111)
(-0.000292353 0.000389168 0.00156943)
(-7.58035e-05 0.000393014 0.000784168)
(-0.000199387 8.24742e-05 0.000438024)
(-0.00016389 0.000219752 0.00184793)
(-0.000478894 0.000585435 0.00187797)
(-4.71954e-05 0.000531473 0.0012765)
(-0.000191836 -2.56588e-05 0.000879559)
(-0.00011157 0.000110573 0.00200666)
(-0.000113955 0.000250402 0.00179138)
(0.000212983 0.000527654 0.0013696)
(4.36237e-05 0.000199123 0.000800564)
(-0.00033413 -0.000152573 0.000661377)
(-0.000241318 9.84009e-05 0.000473962)
(0.00171596 0.00112718 0.000583288)
(0.000180761 0.00012719 0.000553821)
(-9.64368e-05 -6.79648e-06 0.00138432)
(0.000114617 0.000184184 0.00120143)
(4.79681e-05 0.000360406 0.000771817)
(0.000214412 0.000266536 0.000399061)
(7.68149e-05 9.27381e-05 0.00187439)
(0.000325243 0.000585802 0.00150587)
(0.000372803 0.000532144 0.000881429)
(-2.99416e-05 3.94902e-06 0.000681946)
(0.000244809 4.35479e-05 0.00204784)
(0.000706095 -0.000177353 0.00155298)
(0.000601498 0.000704467 0.00122914)
(0.000169125 0.000326322 0.000963322)
(0 0 0)
(0 0 0)
(0 0 0)
(0 0 0)
(0 0 0)
(0 0 0)
(0 0 0)
(0 0 0)
(0 0 0)
(0 0 0)
(0 0 0)
(-4.24495e-05 -3.013e-05 0.000564004)
(0 0 0)
(0 0 0)
(0 0 0)
(0 0 0)
(0 0 0)
(0 0 0)
(0 0 0)
(0 0 0)
(0 0 0)
(0 0 0)
(0 0 0)
(0 0 0)
(0 0 0)
(0 0 0)
(0 0 0)
(0 0 0)
(0 0 0)
(0 0 0)
(0 0 0)
(0 0 0)
(0 0 0)
(0 0 0)
(0 0 0)
(0 0 0)
(0 0 0)
(0 0 0)
(0 0 0)
(0 0 0)
(0 0 0)
(0 0 0)
(0 0 0)
(0 0 0)
(0 0 0)
(0 0 0)
(0 0 0)
(0 0 0)
(0 0 0)
(0 0 0)
(0 0 0)
(0 0 0)
(0 0 0)
(0 0 0)
(0 0 0)
(0 0 0)
(0 0 0)
(0 0 0)
(0 0 0)
(0 0 0)
(0 0 0)
(0 0 0)
(0 0 0)
(0 0 0)
(0 0 0)
(0 0 0)
(0 0 0)
(0 0 0)
(0 0 0)
(0 0 0)
(0 0 0)
(0 0 0)
(0 0 0)
(0 0 0)
(0 0 0)
(0 0 0)
(0 0 0)
(0 0 0)
(0 0 0)
(0 0 0)
(0 0 0)
(0 0 0)
(0 0 0)
(0 0 0)
(0 0 0)
(0 0 0)
(0 0 0)
(0 0 0)
(0 0 0)
(0 0 0)
(0 0 0)
(0 0 0)
(0 0 0)
(0 0 0)
(0 0 0)
(0 0 0)
(0 0 0)
(0 0 0)
(0 0 0)
(0 0 0)
(0 0 0)
(0 0 0)
(0 0 0)
(0 0 0)
(0 0 0)
(0 0 0)
(0 0 0)
(0 0 0)
(0 0 0)
(0 0 0)
(0 0 0)
(0 0 0)
(0 0 0)
(0 0 0)
(0 0 0)
(0 0 0)
(0 0 0)
(0 0 0)
(0 0 0)
(0 0 0)
(0 0 0)
(0 0 0)
(0 0 0)
(0 0 0)
(0 0 0)
(0 0 0)
(0 0 0)
(0 0 0)
(0 0 0)
(0 0 0)
(0 0 0)
(0 0 0)
(0 0 0)
(0 0 0)
(0 0 0)
(0 0 0)
(0 0 0)
(0 0 0)
(0 0 0)
(0 0 0)
(0 0 0)
(0 0 0)
(0 0 0)
(0 0 0)
(0 0 0)
(0 0 0)
(0 0 0)
(0 0 0)
(0 0 0)
(0 0 0)
(0 0 0)
(0 0 0)
(0 0 0)
(0 0 0)
(0 0 0)
(0 0 0)
(0 0 0)
(0 0 0)
(0 0 0)
(0 0 0)
(0 0 0)
(0 0 0)
(0 0 0)
(0 0 0)
(0 0 0)
(0 0 0)
(0 0 0)
(0 0 0)
(0 0 0)
(0 0 0)
(0 0 0)
(0 0 0)
(0 0 0)
(0 0 0)
(0 0 0)
(0 0 0)
(0 0 0)
(0 0 0)
(0 0 0)
(0 0 0)
(0 0 0)
(0 0 0)
(0 0 0)
(0 0 0)
(0 0 0)
(0 0 0)
(0 0 0)
(0 0 0)
(0 0 0)
(0 0 0)
(0 0 0)
(0 0 0)
(0 0 0)
(0 0 0)
(0 0 0)
(0 0 0)
(0 0 0)
(0 0 0)
(0 0 0)
(0 0 0)
(0 0 0)
(0 0 0)
(0 0 0)
(0 0 0)
(0 0 0)
(0 0 0)
(0 0 0)
(0 0 0)
(0 0 0)
(0 0 0)
(0 0 0)
(0 0 0)
(0 0 0)
(0 0 0)
(0 0 0)
(0 0 0)
(0 0 0)
(0 0 0)
(0 0 0)
(0 0 0)
(0 0 0)
(0 0 0)
(0 0 0)
(0 0 0)
(0 0 0)
(0 0 0)
(0 0 0)
(0 0 0)
(0 0 0)
(0 0 0)
(0 0 0)
(0 0 0)
(0 0 0)
(0 0 0)
(0 0 0)
(0 0 0)
(0 0 0)
(0 0 0)
(0 0 0)
(0 0 0)
(0 0 0)
(0 0 0)
(0 0 0)
(0 0 0)
(0 0 0)
(0 0 0)
(0 0 0)
(0 0 0)
(0 0 0)
(0 0 0)
(0 0 0)
(0 0 0)
(0 0 0)
(0 0 0)
(0 0 0)
(0 0 0)
(0 0 0)
(0 0 0)
(0 0 0)
(0 0 0)
(0 0 0)
(0 0 0)
(0 0 0)
(0 0 0)
(0 0 0)
(0 0 0)
(0 0 0)
(0 0 0)
(0 0 0)
(0 0 0)
(0 0 0)
(0 0 0)
)
;

boundaryField
{
    inlet
    {
        type            zeroGradient;
    }
    outlet
    {
        type            zeroGradient;
    }
    wall
    {
        type            zeroGradient;
    }
    procBoundary1to0
    {
        type            processor;
        value           nonuniform List<vector> 
192
(
(-4.61639e-05 0.000267731 0.00012488)
(-0.000141076 0.000264001 9.45063e-05)
(-0.000300628 0.000402486 -0.000414309)
(-0.000108314 0.000243341 -0.000339664)
(6.27467e-05 -0.000974874 0.003532)
(-1.05167e-05 0.000723103 0.00258778)
(0.000288062 -0.000255865 0.00254625)
(0.000379023 -0.00115091 0.00216666)
(0.000759229 0.000269248 0.00247364)
(0.000368347 0.000224396 0.00210559)
(0.00017094 -0.000306016 0.00310365)
(-0.000159807 -0.000110554 0.00222745)
(0.000534484 -0.000604188 0.00283394)
(-0.000153333 1.10241e-05 0.0027809)
(0.000329157 -0.000112531 0.00219855)
(-0.00027978 7.95001e-05 0.00201561)
(7.60634e-05 8.26842e-05 0.00205651)
(-2.78247e-05 0.000186198 0.0020217)
(4.67016e-05 0.000242225 0.00177292)
(-0.000134025 0.000144576 0.00180959)
(0.000163735 0.000105615 0.00179392)
(0.000152945 0.00031265 0.0019104)
(4.60379e-06 0.00026545 0.00176853)
(-0.000248945 0.000298781 0.00216597)
(0.000193552 0.000366243 0.00129669)
(0.00389034 -0.000839392 -0.00495081)
(-0.000439665 0.000176915 0.00181322)
(-0.00110246 2.3775e-05 0.00183478)
(0 0 0)
(0 0 0)
(0 0 0)
(0 0 0)
(0 0 0)
(0 0 0)
(0 0 0)
(0 0 0)
(0 0 0)
(0 0 0)
(0 0 0)
(0 0 0)
(0 0 0)
(0 0 0)
(0 0 0)
(0 0 0)
(0 0 0)
(0 0 0)
(0 0 0)
(0 0 0)
(0 0 0)
(0 0 0)
(0 0 0)
(0 0 0)
(0 0 0)
(0 0 0)
(0 0 0)
(0 0 0)
(0 0 0)
(0 0 0)
(0 0 0)
(0 0 0)
(0 0 0)
(0 0 0)
(0 0 0)
(0 0 0)
(0 0 0)
(0 0 0)
(0 0 0)
(0 0 0)
(0 0 0)
(0 0 0)
(0 0 0)
(0 0 0)
(0 0 0)
(0 0 0)
(0 0 0)
(0 0 0)
(0 0 0)
(0 0 0)
(0 0 0)
(0 0 0)
(0 0 0)
(0 0 0)
(0 0 0)
(0 0 0)
(0 0 0)
(0 0 0)
(0 0 0)
(0 0 0)
(0 0 0)
(0 0 0)
(0 0 0)
(0 0 0)
(0 0 0)
(0 0 0)
(0 0 0)
(0 0 0)
(7.97018e-05 0.000124246 -0.00031555)
(-2.97581e-05 0.000524844 1.82393e-05)
(-0.000196638 -0.000287099 -0.000647082)
(3.85949e-05 0.000107363 8.00127e-05)
(-6.38495e-05 -0.000124826 0.00433233)
(0.000117406 -0.000375155 0.00365656)
(-3.60043e-05 -0.000825526 0.00189514)
(0.000424123 -0.000476028 0.00262124)
(0.000182153 -0.00015568 0.0035694)
(5.69093e-05 0.000207911 0.00308631)
(0.00104019 0.000162544 0.0029309)
(-8.85182e-06 0.000738901 0.00261362)
(-9.80014e-05 6.27969e-05 0.00171736)
(9.49291e-05 0.000187082 0.00192631)
(0.000271672 0.000731218 0.00216004)
(-0.000301587 0.000869649 0.00240873)
(-0.000422453 0.000239171 0.00086555)
(-0.000260497 0.000124477 0.00148585)
(-0.000207018 0.000426208 0.00161294)
(-6.10832e-05 0.000258378 0.00177116)
(-0.000142528 -3.58716e-05 0.000490263)
(-6.13427e-05 0.000145914 0.000841258)
(-1.66926e-05 -5.4402e-05 0.00138343)
(-3.85314e-05 -0.000106106 0.00174242)
(3.03451e-05 -6.04075e-05 0.000568291)
(-6.87664e-06 -0.000167033 0.000839111)
(-0.0001994 -0.00014533 0.00141268)
(7.69978e-05 -0.000292142 0.00148104)
(0 0 0)
(0 0 0)
(0 0 0)
(0 0 0)
(0 0 0)
(0 0 0)
(0 0 0)
(0 0 0)
(0 0 0)
(0 0 0)
(0 0 0)
(0 0 0)
(0 0 0)
(0 0 0)
(0 0 0)
(0 0 0)
(0 0 0)
(0 0 0)
(0 0 0)
(0 0 0)
(0 0 0)
(0 0 0)
(0 0 0)
(0 0 0)
(0 0 0)
(0 0 0)
(0 0 0)
(0 0 0)
(0 0 0)
(0 0 0)
(0 0 0)
(0 0 0)
(0 0 0)
(0 0 0)
(0 0 0)
(0 0 0)
(0 0 0)
(0 0 0)
(0 0 0)
(0 0 0)
(0 0 0)
(0 0 0)
(0 0 0)
(0 0 0)
(0 0 0)
(0 0 0)
(0 0 0)
(0 0 0)
(0 0 0)
(0 0 0)
(0 0 0)
(0 0 0)
(0 0 0)
(0 0 0)
(0 0 0)
(0 0 0)
(0 0 0)
(0 0 0)
(0 0 0)
(0 0 0)
(0 0 0)
(0 0 0)
(0 0 0)
(0 0 0)
(0 0 0)
(0 0 0)
(0 0 0)
(0 0 0)
)
;
    }
    procBoundary1to3
    {
        type            processor;
        value           nonuniform List<vector> 
192
(
(0.000451168 0.000720572 -0.000349758)
(0.000432057 0.000112732 -3.97992e-05)
(0.000498054 0.000463518 8.93343e-05)
(0.00080418 0.00112672 -0.000240473)
(-0.000219768 -5.20695e-05 0.0025927)
(0.00091088 -5.46128e-07 0.00396635)
(0.00112523 0.000149824 0.00231259)
(0.000213866 -6.13499e-05 0.00263142)
(-0.000630126 -0.000340656 0.00315752)
(-0.000408689 -0.00115317 0.00405718)
(0.000640979 0.000528422 0.00341661)
(-3.78562e-05 0.000372446 0.00250974)
(-0.000252606 0.000238364 0.00248682)
(-0.000328657 -0.000146809 0.00245443)
(-8.53969e-05 0.000232519 0.00297583)
(-0.000369616 0.000378965 0.00243448)
(-1.67307e-05 0.000162294 0.00198141)
(-6.43051e-05 0.00014176 0.00190739)
(-0.000362442 0.00057083 0.0022084)
(-0.000171232 9.32129e-05 0.00198828)
(-0.0002471 0.000253828 0.00199331)
(0.000308559 0.000464895 0.00196978)
(-0.000111682 0.000229107 0.00207852)
(6.97432e-05 -0.000138905 0.00221507)
(-0.00016807 5.87459e-05 0.00194288)
(-0.0001426 -6.90398e-05 0.00184767)
(2.96006e-05 0.000108879 0.00197212)
(0.000376194 -8.22025e-05 0.00209036)
(0 0 0)
(0 0 0)
(0 0 0)
(0 0 0)
(0 0 0)
(0 0 0)
(0 0 0)
(0 0 0)
(0 0 0)
(0 0 0)
(0 0 0)
(0 0 0)
(0 0 0)
(0 0 0)
(0 0 0)
(0 0 0)
(0 0 0)
(0 0 0)
(0 0 0)
(0 0 0)
(0 0 0)
(0 0 0)
(0 0 0)
(0 0 0)
(0 0 0)
(0 0 0)
(0 0 0)
(0 0 0)
(0 0 0)
(0 0 0)
(0 0 0)
(0 0 0)
(0 0 0)
(0 0 0)
(0 0 0)
(0 0 0)
(0 0 0)
(0 0 0)
(0 0 0)
(0 0 0)
(0 0 0)
(0 0 0)
(0 0 0)
(0 0 0)
(0 0 0)
(0 0 0)
(0 0 0)
(0 0 0)
(0 0 0)
(0 0 0)
(0 0 0)
(0 0 0)
(0 0 0)
(0 0 0)
(0 0 0)
(0 0 0)
(0 0 0)
(0 0 0)
(0 0 0)
(0 0 0)
(0 0 0)
(0 0 0)
(0 0 0)
(0 0 0)
(0 0 0)
(0 0 0)
(0 0 0)
(0 0 0)
(0.00108942 0.000386193 -0.00226575)
(0.000399633 -0.000343798 -0.000519418)
(-0.000160852 -0.000198709 7.40869e-05)
(-0.000348172 -0.000130726 -0.000304248)
(-0.000629434 0.000742896 0.00257141)
(0.000352909 0.000491213 0.00259791)
(0.00142012 0.00123745 0.00364356)
(0.00054691 0.00101534 0.00263152)
(-4.21169e-05 0.000654341 0.00217212)
(-0.000296673 0.000460012 0.00248624)
(-0.000141017 0.000761254 0.00255264)
(-5.70571e-05 0.000748506 0.00255878)
(5.12314e-05 0.000417109 0.00184976)
(0.00038113 0.000235167 0.00215088)
(-1.38786e-05 0.000408558 0.00260221)
(-1.32025e-05 5.6108e-05 0.00240284)
(-0.000333242 0.000113693 0.00202662)
(-0.000368273 2.94993e-05 0.00200588)
(-0.000391392 -6.34886e-05 0.00177379)
(0.000276634 -0.000552372 0.00259278)
(-0.000160908 -2.46626e-05 0.00227245)
(-0.000353841 0.000467015 0.00171661)
(-0.000674222 0.000516778 0.00190163)
(-0.000163967 0.000489467 0.000832688)
(4.77789e-05 -0.000511629 0.00243128)
(0.000123544 0.00022139 0.00180776)
(0.00039164 0.000715076 0.00143056)
(0.00017789 0.000569181 0.000876825)
(0 0 0)
(0 0 0)
(0 0 0)
(0 0 0)
(0 0 0)
(0 0 0)
(0 0 0)
(0 0 0)
(0 0 0)
(0 0 0)
(0 0 0)
(0 0 0)
(0 0 0)
(0 0 0)
(0 0 0)
(0 0 0)
(0 0 0)
(0 0 0)
(0 0 0)
(0 0 0)
(0 0 0)
(0 0 0)
(0 0 0)
(0 0 0)
(0 0 0)
(0 0 0)
(0 0 0)
(0 0 0)
(0 0 0)
(0 0 0)
(0 0 0)
(0 0 0)
(0 0 0)
(0 0 0)
(0 0 0)
(0 0 0)
(0 0 0)
(0 0 0)
(0 0 0)
(0 0 0)
(0 0 0)
(0 0 0)
(0 0 0)
(0 0 0)
(0 0 0)
(0 0 0)
(0 0 0)
(0 0 0)
(0 0 0)
(0 0 0)
(0 0 0)
(0 0 0)
(0 0 0)
(0 0 0)
(0 0 0)
(0 0 0)
(0 0 0)
(0 0 0)
(0 0 0)
(0 0 0)
(0 0 0)
(0 0 0)
(0 0 0)
(0 0 0)
(0 0 0)
(0 0 0)
(0 0 0)
(0 0 0)
)
;
    }
}


// ************************************************************************* //
