/*--------------------------------*- C++ -*----------------------------------*\
| =========                 |                                                 |
| \\      /  F ield         | OpenFOAM: The Open Source CFD Toolbox           |
|  \\    /   O peration     | Version:  2506                                  |
|   \\  /    A nd           | Website:  www.openfoam.com                      |
|    \\/     M anipulation  |                                                 |
\*---------------------------------------------------------------------------*/
FoamFile
{
    version     2.0;
    format      ascii;
    arch        "LSB;label=32;scalar=64";
    class       volScalarField;
    location    "0.06";
    object      voidfraction;
}
// * * * * * * * * * * * * * * * * * * * * * * * * * * * * * * * * * * * * * //

dimensions      [0 0 0 0 0 0 0];

internalField   nonuniform List<scalar> 
1152
(
0.431196
0.515464
0.439097
0.444363
0.515464
0.423296
0.454897
0.43383
0.454897
0.45753
0.41013
0.48123
0.43383
0.404863
0.391696
0.378529
0.286362
0.439097
0.399596
0.383796
0.383796
0.41803
0.41803
0.381163
0.362729
0.357463
0.41013
0.396963
0.389063
0.354829
0.428563
0.428563
0.44173
0.446997
0.41803
0.40223
0.391696
0.41013
0.404863
0.399596
0.373263
0.439097
0.391696
0.399596
0.407496
0.325862
0.40223
0.404863
0.354829
0.399596
0.373263
0.423296
0.420663
0.431196
0.412763
0.415396
0.367996
0.396963
0.373263
0.39433
0.423296
0.444363
0.415396
0.370629
0.381163
0.370629
0.396963
0.383796
0.307429
0.375896
0.407496
0.40223
0.44173
0.42593
0.431196
0.428563
0.341663
0.478597
0.375896
0.483863
0.444363
0.399596
0.373263
0.399596
0.446997
0.367996
0.41013
0.407496
0.404863
0.452263
0.373263
0.354829
0.360096
0.39433
0.373263
0.43383
0.676098
0.644498
0.597097
0.712965
0.499664
0.533897
0.562864
0.641864
0.568131
0.602364
0.486497
0.604998
0.483863
0.570764
0.525997
0.715598
1
1
1
1
1
1
1
1
1
1
0.997367
1
1
0.997367
0.997367
1
1
1
1
1
1
1
1
1
1
1
1
1
1
1
1
1
1
1
1
1
1
1
1
1
1
1
1
1
1
1
1
1
1
1
1
1
1
1
1
1
1
1
1
1
1
1
1
1
1
1
1
1
1
1
1
1
1
1
1
1
1
1
1
1
1
1
1
1
1
1
1
1
1
1
1
1
1
1
1
1
1
1
1
1
1
1
1
1
1
1
1
1
1
1
1
1
1
1
1
1
1
1
1
1
1
1
1
1
1
1
1
1
1
1
1
1
1
1
1
1
1
1
1
1
1
1
1
1
1
1
1
1
1
1
1
1
1
1
1
1
1
1
1
1
1
1
1
1
1
1
1
1
1
1
1
1
1
1
1
1
1
1
1
1
1
1
1
1
1
1
1
1
1
1
1
1
1
1
1
1
1
1
1
1
1
1
1
1
1
1
1
1
1
1
1
1
1
1
1
1
1
1
1
1
1
1
1
1
1
1
1
1
1
1
1
1
1
1
1
1
1
1
1
1
1
1
1
1
1
1
1
1
1
1
1
1
1
1
1
1
1
1
1
1
1
1
1
1
1
1
1
1
1
1
1
1
0.455941
0.416852
0.506457
0.419972
0.432279
0.420679
0.446992
0.436882
0.473797
0.470557
0.437713
0.477748
0.511357
0.442379
0.457583
0.404181
0.418358
0.422569
0.465147
0.414576
0.386782
0.460851
0.366599
0.396659
0.431789
0.401705
0.415554
0.524895
0.37604
0.385534
0.377343
0.404181
0.434465
0.430192
0.428186
0.457741
0.428323
0.422793
0.408014
0.396659
0.389782
0.41595
0.473721
0.383452
0.366017
0.374707
0.419068
0.404181
0.443413
0.418757
0.417315
0.484719
0.408541
0.38685
0.383652
0.396659
0.416313
0.453937
0.385085
0.423346
0.338452
0.390948
0.386972
0.369133
0.446992
0.401606
0.47167
0.42267
0.372935
0.367821
0.444556
0.350248
0.464953
0.430195
0.421093
0.336304
0.433675
0.4505
0.367715
0.426086
0.441623
0.468306
0.40427
0.436159
0.406563
0.365707
0.425067
0.446164
0.414102
0.370841
0.343537
0.408839
0.486298
0.418017
0.412649
0.395419
0.659963
0.656972
0.660825
0.509
0.697347
0.695539
0.598034
0.585396
0.697102
0.781575
0.772869
0.59743
0.714332
0.621034
0.842731
0.745901
1
1
1
1
1
1
1
1
1
1
1
1
1
1
1
1
1
1
1
1
1
1
1
1
1
1
1
1
1
1
1
1
1
1
1
1
1
1
1
1
1
1
1
1
1
1
1
1
1
1
1
1
1
1
1
1
1
1
1
1
1
1
1
1
1
1
1
1
1
1
1
1
1
1
1
1
1
1
1
1
1
1
1
1
1
1
1
1
1
1
1
1
1
1
1
1
1
1
1
1
1
1
1
1
1
1
1
1
1
1
1
1
1
1
1
1
1
1
1
1
1
1
1
1
1
1
1
1
1
1
1
1
1
1
1
1
1
1
1
1
1
1
1
1
1
1
1
1
1
1
1
1
1
1
1
1
1
1
1
1
1
1
1
1
1
1
1
1
1
1
1
1
1
1
1
1
1
1
1
1
1
1
1
1
1
1
1
1
1
1
1
1
1
1
1
1
1
1
1
1
1
1
1
1
1
1
1
1
1
1
1
1
1
1
1
1
1
1
1
1
1
1
1
1
1
1
1
1
1
1
1
1
1
1
1
1
1
1
1
1
1
1
1
1
1
1
1
1
1
1
1
1
1
1
1
1
1
1
1
1
1
1
1
1
1
1
1
1
1
1
1
1
0.426086
0.448733
0.45854
0.438857
0.470421
0.440483
0.439684
0.489063
0.404483
0.449189
0.475651
0.464495
0.481286
0.378727
0.527229
0.51321
0.439229
0.448733
0.353342
0.495511
0.40302
0.365696
0.37878
0.449928
0.399069
0.399331
0.350907
0.397795
0.421146
0.398625
0.406563
0.450572
0.386657
0.387079
0.371906
0.42267
0.409439
0.410014
0.44212
0.410792
0.436965
0.458686
0.429136
0.434003
0.431169
0.431789
0.432279
0.359299
0.369133
0.387079
0.381189
0.419972
0.412649
0.410014
0.44212
0.397747
0.393655
0.401705
0.414336
0.458777
0.441193
0.356617
0.471841
0.420147
0.430467
0.339931
0.421411
0.492813
0.428697
0.343537
0.432375
0.412967
0.372
0.420699
0.376278
0.3997
0.413628
0.427367
0.432279
0.427306
0.461134
0.368945
0.409035
0.441554
0.521774
0.446022
0.454301
0.43036
0.404483
0.404079
0.424908
0.451155
0.401099
0.383149
0.376891
0.35214
0.636375
0.58655
0.591584
0.646588
0.669414
0.700852
0.617523
0.558638
0.79969
0.748336
0.731483
0.487363
0.644168
0.76343
0.671632
0.667122
1
1
1
1
1
1
1
1
1
1
1
0.998094
1
1
1
1
1
1
1
1
1
1
1
1
1
1
1
1
1
1
1
1
1
1
1
1
1
1
1
1
1
1
1
1
1
1
1
1
1
1
1
1
1
1
1
1
1
1
1
1
1
1
1
1
1
1
1
1
1
1
1
1
1
1
1
1
1
1
1
1
1
1
1
1
1
1
1
1
1
1
1
1
1
1
1
1
1
1
1
1
1
1
1
1
1
1
1
1
1
1
1
1
1
1
1
1
1
1
1
1
1
1
1
1
1
1
1
1
1
1
1
1
1
1
1
1
1
1
1
1
1
1
1
1
1
1
1
1
1
1
1
1
1
1
1
1
1
1
1
1
1
1
1
1
1
1
1
1
1
1
1
1
1
1
1
1
1
1
1
1
1
1
1
1
1
1
1
1
1
1
1
1
1
1
1
1
1
1
1
1
1
1
1
1
1
1
1
1
1
1
1
1
1
1
1
1
1
1
1
1
1
1
1
1
1
1
1
1
1
1
1
1
1
1
1
1
1
1
1
1
1
1
1
1
1
1
1
1
1
1
1
1
1
1
1
1
1
1
1
1
1
1
1
1
1
1
1
1
1
1
1
1
)
;

boundaryField
{
    inlet
    {
        type            fixedValue;
        value           uniform 1;
    }
    outlet
    {
        type            fixedValue;
        value           uniform 1;
    }
    wall
    {
        type            zeroGradient;
    }
    procBoundary1to0
    {
        type            processor;
        value           nonuniform List<scalar> 
192
(
0.494397
0.446997
0.43383
0.53653
0.420663
0.38643
0.344296
0.444363
0.396963
0.370629
0.48123
0.44963
0.44963
0.404863
0.399596
0.302162
0.452263
0.502297
0.391696
0.41803
0.381163
0.375896
0.44173
0.468063
0.694531
0.623431
0.578664
0.628698
1
1
1
1
1
1
1
1
1
1
1
1
1
1
1
1
1
1
1
1
1
1
1
1
1
1
1
1
1
1
1
1
1
1
1
1
1
1
1
1
1
1
1
1
1
1
1
1
1
1
1
1
1
1
1
1
1
1
1
1
1
1
1
1
1
1
1
1
0.420147
0.45206
0.411891
0.368523
0.40583
0.416454
0.405258
0.411122
0.439834
0.414476
0.396414
0.401099
0.391513
0.477776
0.400836
0.428663
0.421937
0.376891
0.330086
0.373534
0.425516
0.410519
0.378727
0.358499
0.683229
0.786363
0.772274
0.746908
1
1
1
1
1
1
1
1
1
1
1
1
1
1
1
1
1
1
1
1
1
1
1
1
1
1
1
1
1
1
1
1
1
1
1
1
1
1
1
1
1
1
1
1
1
1
1
1
1
1
1
1
1
1
1
1
1
1
1
1
1
1
1
1
1
1
1
1
)
;
    }
    procBoundary1to3
    {
        type            processor;
        value           nonuniform List<scalar> 
192
(
0.452263
0.475963
0.525997
0.41013
0.44173
0.44173
0.396963
0.362729
0.370629
0.362729
0.444363
0.48913
0.412763
0.344296
0.38643
0.444363
0.48913
0.299529
0.436463
0.367996
0.375896
0.491764
0.373263
0.339029
0.694531
0.589197
0.676098
0.789332
1
1
1
1
1
1
1
1
1
1
1
1
1
1
1
1
1
1
1
1
1
1
1
1
1
1
1
1
1
1
1
1
1
1
1
1
1
1
1
1
1
1
1
1
1
1
1
1
1
1
1
1
1
1
1
1
1
1
1
1
1
1
1
1
1
1
1
1
0.41864
0.476008
0.408541
0.400461
0.37604
0.440633
0.493601
0.396882
0.348476
0.365461
0.34722
0.448782
0.37604
0.387571
0.414476
0.368247
0.373534
0.411891
0.402607
0.434465
0.438687
0.451688
0.446126
0.448782
0.797025
0.765641
0.6835
0.713653
1
1
1
1
1
1
1
1
1
1
1
1
1
1
1
1
1
1
1
1
1
1
1
1
1
1
1
1
1
1
1
1
1
1
1
1
1
1
1
1
1
1
1
1
1
1
1
1
1
1
1
1
1
1
1
1
1
1
1
1
1
1
1
1
1
1
1
1
)
;
    }
}


// ************************************************************************* //
