FoamFile
{version 2.0; format ascii;class Cloud<passiveParticle>; location 0;object  positions;}
2499
(
( 0.00164784 -0.0039101 0.00605419 ) 0 
( 0.000399365 -0.00501782 0.00505759 ) 0 
( 0.0124371 -0.000909029 0.00351606 ) 0 
( 0.000116689 -0.0133508 0.00513692 ) 0 
( 0.0109624 -0.00402792 0.00455025 ) 0 
( 0.00320995 -0.004061 0.00546628 ) 0 
( 0.00491513 -0.00362752 0.000498563 ) 0 
( 0.00527116 -0.0122657 0.002352 ) 0 
( 0.00437381 -0.00420569 0.00697254 ) 0 
( 0.00831697 -0.00579603 0.00409442 ) 0 
( 0.00457021 -0.00147847 0.00586662 ) 0 
( 0.0102097 -0.00706875 0.00638114 ) 0 
( 0.0051168 -0.00873668 0.00495429 ) 0 
( 0.00482153 -0.0105103 0.000499189 ) 0 
( 0.00505664 -0.00529687 0.00394556 ) 0 
( 0.00911334 -0.00848677 0.00409 ) 0 
( 0.00922826 -0.00205235 0.000499088 ) 0 
( 0.0122171 -0.00250842 0.0059633 ) 0 
( 0.00463951 -0.00604083 0.00720755 ) 0 
( 0.00224993 -0.0131607 0.00232301 ) 0 
( 0.00517461 -0.00144369 0.00148176 ) 0 
( 0.00751727 -0.00480742 0.000498571 ) 0 
( 0.00896857 -0.00418986 0.00628344 ) 0 
( 0.00401666 -0.00129345 0.00312666 ) 0 
( 0.00104044 -0.00702041 0.00546479 ) 0 
( 0.0102238 -0.00752794 0.002216 ) 0 
( 0.000975499 -0.00331868 0.0028627 ) 0 
( 0.00376373 -0.00648424 0.00702467 ) 0 
( 0.0041573 -0.00695764 0.00610132 ) 0 
( 0.00894374 -0.00277285 0.00129885 ) 0 
( 0.000648925 -0.00979002 0.00147061 ) 0 
( 7.54228e-05 -0.00736105 0.00276572 ) 0 
( 0.00493566 -0.00381369 0.00584023 ) 0 
( 0.00923728 -0.00211779 0.00375707 ) 0 
( 0.00902982 -0.00294661 0.00323867 ) 0 
( 0.0133386 -0.000570394 0.00477192 ) 0 
( 0.00627056 -0.000956317 0.000499231 ) 0 
( 0.0112675 -0.00425051 0.00200594 ) 0 
( 0.00763993 -0.0109478 0.00128178 ) 0 
( 0.00738595 -0.00748197 0.00539861 ) 0 
( 0.000185613 -0.00471286 0.00807781 ) 0 
( 0.00411884 -0.00435954 0.00601915 ) 0 
( 0.00560325 -0.0111579 0.00671015 ) 0 
( 0.00136076 -0.008692 0.00221685 ) 0 
( 0.00761288 -0.00844591 0.00526777 ) 0 
( 0.0077302 -0.000997376 0.000499492 ) 0 
( 0.00340143 -0.000341654 0.000499788 ) 0 
( 9.07449e-05 -0.00103084 0.00557448 ) 0 
( 0.0083356 -0.00981877 0.00347292 ) 0 
( 0.00416838 -0.00518231 0.00700943 ) 0 
( 0.00456003 -0.00739724 0.00364336 ) 0 
( 0.0133232 -0.000860918 0.00662847 ) 0 
( 0.00228949 -0.0112786 0.0064494 ) 0 
( 0.00183624 -0.00554179 0.00529309 ) 0 
( 0.00746856 -0.00373794 0.000499787 ) 0 
( 0.000576899 -0.000742912 0.000499799 ) 0 
( 0.00940171 -0.00948 0.000499198 ) 0 
( 0.00860832 -0.00904103 0.00245699 ) 0 
( 0.00315626 -0.00617779 0.0040514 ) 0 
( 0.0120506 -0.00349901 0.00578286 ) 0 
( 0.00155085 -0.00720553 0.00223703 ) 0 
( 0.00717938 -0.00115146 0.00517605 ) 0 
( 0.00793659 -0.0107353 0.00347691 ) 0 
( 0.00824507 -0.00149539 0.00566635 ) 0 
( 0.00937558 -0.00501571 0.00493878 ) 0 
( 0.00398953 -0.00119349 0.00510405 ) 0 
( 0.00889128 -0.00404367 0.00461206 ) 0 
( 0.000962465 -0.0104244 0.0069431 ) 0 
( 0.00559416 -0.00909097 0.00575613 ) 0 
( 0.0036817 -0.00357112 0.00208851 ) 0 
( 0.00244361 -0.00685715 0.000499753 ) 0 
( 0.00826908 -0.00744633 0.000499496 ) 0 
( 0.0107178 -0.00344451 0.00374871 ) 0 
( 0.00603194 -0.00263963 0.00581562 ) 0 
( 0.00699003 -0.0010937 0.00319029 ) 0 
( 0.0038013 -0.00123778 0.00646373 ) 0 
( 0.0116475 -0.0046688 0.00282717 ) 0 
( 0.000460896 -0.00246212 0.00289516 ) 0 
( 0.00926039 -0.00726939 0.00613887 ) 0 
( 0.00179733 -0.00350097 0.00382697 ) 0 
( 0.00985832 -0.00426709 0.00672822 ) 0 
( 0.00726361 -0.00699503 0.000498624 ) 0 
( 0.00472439 -0.0039716 0.00206377 ) 0 
( 0.00212607 -0.0123597 0.00643844 ) 0 
( 0.00869228 -0.00888215 0.00612746 ) 0 
( 0.00046669 -0.0123478 0.000499785 ) 0 
( 0.00921866 -0.00161151 0.0054133 ) 0 
( 0.0109579 -0.0050196 0.00109166 ) 0 
( 0.00519995 -0.00521776 0.00712409 ) 0 
( 0.0033438 -0.00753756 0.000499787 ) 0 
( 0.00946153 -0.0082562 0.00499625 ) 0 
( 0.00153645 -0.0109474 0.00510116 ) 0 
( 0.00201847 -0.0050759 0.00382712 ) 0 
( 0.001117 -0.00394222 0.0020946 ) 0 
( 0.00182762 -0.0105535 0.000499498 ) 0 
( 0.0054298 -0.00709431 0.00479689 ) 0 
( 0.00233261 -0.00516694 0.00106305 ) 0 
( 0.00726659 -0.00916905 0.00467198 ) 0 
( 0.00445848 -0.0123538 0.0013877 ) 0 
( 0.00161153 -0.00641476 0.00486004 ) 0 
( 0.00456715 -0.0114779 0.000499917 ) 0 
( 0.000554242 -0.0037182 0.00737594 ) 0 
( 0.0106362 -0.00626072 0.00136381 ) 0 
( 0.00380195 -0.0029264 0.00355916 ) 0 
( 0.00138834 -0.0017256 0.00758115 ) 0 
( 0.00291045 -0.00775001 0.00581669 ) 0 
( 0.0117555 -0.00442261 0.00115106 ) 0 
( 0.00580016 -0.00781362 0.00116701 ) 0 
( 0.0076136 -0.00436794 0.00507408 ) 0 
( 0.00108974 -0.0133053 0.000499797 ) 0 
( 0.00194633 -0.00598973 0.000499561 ) 0 
( 0.00655704 -0.00270593 0.00698415 ) 0 
( 0.000173933 -0.00108295 0.0041155 ) 0 
( 0.0118559 -0.00613676 0.00145684 ) 0 
( 0.00434336 -0.0021585 0.00516915 ) 0 
( 0.00187819 -0.0114351 0.000967061 ) 0 
( 0.00447566 -0.00565826 0.00503627 ) 0 
( 0.0118123 -0.0062229 0.00437675 ) 0 
( 0.00657349 -0.00448271 0.000498641 ) 0 
( 0.0109597 -0.00262114 0.00679593 ) 0 
( 0.00277809 -0.00489222 0.00511701 ) 0 
( 0.00805538 -0.00995111 0.00632863 ) 0 
( 0.00507491 -0.00464226 0.00136176 ) 0 
( 0.00097517 -0.00335424 0.00460444 ) 0 
( 0.00778076 -0.00497765 0.00429944 ) 0 
( 0.00292387 -0.0070243 0.00667031 ) 0 
( 0.0083154 -0.00436948 0.000908356 ) 0 
( 0.00308868 -0.00978012 0.0020078 ) 0 
( 0.00687113 -0.00968692 0.00688933 ) 0 
( 0.00784189 -0.00992991 0.00119373 ) 0 
( 0.0103997 -0.00529498 0.00628042 ) 0 
( 0.00113964 -0.00879947 0.00553954 ) 0 
( 0.00429916 -0.00148185 0.00196986 ) 0 
( 0.00266999 -0.0107535 0.00461471 ) 0 
( 0.0116702 -0.00117409 0.00640847 ) 0 
( 0.00762514 -0.00938257 0.00561754 ) 0 
( 0.00698883 -0.00327778 0.00489372 ) 0 
( 0.0100027 -0.00568026 0.0054497 ) 0 
( 0.0131668 -0.00219758 0.00580862 ) 0 
( 0.00923349 -0.00740799 0.00226817 ) 0 
( 0.00588215 -0.0100593 0.00099444 ) 0 
( 0.00897289 -0.00670274 0.000498061 ) 0 
( 0.00380337 -0.0111042 0.0019837 ) 0 
( 0.00328015 -0.005046 0.00646633 ) 0 
( 0.00472372 -0.00989567 0.00286436 ) 0 
( 0.00960856 -0.00689182 0.00317009 ) 0 
( 0.00365184 -0.00985847 0.0029477 ) 0 
( 0.00654905 -0.00635068 0.006108 ) 0 
( 0.0102611 -0.00259731 0.00608038 ) 0 
( 0.00430963 -0.00487601 0.00196623 ) 0 
( 0.0104779 -0.00486082 0.00195162 ) 0 
( 0.0044791 -0.00440465 0.00358911 ) 0 
( 0.00564148 -0.000499019 0.00297444 ) 0 
( 0.0021408 -0.00121338 0.00132543 ) 0 
( 0.00925173 -0.00694741 0.0070851 ) 0 
( 0.00897203 -0.0012368 0.00336712 ) 0 
( 0.00618587 -0.000428752 0.00134642 ) 0 
( 0.000207868 -0.00651915 0.00772573 ) 0 
( 0.00626868 -0.00843617 0.00299652 ) 0 
( 3.73907e-05 -0.00541643 0.00320761 ) 0 
( 0.00608472 -1.37314e-05 0.00544332 ) 0 
( 0.00229949 -0.00869595 0.00323899 ) 0 
( 0.00287647 -0.0130374 0.00621805 ) 0 
( 0.000362965 -0.000505448 0.00207188 ) 0 
( 0.000908999 -0.00327768 0.00582508 ) 0 
( 0.00289923 -0.00975555 0.000499248 ) 0 
( 0.00384591 -0.0108099 0.00634405 ) 0 
( 0.013217 -0.00188051 0.00306785 ) 0 
( 0.00129915 -0.00518753 0.00739324 ) 0 
( 0.00599362 -0.00155677 0.00351069 ) 0 
( 0.00538326 -0.00911725 0.000498663 ) 0 
( 0.00288714 -0.00639838 0.00749668 ) 0 
( 0.0126583 -0.004244 0.00614674 ) 0 
( 0.000777458 -0.00386635 0.00049759 ) 0 
( 0.0011422 -0.00557918 0.00457486 ) 0 
( 0.00723015 -0.00819268 0.0031162 ) 0 
( 0.00411009 -0.00205451 0.00393643 ) 0 
( 0.00653 -0.00751674 0.00270842 ) 0 
( 0.00199652 -0.00272256 0.00158076 ) 0 
( 0.00508003 -0.0072553 0.00157614 ) 0 
( 0.000169435 -0.00553932 0.00751901 ) 0 
( 0.0105664 -0.0081605 0.000499371 ) 0 
( 0.000481082 -0.00960829 0.00729938 ) 0 
( 0.0123117 -0.00189475 0.00229066 ) 0 
( 0.00167041 -0.00169633 0.0056982 ) 0 
( 0.00221386 -0.00693428 0.0015401 ) 0 
( 0.000284958 -0.0040259 0.00271278 ) 0 
( 0.000433119 -0.00418675 0.00450576 ) 0 
( 0.003717 -0.00354108 0.00732604 ) 0 
( 0.00652785 -7.8369e-05 0.00633653 ) 0 
( 0.0104826 -0.00367554 0.00561778 ) 0 
( 0.00294014 -0.0058357 0.00148965 ) 0 
( 0.00457617 -0.00473347 0.000499712 ) 0 
( 0.0046818 -0.0114019 0.00159575 ) 0 
( 0.00324972 -0.0106561 0.00128424 ) 0 
( 0.0107876 -0.0021006 0.000499787 ) 0 
( 0.00886101 -0.00998418 0.00117096 ) 0 
( 0.00291998 -0.0122773 0.00463982 ) 0 
( 0.000988176 -0.00800057 0.00685829 ) 0 
( 0.0106762 -0.00260507 0.00429083 ) 0 
( 0.00859024 -0.00500144 0.00673988 ) 0 
( 0.00231878 -0.00897439 0.00219821 ) 0 
( 0.000903191 -0.00391775 0.00366567 ) 0 
( 0.00800831 -0.00109457 0.00378321 ) 0 
( 0.00196435 -0.0104082 0.00582501 ) 0 
( 0.0115159 -0.00343835 0.0014024 ) 0 
( 0.0028684 -0.010459 0.0062491 ) 0 
( 0.00239301 -0.0101436 0.00126842 ) 0 
( 0.00688374 -0.00967642 0.00131044 ) 0 
( 0.0097173 -0.00450063 0.00415284 ) 0 
( 0.00712202 -0.0112925 0.000499115 ) 0 
( 0.00079439 -0.0079971 0.00505339 ) 0 
( 0.0100406 -0.00578917 0.0044581 ) 0 
( 0.00273799 -0.00131041 0.00451309 ) 0 
( 0.00545222 -0.000629368 0.00199111 ) 0 
( 0.00739328 -0.0063914 0.00665 ) 0 
( 0.00764253 -0.00166495 0.00268989 ) 0 
( 0.00696605 -0.00879127 0.00176743 ) 0 
( 0.00881117 -0.00753531 0.00412028 ) 0 
( 0.00241623 -0.00421713 0.00350551 ) 0 
( 0.0100414 -0.0087982 0.00365564 ) 0 
( 0.00736108 -0.0101509 0.00503479 ) 0 
( 0.00929177 -0.00474536 0.00323471 ) 0 
( 0.00654579 -0.00606373 0.00706582 ) 0 
( 0.0102088 -0.00684306 0.0073546 ) 0 
( 0.00555496 -0.00911046 0.00280733 ) 0 
( 0.00595178 -0.00290503 0.00104834 ) 0 
( 0.00518418 -0.00470293 0.0062697 ) 0 
( 0.00968959 -0.00473151 0.00585149 ) 0 
( 0.00159128 -0.00769626 0.00136445 ) 0 
( 0.00696897 -0.00161507 0.00195278 ) 0 
( 0.00467139 -0.00272826 0.00441578 ) 0 
( 0.00740959 -0.00933167 0.000498592 ) 0 
( 0.00255284 -0.00796129 0.00147676 ) 0 
( 0.00166784 -0.0132464 0.00640612 ) 0 
( 0.00585058 -0.0105983 0.00585823 ) 0 
( 0.00640351 -0.0112995 0.00538435 ) 0 
( 0.000360625 -0.011103 0.00299133 ) 0 
( 0.00128588 -0.00332922 0.00120422 ) 0 
( 0.000829078 -0.0102131 0.00313895 ) 0 
( 0.00228833 -0.00428186 0.00449474 ) 0 
( 0.00770328 -0.0038722 0.00421052 ) 0 
( 0.0120433 -0.000371776 0.00426176 ) 0 
( 0.00185185 -0.0121168 0.00375176 ) 0 
( 0.00944477 -0.00824024 0.00599385 ) 0 
( 0.00956188 -0.000788589 0.00491902 ) 0 
( 0.00470049 -0.0104703 0.00452258 ) 0 
( 0.000682544 -0.00142996 0.00228209 ) 0 
( 0.00327656 -0.00202833 0.00817653 ) 0 
( 0.00408717 -0.00370775 0.00299019 ) 0 
( 0.013049 -0.00278929 0.00344922 ) 0 
( 0.00270091 -0.00955448 0.00291627 ) 0 
( 0.00314233 -0.0067728 0.00121 ) 0 
( 0.00570703 -0.0112105 0.00395087 ) 0 
( 0.00765025 -0.000288425 0.00149113 ) 0 
( 0.00516172 -0.00263333 0.000499416 ) 0 
( 0.00203419 -0.0071141 0.00310733 ) 0 
( 0.0117879 -0.000549541 0.00563736 ) 0 
( 0.00985664 -0.00785138 0.00330135 ) 0 
( 0.0080386 -0.0022426 0.00197674 ) 0 
( 0.00900209 -0.00503776 0.00127293 ) 0 
( 0.00542896 -0.00317558 0.00522607 ) 0 
( 0.00173264 -0.00126028 0.00319768 ) 0 
( 0.0063744 -0.00965237 0.0060239 ) 0 
( 0.00880264 -0.00556843 0.0029507 ) 0 
( 0.00068038 -0.00294622 0.00374123 ) 0 
( 0.0078397 -0.00471074 0.00614955 ) 0 
( 0.000641578 -0.00806879 0.00102753 ) 0 
( 0.00297143 -0.00253069 0.00408861 ) 0 
( 0.00571958 -0.00343646 0.00633179 ) 0 
( 0.00481847 -0.0025356 0.00602461 ) 0 
( 0.00595659 -0.000365144 0.00782467 ) 0 
( 0.0132527 -0.00161966 0.00210345 ) 0 
( 0.00490941 -0.00263234 0.00738767 ) 0 
( 0.0130506 -0.00278779 0.000499575 ) 0 
( 0.00706219 -0.000214872 0.00550381 ) 0 
( 0.009853 -0.00171682 0.00632179 ) 0 
( 0.00642778 -0.00732934 0.0059433 ) 0 
( 0.010194 -0.00862032 0.00131547 ) 0 
( 0.0112507 -0.000225944 0.00246025 ) 0 
( 0.00733481 -0.0105468 0.00667978 ) 0 
( 0.000700577 -0.00271818 0.00733392 ) 0 
( 0.00458648 -0.0032875 0.00664088 ) 0 
( 0.00214918 -0.00486283 0.00780697 ) 0 
( 0.0103662 -0.00841565 0.00265235 ) 0 
( 0.00306321 -0.0129925 0.000499148 ) 0 
( 0.00442642 -0.00580824 0.00255783 ) 0 
( 0.0124799 -0.000934056 0.00250696 ) 0 
( 0.007494 -0.00924805 0.00343898 ) 0 
( 0.00133238 -0.00844855 0.00318598 ) 0 
( 0.0113648 -0.00700595 0.00141214 ) 0 
( 0.00597651 -0.00455352 0.00323072 ) 0 
( 0.00776776 -0.00230484 0.00532639 ) 0 
( 0.00684386 -0.0105073 0.00581104 ) 0 
( 0.00691963 -0.00175177 0.000499785 ) 0 
( 0.00798534 -0.00150407 0.00470231 ) 0 
( 0.00416595 -0.0126836 0.00498412 ) 0 
( 0.00233919 -0.00535298 0.00212422 ) 0 
( 0.0101698 -0.00481334 0.000499541 ) 0 
( 0.0031426 -0.00603231 0.00638663 ) 0 
( 0.00307542 -0.000483281 0.00212768 ) 0 
( 0.00536633 -0.00765073 0.0024477 ) 0 
( 0.00233357 -0.00581579 0.00315231 ) 0 
( 0.00937839 -0.00671191 0.00412621 ) 0 
( 0.0043367 -0.00807308 0.00163019 ) 0 
( 0.00820443 -0.00726941 0.00486751 ) 0 
( 0.000444643 -0.00484451 0.0061019 ) 0 
( 0.0011909 -0.00557629 0.00357657 ) 0 
( 0.0102147 -0.00191518 0.00370612 ) 0 
( 0.00148804 -0.00319425 0.00772313 ) 0 
( 0.0132901 -0.00126375 0.00398402 ) 0 
( 0.00249385 -0.00344496 0.00579426 ) 0 
( 0.00712034 -0.00256571 0.00221841 ) 0 
( 0.0033312 -0.00574789 0.00315792 ) 0 
( 0.0019012 -0.00828114 0.00715302 ) 0 
( 0.00608297 -0.0035403 0.00456218 ) 0 
( 0.00367332 -0.00512068 0.00555084 ) 0 
( 0.0061194 -0.00257686 0.00482287 ) 0 
( 0.00764255 -0.0107738 0.00252261 ) 0 
( 0.000119092 -0.0124884 0.00564178 ) 0 
( 0.00605455 -0.00444323 0.00135058 ) 0 
( 0.00383504 -0.000208465 0.00375815 ) 0 
( 0.0130175 -0.00296663 0.00496711 ) 0 
( 0.00162662 -0.0100262 0.0037064 ) 0 
( 0.0124779 -0.00213335 0.00507433 ) 0 
( 0.000637187 -0.00654825 0.00468108 ) 0 
( 0.00449622 -0.0108214 0.00543503 ) 0 
( 0.00117392 -0.00654795 0.00333361 ) 0 
( 0.0100766 -0.00407011 0.00768214 ) 0 
( 0.0128215 -0.00372501 0.000760952 ) 0 
( 0.0095812 -0.00544208 0.00213893 ) 0 
( 0.00347258 -0.004319 0.00348663 ) 0 
( 0.0009011 -0.0133195 0.00371347 ) 0 
( 0.00190281 -0.00944291 0.00556608 ) 0 
( 0.00701357 -0.0113597 0.00303164 ) 0 
( 0.0026449 -0.0122161 0.00559771 ) 0 
( 0.0066243 -0.00195224 0.00283259 ) 0 
( 0.00459573 -0.0125357 0.00409592 ) 0 
( 0.00774463 -0.0054986 0.00693026 ) 0 
( 0.00137271 -0.0020797 0.00275361 ) 0 
( 0.00833815 -0.00439023 0.00337011 ) 0 
( 0.0126251 -0.00154131 0.00684664 ) 0 
( 0.00982116 -0.000719547 0.00305264 ) 0 
( 0.0087568 -0.00806293 0.00669718 ) 0 
( 0.0039198 -0.00355133 0.000499318 ) 0 
( 0.00401174 -0.00250724 0.000499797 ) 0 
( 0.00214686 -0.00761322 0.00644682 ) 0 
( 0.00630039 -0.00986631 0.00209761 ) 0 
( 0.00440527 -0.000438779 0.000498503 ) 0 
( 0.00546529 -0.00976831 0.00648588 ) 0 
( 0.000754429 -0.00219782 0.00819265 ) 0 
( 0.00280474 -0.00886955 0.00639544 ) 0 
( 0.00755801 -0.00204163 0.00690716 ) 0 
( 0.000510753 -0.00881894 0.00167574 ) 0 
( 0.0109981 -0.00487163 0.00544655 ) 0 
( 0.0055828 -0.00469385 0.000499789 ) 0 
( 0.000697633 -0.0116842 0.00577856 ) 0 
( 0.00919519 -0.00723755 0.00499309 ) 0 
( 0.000463017 -0.0050727 0.00404403 ) 0 
( 0.000278885 -0.00063746 0.0032255 ) 0 
( 0.010352 -0.00842078 0.00452744 ) 0 
( 0.000339765 -0.00700276 0.000499128 ) 0 
( 0.000440862 -0.00280793 0.00132197 ) 0 
( 0.00471239 -0.00659654 0.00528361 ) 0 
( 0.0115279 -0.00120718 0.00236911 ) 0 
( 0.0033063 -0.00979308 0.00685302 ) 0 
( 0.00932988 -0.0079614 0.00127737 ) 0 
( 0.010137 -0.00524147 0.00362873 ) 0 
( 0.00870881 -0.00119905 0.000497591 ) 0 
( 0.0105434 -0.00137638 0.00449552 ) 0 
( 0.00327486 -0.0108053 0.00382129 ) 0 
( 0.000845403 -0.00167818 0.00674318 ) 0 
( 0.00359825 -0.00206378 0.00143623 ) 0 
( 0.000100657 -0.00460247 0.000499702 ) 0 
( 0.00380978 -0.00747178 0.00688412 ) 0 
( 0.00318132 -0.00416436 0.00133811 ) 0 
( 0.0117744 -0.00420526 0.00510634 ) 0 
( 0.00834123 -0.0104255 0.00190098 ) 0 
( 0.000823459 -0.0105579 0.00220442 ) 0 
( 2.84685e-05 -0.00738368 0.0048639 ) 0 
( 0.000816218 -0.00188724 0.00363072 ) 0 
( 0.00154421 -0.00267325 0.00534515 ) 0 
( 0.00962925 -0.00850807 0.000498256 ) 0 
( 0.000993202 -0.00751005 0.00313257 ) 0 
( 0.00416589 -0.00720011 0.00117661 ) 0 
( 0.00773005 -0.00295425 0.00654071 ) 0 
( 0.00104025 -0.00162889 0.000499628 ) 0 
( 0.00671465 -0.00391363 0.00301838 ) 0 
( 0.00935028 -0.003542 0.00221867 ) 0 
( 0.00110864 -0.00946285 0.00436915 ) 0 
( 0.00311178 -0.00241354 0.00653695 ) 0 
( 0.00178444 -0.00160587 0.00449654 ) 0 
( 6.42047e-06 -0.00983948 0.000709127 ) 0 
( 0.01103 -0.00385654 0.00289325 ) 0 
( 0.00247781 -0.000468183 0.00404192 ) 0 
( 0.00210488 -0.0027708 0.00452393 ) 0 
( 0.00307159 -0.0120692 0.00657955 ) 0 
( 0.00167311 -0.00754701 0.00489741 ) 0 
( 0.00517928 -0.0039936 0.0030096 ) 0 
( 0.00848413 -0.00345837 0.000499786 ) 0 
( 0.0107513 -0.00779561 0.00141082 ) 0 
( 0.00359207 -0.00656751 0.00486253 ) 0 
( 0.0113418 -0.00704252 0.00632053 ) 0 
( 0.00671899 -0.0061064 0.00439016 ) 0 
( 0.00984898 -0.00659113 0.00224734 ) 0 
( 0.00211306 -0.00806156 0.00398874 ) 0 
( 0.0121078 -0.00275619 0.00182856 ) 0 
( 0.00919257 -0.00452853 0.00225619 ) 0 
( 0.000890029 -0.00574252 0.005537 ) 0 
( 0.00344902 -0.00370668 0.00636945 ) 0 
( 0.00553077 -0.00763045 0.00389516 ) 0 
( 0.00126106 -0.0024594 0.00627935 ) 0 
( 0.00821873 -0.000852156 0.00283707 ) 0 
( 0.00679502 -0.0051407 0.0046379 ) 0 
( 0.00154392 -0.000489437 0.000499651 ) 0 
( 0.00354477 -0.0121009 0.00170435 ) 0 
( 0.00896254 -0.00160668 0.00676055 ) 0 
( 0.0030879 -0.00978726 0.00382038 ) 0 
( 0.00623556 -0.00483131 0.00545632 ) 0 
( 0.0028187 -0.00240304 0.000806878 ) 0 
( 0.00677932 -0.00349382 0.00640447 ) 0 
( 0.000199503 -0.00315712 0.00222707 ) 0 
( 0.00998696 -0.00257454 0.00235489 ) 0 
( 0.00410886 -0.00639248 0.00330324 ) 0 
( 0.000769794 -0.00588262 0.00166308 ) 0 
( 0.00549794 -0.00588526 0.000498574 ) 0 
( 0.00313064 -0.00677966 0.00572317 ) 0 
( 0.011013 -0.00421854 0.000497406 ) 0 
( 0.000229588 -0.0110573 0.00398149 ) 0 
( 0.00100445 -0.00267804 0.000499537 ) 0 
( 0.00237139 -0.00785444 0.000499523 ) 0 
( 0.0106089 -0.000398485 0.00122698 ) 0 
( 0.000831204 -0.00895967 0.00662446 ) 0 
( 0.00695207 -0.00678372 0.00217869 ) 0 
( 0.00621644 -0.0016199 0.00448318 ) 0 
( 0.00898286 -0.00987431 0.00447757 ) 0 
( 0.00508919 -0.00726843 0.00591979 ) 0 
( 0.00363678 -0.00974271 0.00117318 ) 0 
( 0.00638088 -0.0107354 0.00455918 ) 0 
( 0.0074118 -0.00284966 0.00748132 ) 0 
( 0.00202515 -0.00481034 0.00681679 ) 0 
( 0.00702789 -0.00267563 0.00588623 ) 0 
( 0.00340165 -0.00268399 0.00267766 ) 0 
( 0.000361432 -0.0133454 0.00610516 ) 0 
( 0.00698288 -0.00429835 0.00584669 ) 0 
( 0.0025943 -0.00658919 0.0048064 ) 0 
( 0.0112954 -0.00308837 0.00231206 ) 0 
( 0.00641533 -0.0106213 0.00356668 ) 0 
( 0.00586205 -0.00139715 0.0024829 ) 0 
( 0.00816438 -0.00372218 0.0017212 ) 0 
( 0.0117678 -0.00237524 0.00439178 ) 0 
( 0.00222503 -0.011353 0.00307851 ) 0 
( 0.0026819 -0.00160018 0.00614694 ) 0 
( 0.0035695 -0.00547059 0.00462168 ) 0 
( 0.0026283 -0.0120535 0.000499785 ) 0 
( 0.00639428 -0.0117194 0.00701353 ) 0 
( 0.00395166 -0.0117726 0.00408072 ) 0 
( 0.00395368 -0.00606924 0.00135789 ) 0 
( 0.000705567 -0.00668478 0.00235113 ) 0 
( 0.00380388 -0.00882741 0.00637057 ) 0 
( 0.00729061 -0.00383672 0.00738035 ) 0 
( 0.00548528 -0.0108981 0.00497216 ) 0 
( 0.00413565 -0.0126944 0.00227017 ) 0 
( 0.00173786 -0.008538 0.00478297 ) 0 
( 0.00359886 -0.00896921 0.0073371 ) 0 
( 0.00361075 -0.00649782 0.0022757 ) 0 
( 9.74295e-05 -0.0105381 0.00742746 ) 0 
( 0.00247069 -0.00200141 0.00518387 ) 0 
( 0.00523218 -0.0113805 0.00581031 ) 0 
( 0.00298761 -0.000187465 0.00322838 ) 0 
( 0.00911017 -0.000890854 0.0021664 ) 0 
( 0.00158498 -0.00411209 0.00296098 ) 0 
( 0.00152323 -0.00973926 0.000991612 ) 0 
( 0.0085472 -0.00931081 0.00523825 ) 0 
( 0.00491101 -0.00935575 0.00368192 ) 0 
( 7.5224e-05 -0.000604981 0.00804081 ) 0 
( 0.002706 -0.0110295 0.000498188 ) 0 
( 0.00238268 -0.00180804 0.00372264 ) 0 
( 0.0119886 -0.00378594 0.00316429 ) 0 
( 0.00171001 -0.00943134 0.00290818 ) 0 
( 0.0106911 -0.00152744 0.0029166 ) 0 
( 0.00142013 -0.0132748 0.00456559 ) 0 
( 0.0119153 -0.00602446 0.00535439 ) 0 
( 0.00392359 -0.00172433 0.00747738 ) 0 
( 0.0059075 -0.00373849 0.000499422 ) 0 
( 0.00702406 -0.0113537 0.00199492 ) 0 
( 0.00272153 -0.0116442 0.003894 ) 0 
( 0.00858541 -0.000727762 0.00512458 ) 0 
( 0.00608541 -0.00635588 0.00246053 ) 0 
( 0.00259378 -0.00903063 0.00497467 ) 0 
( 0.0075774 -0.00615915 0.00171483 ) 0 
( 0.00360416 -0.00449928 0.000497891 ) 0 
( 0.00130176 -0.0041771 0.00785571 ) 0 
( 0.000265322 -0.00671917 0.00145432 ) 0 
( 0.00246389 -0.00448174 0.00598075 ) 0 
( 0.000805685 -0.00925968 0.00343834 ) 0 
( 0.0062888 -0.000630436 0.00373516 ) 0 
( 0.0116788 -0.00544393 0.00049979 ) 0 
( 0.0122281 -0.00535783 0.00644258 ) 0 
( 0.00585485 -0.0119432 0.000497328 ) 0 
( 0.00172241 -0.00436074 0.00137505 ) 0 
( 0.00979687 -0.00760997 0.00426942 ) 0 
( 0.000477874 -0.00823743 0.00603286 ) 0 
( 0.00243245 -0.00941018 0.0071498 ) 0 
( 0.00605507 -0.00717998 0.00189614 ) 0 
( 0.000996321 -0.0114402 0.0017709 ) 0 
( 0.0133 -0.00112745 0.00123138 ) 0 
( 0.00590152 -0.00702523 0.00753837 ) 0 
( 0.0114211 -0.00215905 0.00265673 ) 0 
( 0.00412565 -0.00984018 0.00206768 ) 0 
( 0.00486119 -0.00162383 0.000499047 ) 0 
( 0.00144105 -0.000832068 0.00699517 ) 0 
( 0.00399093 -0.00495732 0.00291688 ) 0 
( 0.00665801 -0.00536034 0.00619209 ) 0 
( 0.0112134 -0.007023 0.00436828 ) 0 
( 0.000283283 -6.73463e-05 0.00117645 ) 0 
( 0.01202 -0.00253431 0.000499786 ) 0 
( 0.00589502 -0.00333415 0.00278922 ) 0 
( 0.000987881 -0.010732 0.00590903 ) 0 
( 0.0052808 -0.00822361 0.00613862 ) 0 
( 0.00993405 -0.00702162 0.00134936 ) 0 
( 0.00623997 -0.00818985 0.00641649 ) 0 
( 0.0108145 -0.00782906 0.00600153 ) 0 
( 0.0019502 -0.0103417 0.00682117 ) 0 
( 0.00265127 -0.00198586 0.00174751 ) 0 
( 0.00185405 -0.00333453 0.00238732 ) 0 
( 0.00941578 -0.00189811 0.00189211 ) 0 
( 0.000418428 -0.0133441 0.00280138 ) 0 
( 0.00582752 -0.00699274 0.00318621 ) 0 
( 0.0050277 -0.00177077 0.00337367 ) 0 
( 0.00487901 -0.0007575 0.00523148 ) 0 
( 0.00714823 -0.00823402 0.00685055 ) 0 
( 0.00332249 -0.00955322 0.00588412 ) 0 
( 0.0077737 -0.000689838 0.00601965 ) 0 
( 0.00264492 -0.00326674 0.00676611 ) 0 
( 0.00339517 -0.0045148 0.00224824 ) 0 
( 0.00723383 -0.00302847 0.00395063 ) 0 
( 0.00484957 -0.00175011 0.00785391 ) 0 
( 0.00561391 -0.000583006 0.0061161 ) 0 
( 0.00691746 -0.00052079 0.00759609 ) 0 
( 0.0093323 -0.00252214 0.00660277 ) 0 
( 0.00536201 -0.00406736 0.00701958 ) 0 
( 0.00675577 -0.00579642 0.000498177 ) 0 
( 0.00343919 -0.0118308 0.00322472 ) 0 
( 0.00326035 -0.00156111 0.000498722 ) 0 
( 0.00165916 -0.000307202 0.00348746 ) 0 
( 0.0111983 -0.00207243 0.00362661 ) 0 
( 0.00814108 -0.0105806 0.000498459 ) 0 
( 0.00279734 -0.00343997 0.00480094 ) 0 
( 0.0083063 -0.00197949 0.00342058 ) 0 
( 0.0062978 -0.00360793 0.00553557 ) 0 
( 0.00949239 -0.00301641 0.000499911 ) 0 
( 0.00492707 -0.000960188 0.00673633 ) 0 
( 0.0108678 -0.00133072 0.00713168 ) 0 
( 0.00339097 -0.00167184 0.00234245 ) 0 
( 0.00278249 -0.00493552 0.0029156 ) 0 
( 0.0035457 -0.00754733 0.00505683 ) 0 
( 0.00615741 -0.00689325 0.00414149 ) 0 
( 0.00662629 -0.0106679 0.00126878 ) 0 
( 0.0048905 -0.00686469 0.00286573 ) 0 
( 0.0102102 -0.00459179 0.00287419 ) 0 
( 0.00659219 -0.0010142 0.00597355 ) 0 
( 0.0118604 -0.00367571 0.000497288 ) 0 
( 0.00477659 -0.00476226 0.00536146 ) 0 
( 0.0101866 -0.00863057 0.00653646 ) 0 
( 0.000849549 -0.0103484 0.000498012 ) 0 
( 0.00166049 -0.00621412 0.0025273 ) 0 
( 0.00764362 -0.00361894 0.00324184 ) 0 
( 0.00693004 -0.00882279 0.00606788 ) 0 
( 0.00471568 -0.00030586 0.00329639 ) 0 
( 0.00217249 -0.00703507 0.00559584 ) 0 
( 0.000248506 -0.00921127 0.00535008 ) 0 
( 0.00270015 -0.00545763 0.0071689 ) 0 
( 0.0105019 -0.00580038 0.00229284 ) 0 
( 0.00353236 -0.00932847 0.00480747 ) 0 
( 0.0122817 -0.00523443 0.00140032 ) 0 
( 0.00462341 -0.00224325 0.00124563 ) 0 
( 0.0117889 -0.00153566 0.00548132 ) 0 
( 0.00731505 -0.00451217 0.00354835 ) 0 
( 0.00146481 -0.00827544 0.000499153 ) 0 
( 0.00430116 -0.00905939 0.00146976 ) 0 
( 0.00574078 -0.00685145 0.00655279 ) 0 
( 0.00700033 -0.000981492 0.00118124 ) 0 
( 0.00810576 -0.00114839 0.00699245 ) 0 
( 0.0109811 -0.00583329 0.00503344 ) 0 
( 0.0126594 -0.000337763 0.00609601 ) 0 
( 0.00732459 -0.00170719 0.00599427 ) 0 
( 0.00760946 -0.00623226 0.00354096 ) 0 
( 0.00746647 -0.00703628 0.0041165 ) 0 
( 0.00639805 -0.0093619 0.000497783 ) 0 
( 0.00387763 -0.00917717 0.00387885 ) 0 
( 0.00863465 -0.00182258 0.0012744 ) 0 
( 0.00858295 -0.000521914 0.00121905 ) 0 
( 0.00296289 -0.00584689 0.00536572 ) 0 
( 0.0129768 -0.00226626 0.00134944 ) 0 
( 0.00148198 -0.0117149 0.006846 ) 0 
( 0.00291753 -0.00665597 0.00320839 ) 0 
( 0.00771551 -0.00607561 0.000498925 ) 0 
( 0.00182799 -0.00593316 0.00149047 ) 0 
( 0.00402452 -0.0127291 0.000569445 ) 0 
( 0.00142731 -0.001928 0.00137138 ) 0 
( 0.000197876 -0.00460673 0.0070837 ) 0 
( 0.00125655 -0.00673837 0.00133325 ) 0 
( 0.00559205 -0.000389077 0.00463672 ) 0 
( 0.00861505 -0.00563618 0.00197229 ) 0 
( 0.00129482 -0.0113286 0.00271665 ) 0 
( 0.00695411 -0.00601654 0.00281914 ) 0 
( 0.00551478 -0.0121591 0.00419832 ) 0 
( 0.00400585 -0.00371585 0.00413473 ) 0 
( 0.0114356 -0.00523352 0.00194252 ) 0 
( 0.00212874 -0.00911848 0.000498343 ) 0 
( 0.00365443 -0.00728499 0.00296628 ) 0 
( 0.000434627 -0.0107555 0.00130854 ) 0 
( 0.00364042 -0.0128444 0.00685208 ) 0 
( 0.00263432 -0.00628853 0.00232426 ) 0 
( 0.000163321 -0.00730762 0.00585278 ) 0 
( 0.00205048 -0.0131917 0.00362271 ) 0 
( 0.00433496 -0.00484787 0.00447085 ) 0 
( 0.00526672 -0.00279134 0.00177924 ) 0 
( 0.00411138 -0.0099028 0.00538422 ) 0 
( 0.0110157 -0.00536455 0.00316796 ) 0 
( 0.00606258 -0.00522788 0.00396338 ) 0 
( 0.00505229 -0.0123599 0.00586092 ) 0 
( 0.00118467 -0.00239819 0.00440717 ) 0 
( 0.0032958 -0.00194885 0.00334431 ) 0 
( 0.00712229 -0.00114829 0.00681073 ) 0 
( 0.0123792 -0.00160084 0.0042344 ) 0 
( 0.00183998 -0.00358141 0.00505067 ) 0 
( 0.00128778 -0.00710476 0.00647644 ) 0 
( 0.00368977 -0.00292765 0.00465958 ) 0 
( 0.010278 -0.00852056 0.00551915 ) 0 
( 0.0050608 -0.00636072 0.00201994 ) 0 
( 0.013264 -0.00151677 0.00508286 ) 0 
( 0.00220182 -0.00114567 0.00756224 ) 0 
( 0.00488952 -0.00629122 0.00623759 ) 0 
( 0.00553163 -0.00509814 0.00480054 ) 0 
( 0.00161328 -0.0124557 0.00510533 ) 0 
( 0.000563786 -0.00262072 0.00515764 ) 0 
( 0.00791013 -0.00826592 0.00620475 ) 0 
( 0.00828152 -0.00469987 0.00188197 ) 0 
( 0.0109945 -0.00317554 0.000499794 ) 0 
( 0.00675993 -0.00752891 0.00462252 ) 0 
( 0.0093818 -0.00645088 0.00558019 ) 0 
( 0.00170217 -0.0050995 0.00285581 ) 0 
( 0.00477807 -0.0114668 0.00455281 ) 0 
( 0.0107524 -0.000761831 0.00631813 ) 0 
( 0.00123904 -0.00978259 0.0062302 ) 0 
( 0.00197194 -0.00387962 0.00717744 ) 0 
( 0.00136651 -0.00732007 0.0074839 ) 0 
( 0.0117358 -0.00636411 0.00244214 ) 0 
( 0.00829947 -0.00728876 0.00586257 ) 0 
( 0.0107355 -0.00623702 0.00656991 ) 0 
( 0.00568184 -0.0120039 0.0051707 ) 0 
( 0.000277399 -0.00277252 0.00641299 ) 0 
( 0.00307414 -0.00272547 0.00748895 ) 0 
( 0.00477245 -0.00650647 0.000790955 ) 0 
( 0.00661914 -0.00892231 0.00379657 ) 0 
( 0.0117229 -0.00056167 0.000722305 ) 0 
( 0.00706987 -0.0112928 0.00761347 ) 0 
( 0.00923804 -0.00444988 0.00049961 ) 0 
( 0.00824748 -0.00726274 0.00219202 ) 0 
( 0.00762087 -0.00890474 0.00251084 ) 0 
( 0.00956979 -0.00931098 0.00248502 ) 0 
( 0.00356706 -0.00189044 0.00574328 ) 0 
( 0.00250028 -0.00078084 0.00049935 ) 0 
( 0.0086732 -0.00170953 0.00253326 ) 0 
( 0.00110787 -0.0114516 0.00368995 ) 0 
( 0.00936549 -0.00332814 0.00719299 ) 0 
( 0.00858953 -0.00551507 0.000498747 ) 0 
( 0.0123427 -0.00508936 0.00548681 ) 0 
( 0.00673706 -0.00234906 0.00131694 ) 0 
( 0.00177531 -0.00384099 0.000498521 ) 0 
( 0.00778224 -0.0108484 0.00583474 ) 0 
( 0.00956657 -0.00931169 0.00692483 ) 0 
( 0.000848927 -0.00952775 0.00241258 ) 0 
( 0.000597762 -0.0133391 0.00137089 ) 0 
( 0.0079106 -0.00529696 0.00331084 ) 0 
( 0.00280904 -0.00366041 0.00772557 ) 0 
( 0.00922981 -0.00860513 0.00310595 ) 0 
( 0.00097301 -0.00621973 0.00049979 ) 0 
( 0.00321299 -0.000870109 0.00769364 ) 0 
( 0.00171682 -0.0025378 0.00357257 ) 0 
( 0.00295237 -0.00172232 0.00724069 ) 0 
( 0.00753559 -0.0100287 0.00405926 ) 0 
( 0.00387166 -0.00608726 0.0057059 ) 0 
( 0.0100578 -0.00120415 0.00221438 ) 0 
( 0.00839666 -0.00205739 0.00744969 ) 0 
( 0.00858564 -0.009187 0.00707186 ) 0 
( 0.0107828 -0.00502439 0.00448217 ) 0 
( 0.00298226 -0.00824049 0.00233552 ) 0 
( 0.00291297 -0.0116024 0.00239764 ) 0 
( 0.00164928 -0.0122875 0.000498457 ) 0 
( 0.0121765 -0.00547572 0.0025675 ) 0 
( 0.00460816 -0.00190585 0.00677136 ) 0 
( 0.00175214 -0.0097634 0.00196335 ) 0 
( 0.00141392 -0.013276 0.0028577 ) 0 
( 0.0116908 -0.0064457 0.000499795 ) 0 
( 0.000612898 -0.000187167 0.0040528 ) 0 
( 0.0108887 -0.00772397 0.00500302 ) 0 
( 0.00205953 -0.00924611 0.00415538 ) 0 
( 0.00620035 -0.000791907 0.00695462 ) 0 
( 0.00650727 -0.0116575 0.00119644 ) 0 
( 0.00387288 -0.00285557 0.00606401 ) 0 
( 0.00615879 -0.0118453 0.00321076 ) 0 
( 0.0109343 -0.00590101 0.00402646 ) 0 
( 0.00207891 -0.000426465 0.00245901 ) 0 
( 0.00759833 -0.00352171 0.00573068 ) 0 
( 0.0122125 -0.00274671 0.00282296 ) 0 
( 0.0108161 -0.00735806 0.0030025 ) 0 
( 0.0057374 -0.00318393 0.00729749 ) 0 
( 0.00548189 -0.0022092 0.00414772 ) 0 
( 0.0100596 -0.00545066 0.00126162 ) 0 
( 0.00665432 -0.00630318 0.00135412 ) 0 
( 0.00198651 -0.00286383 0.000499832 ) 0 
( 0.000906757 -0.00168841 0.0050536 ) 0 
( 0.0070408 -0.0022408 0.00464294 ) 0 
( 0.00744603 -0.00988403 0.0021107 ) 0 
( 0.00292236 -0.00574286 0.000497384 ) 0 
( 0.00539238 -0.00369522 0.00137315 ) 0 
( 0.00152004 -0.0072494 0.00395566 ) 0 
( 0.00223477 -0.00624718 0.00674519 ) 0 
( 0.00251885 -0.00714843 0.00398111 ) 0 
( 0.00996072 -0.00227792 0.00114023 ) 0 
( 0.00112987 -0.000626385 0.00270177 ) 0 
( 0.00957918 -0.00588334 0.000499422 ) 0 
( 0.000994678 -0.0114701 0.000499787 ) 0 
( 0.00648058 -0.00430412 0.00405633 ) 0 
( 0.000380838 -0.00389478 0.00640638 ) 0 
( 0.00788269 -0.00270301 0.0028505 ) 0 
( 0.00874093 -0.0073868 0.00313583 ) 0 
( 0.00409692 -0.00549843 0.00375027 ) 0 
( 0.00795536 -0.00778332 0.00366831 ) 0 
( 0.00572824 -0.00309071 0.00374384 ) 0 
( 0.0101364 -0.00681415 0.00476982 ) 0 
( 0.0027739 -0.00313925 0.0020511 ) 0 