FoamFile
{version 2.0; format ascii;class vectorField; location 0;object  v;}
2499
(
( -0.000307932 0.000270151 0.00085933 )  
( -5.25117e-05 0.000249433 0.000467014 )  
( -3.51338e-05 4.45014e-05 0.000406532 )  
( 0.000139517 9.82038e-06 7.14317e-05 )  
( -5.2324e-05 -1.46776e-05 0.000449409 )  
( -0.000237935 0.000188486 0.000799865 )  
( -1.70031e-06 0.000247244 5.32631e-05 )  
( 7.16933e-05 2.78948e-05 0.000102294 )  
( -0.000102365 0.00029872 0.000608472 )  
( -1.6242e-05 0.000160552 0.000247394 )  
( -0.000123745 -0.000443825 0.000197135 )  
( -0.000139713 0.000117453 0.000573517 )  
( 0.000154049 0.000272793 0.000341151 )  
( -2.06511e-05 6.37425e-05 1.87292e-05 )  
( -1.5438e-05 0.000213007 0.000423937 )  
( -5.88531e-05 0.00018563 0.000282395 )  
( 0.000184969 0.000157204 2.39221e-05 )  
( 4.22808e-05 -0.000213482 0.000477133 )  
( -5.86679e-05 0.000256313 0.000606236 )  
( 4.22997e-05 2.34629e-05 0.000326649 )  
( 0.000230618 -1.4134e-05 0.000171536 )  
( 5.15098e-05 0.000123106 1.34558e-05 )  
( 7.01961e-05 0.000148011 0.000144875 )  
( 2.47109e-05 0.000117943 0.000689977 )  
( -0.000144332 0.00032464 0.000557349 )  
( 3.04011e-05 -7.32352e-05 0.000100357 )  
( 7.57308e-05 0.00029703 0.000480513 )  
( -0.000100677 0.000266967 0.000599529 )  
( -1.64072e-05 0.000372477 0.000621616 )  
( 2.43012e-05 -0.000256612 0.000305416 )  
( -9.23855e-05 7.16099e-05 0.000281343 )  
( 6.65053e-05 0.000238676 0.000153566 )  
( -0.000141556 0.000169036 0.000521912 )  
( -0.00028069 0.000191221 0.000759178 )  
( -0.000503319 0.000552718 0.000324078 )  
( 7.84777e-05 -0.000256154 0.00023868 )  
( -0.000149264 -0.000374526 5.43337e-05 )  
( -0.000177395 7.7476e-05 0.000359729 )  
( 3.49792e-05 3.3094e-05 3.5304e-06 )  
( -9.77953e-05 3.23233e-05 0.000478569 )  
( 7.20737e-05 0.000364503 0.000667985 )  
( -0.000235523 0.000324215 0.000649591 )  
( -6.33659e-05 9.30806e-05 0.000393877 )  
( -8.79529e-05 0.000272551 1.63118e-05 )  
( -0.000208391 2.50161e-05 0.00013573 )  
( -6.09241e-05 5.97467e-05 1.41594e-05 )  
( 0.00050894 -0.000281776 -2.01184e-06 )  
( 0.000149061 0.000147163 -0.00153394 )  
( 3.03269e-05 -1.83273e-06 0.000240912 )  
( -2.2329e-05 0.000283569 0.000546836 )  
( 1.29657e-05 0.000292484 0.000301405 )  
( 9.83662e-06 0.000191303 0.000437008 )  
( -2.9897e-05 0.000382284 0.00033578 )  
( 2.64889e-06 0.000321483 0.000520937 )  
( 0.00159183 0.000536795 -3.09952e-07 )  
( 6.96382e-06 0.00101607 -3.59914e-05 )  
( -5.75671e-05 -2.71328e-05 -1.22095e-05 )  
( -3.00166e-06 3.92984e-05 0.000235617 )  
( -4.37011e-05 0.000281962 0.000409378 )  
( -0.000179077 -0.000488509 -8.60508e-06 )  
( -0.000119332 -9.74001e-05 0.000161203 )  
( -0.000527785 -0.000254663 0.000476938 )  
( 2.89874e-05 1.50671e-05 0.000275739 )  
( 0.000265467 6.94281e-05 0.00021832 )  
( -0.000591314 -0.000189965 -0.000252079 )  
( 3.53824e-05 5.09721e-05 0.000343354 )  
( -0.000213401 9.26445e-05 0.000585758 )  
( 0.000195586 5.33306e-07 0.000538751 )  
( 6.95545e-05 0.000163821 0.000389952 )  
( -7.51652e-05 0.000332897 0.000191193 )  
( -8.78256e-05 -1.58972e-05 -1.61263e-06 )  
( 1.93823e-05 3.28264e-05 2.07768e-05 )  
( -0.00031885 5.78365e-05 0.000185566 )  
( -0.000208875 0.00020125 0.000452622 )  
( 0.000276469 -3.36195e-05 0.000123816 )  
( -0.000489594 7.87756e-05 0.000748265 )  
( 8.61747e-05 2.79389e-05 0.000272084 )  
( 0.000116053 0.000292157 0.000301131 )  
( 0.000107133 8.68961e-05 0.000425755 )  
( 0.000270571 -5.9645e-05 0.00122193 )  
( -2.29271e-05 6.63487e-05 0.000442456 )  
( -1.74599e-05 3.00929e-05 1.8317e-05 )  
( -0.000250058 0.000118812 4.39173e-06 )  
( 0.000188941 3.97526e-05 0.000267836 )  
( -0.000183237 0.00018814 0.00017872 )  
( 0.000465715 0.000429317 3.98313e-09 )  
( 0.000205134 0.000404164 0.000176563 )  
( -6.72781e-05 0.00024084 0.000163744 )  
( 3.05052e-06 0.000221968 0.000541372 )  
( -0.000227373 0.00103777 -1.25613e-07 )  
( 0.000212922 -7.52477e-05 0.00026476 )  
( 0.000117051 0.000291894 0.000309774 )  
( -1.80078e-05 0.000333251 0.000338456 )  
( 0.000103865 5.92069e-05 0.000564915 )  
( 0.000209193 0.000118361 -2.44422e-05 )  
( -1.94796e-06 0.00032671 0.000490885 )  
( 1.27304e-05 0.000241732 0.000239561 )  
( -0.000136404 4.30422e-05 3.49393e-05 )  
( 6.99426e-05 3.69306e-05 -4.73261e-05 )  
( 1.37501e-05 5.61635e-05 0.000549395 )  
( -4.57948e-05 4.67787e-05 2.37958e-06 )  
( -5.01229e-05 0.000543153 0.000852912 )  
( 0.000143293 0.00038524 0.000188309 )  
( -5.75688e-05 -1.64993e-05 0.000227019 )  
( -0.000263214 0.000120575 0.00103754 )  
( 0.00010681 0.000265293 0.000165874 )  
( -3.61413e-05 0.000305643 0.000359955 )  
( -5.18438e-05 0.000176859 0.000140959 )  
( -0.000223235 -0.000127022 0.000342064 )  
( -0.000140285 -0.000122755 6.19281e-07 )  
( 0.0001175 9.19145e-05 -6.71748e-06 )  
( 0.000144677 4.4801e-05 0.00026971 )  
( 0.000133794 2.81231e-05 0.000579578 )  
( 6.45992e-05 0.000189457 -0.00067632 )  
( -9.77755e-05 -5.82748e-05 0.000566159 )  
( -3.67072e-05 6.51915e-05 5.70903e-05 )  
( -0.00024648 0.000310342 0.000538938 )  
( -3.49575e-05 -2.91259e-05 7.82568e-06 )  
( -0.000104804 -0.000164272 1.35087e-05 )  
( -4.00065e-05 0.00030801 0.000315722 )  
( -5.85394e-05 0.000202457 0.000605025 )  
( 1.12839e-05 9.00411e-05 0.000129874 )  
( -0.000158577 0.000112044 -0.000454305 )  
( -6.55457e-05 0.000237107 0.000483271 )  
( -0.0004264 -3.09476e-06 0.000203154 )  
( -8.13096e-06 0.000239603 0.00032388 )  
( -7.94384e-05 0.000429948 -1.604e-05 )  
( -0.000252617 0.000122826 5.49963e-05 )  
( 0.000197057 0.000428125 0.000590474 )  
( 4.03072e-06 7.36121e-05 4.25377e-05 )  
( 3.27209e-05 -6.10188e-06 0.000495398 )  
( -0.000198649 8.10161e-05 0.000433773 )  
( -4.12698e-05 0.000136065 -0.000108814 )  
( 0.000170496 0.000256771 0.000325993 )  
( -0.00118636 0.000319566 0.00130898 )  
( -0.000107355 0.000119461 0.000430549 )  
( -0.000121788 0.000503707 0.000462889 )  
( -0.000120871 0.000173665 0.000464368 )  
( -0.000168918 -0.000349553 2.08972e-05 )  
( 2.60611e-05 0.000135553 8.9511e-05 )  
( -6.93038e-05 0.00025851 -0.000195468 )  
( 0.000331574 -0.000134197 1.50124e-05 )  
( -2.32757e-05 6.72718e-05 8.92087e-05 )  
( -0.000300688 0.000267102 0.000573534 )  
( -0.000137928 0.00011323 0.000231702 )  
( 5.65711e-05 0.000168507 7.5123e-05 )  
( -0.000103895 0.000136571 0.000148877 )  
( 7.15386e-05 0.00028562 0.000504557 )  
( -5.64971e-05 8.25184e-05 0.000252384 )  
( -0.000127091 6.9009e-05 0.000119719 )  
( -0.000268519 0.000291317 0.00011235 )  
( 8.39616e-06 0.000324527 0.000365127 )  
( 6.91951e-05 0.000238156 0.000428033 )  
( -0.000197334 1.79359e-05 0.000228794 )  
( 8.37003e-05 5.438e-05 0.000433844 )  
( -0.000143919 0.000151003 0.000515905 )  
( -4.89333e-05 3.54231e-05 0.000146249 )  
( -1.28729e-06 0.000243814 0.000772032 )  
( -1.17226e-05 0.00015313 0.000166786 )  
( 2.81383e-05 0.000341546 0.000278397 )  
( -0.000164489 0.00022501 0.000598076 )  
( 5.57725e-05 0.000326496 0.000588009 )  
( 7.44433e-05 2.925e-05 0.000238409 )  
( 0.000334855 0.00032247 0.000298352 )  
( -0.000169958 0.000279311 0.000870439 )  
( -3.75037e-05 -3.63221e-05 1.00689e-05 )  
( 0.000301771 0.000100742 0.000270026 )  
( -5.39534e-05 -7.55205e-05 0.000399096 )  
( -0.00019037 0.000419272 0.000818082 )  
( -0.000198941 0.000276479 0.00066032 )  
( -8.70285e-05 0.000154267 2.93792e-05 )  
( -2.93171e-05 0.000255361 0.000794902 )  
( 1.38586e-05 -1.78881e-05 9.77418e-05 )  
( 3.10145e-05 0.000404013 6.81386e-05 )  
( 6.02624e-05 0.000102843 0.000504958 )  
( 3.41824e-05 0.00011741 0.000107096 )  
( 0.000300076 2.72121e-05 -8.52176e-05 )  
( 1.17156e-05 0.00014992 0.000215447 )  
( -0.000294125 0.000396012 -0.000392798 )  
( 5.41541e-06 0.000396208 2.03412e-05 )  
( -9.98409e-05 0.00026443 0.000718162 )  
( -6.63601e-06 -3.89361e-05 2.2536e-05 )  
( -1.75515e-05 0.000141962 0.000511251 )  
( -2.43631e-05 0.00013489 0.000407224 )  
( 3.79051e-05 0.000325837 0.00090656 )  
( -6.78897e-05 5.15439e-05 0.000268702 )  
( 0.000100437 0.000415645 0.000134801 )  
( 8.82229e-05 0.000131957 0.000278423 )  
( -0.000174221 0.000204315 0.00069123 )  
( -0.00027023 -9.91507e-05 0.00064308 )  
( -3.09858e-05 0.000252254 0.000342185 )  
( -1.00366e-05 0.000170874 0.000133599 )  
( -6.30215e-05 0.000113348 5.59439e-05 )  
( 0.000155272 9.99543e-05 -0.000229397 )  
( -4.94088e-05 7.4824e-05 8.04716e-05 )  
( 0.00234251 -1.75919e-05 -3.27183e-07 )  
( 9.28371e-06 -2.68576e-05 3.59933e-05 )  
( 0.000114703 0.000189708 0.000174777 )  
( 6.43707e-05 5.55981e-05 0.000661704 )  
( -0.000237797 -1.58426e-05 0.00045149 )  
( 4.39087e-06 -1.87729e-05 0.000386474 )  
( -0.000111732 0.000122533 0.000140492 )  
( 0.000219042 0.000420849 0.000508361 )  
( -0.00032921 -4.83605e-05 0.000271124 )  
( 3.32494e-05 0.000137964 0.000522759 )  
( 5.00329e-05 0.000244574 0.000123156 )  
( 7.70718e-05 0.000533438 0.000498137 )  
( -0.000192528 -0.000120885 -4.68335e-05 )  
( 1.71133e-05 0.000231889 2.69003e-05 )  
( 0.000273801 -0.000161569 0.000150984 )  
( 8.45163e-05 1.11061e-05 8.16935e-06 )  
( -6.87247e-05 0.000118993 0.000485934 )  
( -0.00022229 2.61901e-05 0.000460076 )  
( -1.24084e-05 8.17036e-05 0.000626543 )  
( -0.000104128 3.30056e-05 0.000192789 )  
( 6.02452e-05 -9.68341e-05 0.000863025 )  
( -0.000207657 -2.4952e-05 0.000226941 )  
( 1.98188e-05 0.000204378 9.87125e-05 )  
( -6.52377e-05 0.000265903 0.00022274 )  
( 0.000263048 0.000244794 0.000460784 )  
( 3.65032e-05 9.90309e-05 0.0001521 )  
( 0.000301717 6.54792e-05 0.000215591 )  
( 9.18552e-05 4.58725e-05 0.000537627 )  
( -2.29865e-05 0.000141573 0.000571791 )  
( 4.35181e-05 7.51724e-05 0.000570374 )  
( 0.000170249 -2.30853e-05 -2.69228e-05 )  
( -0.00024654 -9.62154e-05 7.63231e-05 )  
( -9.34561e-06 0.000195151 0.00048396 )  
( -0.000180493 -9.3789e-05 8.94436e-05 )  
( 1.13501e-06 3.39909e-06 -9.43575e-05 )  
( -7.22596e-05 1.77492e-05 0.000238705 )  
( -0.000153911 -2.68423e-05 0.00053066 )  
( -0.000109453 -2.05684e-05 1.27396e-05 )  
( -1.71432e-05 5.06404e-05 7.32159e-05 )  
( 0.000157318 1.94821e-05 0.000164191 )  
( 9.52279e-05 0.000149565 9.14413e-05 )  
( 0.000514016 -0.000137443 0.000208255 )  
( -8.64866e-05 9.17198e-05 0.000314187 )  
( -7.35112e-05 -0.000268761 0.000315322 )  
( 6.35759e-05 0.000304218 0.000249822 )  
( -5.654e-05 -3.74055e-05 0.000416823 )  
( -0.00052892 -8.01306e-05 0.000383409 )  
( 0.000263295 -0.000475531 0.00108665 )  
( 3.70351e-05 0.00061889 8.9348e-05 )  
( 1.3155e-05 5.60929e-05 0.000290442 )  
( -0.000139673 5.02259e-05 0.000457945 )  
( -0.000217984 3.9983e-05 0.000267963 )  
( 0.000347979 -0.000308498 0.000906923 )  
( -0.000580682 0.000254343 0.000835269 )  
( 3.81329e-05 0.000294371 0.000238013 )  
( 5.50854e-05 -4.69127e-05 0.000492221 )  
( -9.03127e-05 0.000210337 0.000215878 )  
( -0.000152001 0.000145561 1.55004e-05 )  
( -3.21766e-05 0.000132093 0.000382875 )  
( -6.35519e-05 -0.00018753 0.00019126 )  
( -0.000263543 -0.000244479 1.45246e-05 )  
( -0.000441714 0.000804821 0.00026098 )  
( 0.000343671 -0.000417722 0.000922475 )  
( 3.55398e-05 0.000126049 0.000221107 )  
( 9.5541e-05 0.000171055 0.000278342 )  
( -2.59453e-05 0.000152106 -7.7115e-06 )  
( -0.000205383 0.000180665 0.000444676 )  
( 0.000108534 -5.43076e-05 0.000670947 )  
( 6.38198e-05 0.000101871 0.000584494 )  
( -0.000307723 0.000346844 0.000122324 )  
( 2.15514e-05 0.000431463 0.000469326 )  
( 9.93327e-06 4.88886e-05 0.000332006 )  
( -1.27545e-05 9.72459e-05 -0.000284729 )  
( -0.000223055 0.000238855 0.00072587 )  
( -0.000117915 0.000221429 0.000467272 )  
( -0.000265485 0.000300199 0.000600052 )  
( -0.000407966 -1.65714e-05 0.000608399 )  
( 1.97798e-05 2.84389e-05 0.000408462 )  
( -0.000280111 0.000114652 0.000450492 )  
( -7.21495e-05 -4.99046e-05 -3.66127e-05 )  
( -0.000216958 -0.000242085 0.000623024 )  
( 0.00011664 0.000226353 0.000704898 )  
( -6.09966e-06 0.00025956 0.000593984 )  
( 8.51306e-05 0.000139435 -3.18104e-05 )  
( 3.9419e-05 -9.37757e-06 0.000108468 )  
( -8.73372e-05 0.000242706 0.000356937 )  
( 7.81054e-05 0.000570403 0.0008904 )  
( -0.000218735 0.000382327 0.000757397 )  
( -6.85866e-05 0.000366909 0.000723081 )  
( -1.40522e-05 1.3631e-05 0.00029087 )  
( -0.000182301 0.000112271 8.28459e-05 )  
( -9.88752e-06 0.000372212 0.000359534 )  
( 8.41092e-05 0.000123039 0.00029822 )  
( -0.000217733 0.000254608 0.000190139 )  
( 4.33585e-05 0.000257102 2.02788e-05 )  
( 7.73284e-05 0.000161281 -3.26492e-05 )  
( -0.000261241 0.000336985 -4.66704e-05 )  
( -0.000108943 0.000170537 0.000509737 )  
( 0.000120261 0.000203745 0.000207634 )  
( 0.000174866 9.34412e-05 -4.28916e-07 )  
( -0.000308225 0.000206108 0.000339221 )  
( 0.00010411 2.23893e-05 0.000217582 )  
( -5.24455e-05 0.000171251 0.000134347 )  
( -7.67514e-05 9.74949e-05 -3.86572e-05 )  
( -0.000224411 0.00022882 0.000640554 )  
( -0.000174423 0.000131979 0.000363947 )  
( 5.23794e-06 0.000350727 1.33793e-05 )  
( 3.73389e-05 0.000293578 -9.29552e-05 )  
( 6.68877e-05 0.000215752 0.000129249 )  
( -9.92513e-05 0.000102566 0.000158433 )  
( -0.000118543 6.01444e-05 0.000364747 )  
( -0.000107491 0.000384016 0.000680974 )  
( -9.55534e-05 0.00035964 0.000473648 )  
( -0.00028389 -0.000110956 0.000153444 )  
( -6.62977e-05 0.000330471 0.000764234 )  
( 5.89279e-05 0.000514977 0.000451145 )  
( -0.000256436 5.73609e-05 0.000896545 )  
( -0.000328093 -0.000104218 4.62174e-05 )  
( 9.14035e-05 0.000223515 0.000240919 )  
( 6.17232e-05 -6.04398e-06 0.00055017 )  
( -1.98899e-05 6.33312e-05 0.000414716 )  
( -0.000318199 0.000375514 0.000532221 )  
( -0.000143618 0.000100712 0.000422218 )  
( 4.10355e-05 0.000124721 0.000247677 )  
( 0.000438842 -0.000181095 0.00049221 )  
( -7.41153e-06 6.96172e-05 0.000148075 )  
( -7.82575e-05 -5.55493e-05 0.000300319 )  
( -2.30468e-05 -0.00012046 0.000181344 )  
( 0.000112524 0.000264729 0.000246568 )  
( -0.00013709 -0.000248399 0.000355961 )  
( 3.94556e-05 0.000156916 0.000373046 )  
( -3.46132e-05 0.000119538 0.000366071 )  
( 4.51687e-05 0.000256749 0.000555063 )  
( -0.000110786 8.85575e-05 0.000460894 )  
( -4.7127e-05 -6.85039e-05 5.86778e-05 )  
( 4.00428e-05 -1.55173e-05 5.98541e-05 )  
( -1.58073e-05 0.000386743 0.000368609 )  
( -0.000162614 2.54052e-05 0.000327636 )  
( -2.68924e-06 0.000229375 0.000366909 )  
( 9.54258e-06 2.4369e-05 0.000103979 )  
( 0.000215983 0.000208737 0.000267025 )  
( -0.000143063 6.87324e-05 0.00022061 )  
( -3.46767e-05 1.55937e-05 0.00011269 )  
( 2.27781e-05 5.68509e-05 0.000373983 )  
( 0.000406167 -0.000230428 0.000602283 )  
( 0.000160907 5.75955e-05 0.000328296 )  
( -6.82204e-05 0.000438153 0.00117756 )  
( -4.2237e-05 7.28148e-05 0.00039184 )  
( 8.30692e-05 0.000131421 0.000319166 )  
( -4.80441e-05 6.46396e-05 6.27104e-05 )  
( -0.000968944 0.00167838 -1.33514e-05 )  
( 9.27481e-05 0.000252365 0.000213415 )  
( -0.000117433 0.000168416 -6.75394e-05 )  
( 6.09369e-05 0.000228449 7.80041e-05 )  
( -0.000185847 -1.50462e-05 0.000347342 )  
( -9.54942e-05 0.000417198 0.00123142 )  
( 3.34288e-05 0.000133144 0.000583467 )  
( -2.28604e-05 0.000169909 0.000655101 )  
( -0.000187675 0.000251212 9.80231e-05 )  
( -0.00018133 0.000497754 0.000223149 )  
( 0.000730181 0.000572551 -4.20729e-07 )  
( 3.29817e-06 7.05245e-05 0.000435562 )  
( -0.000133575 -2.94435e-05 0.000391755 )  
( 2.15109e-05 -5.22171e-05 0.000494541 )  
( 0.000164029 0.000146135 0.00075702 )  
( -5.42877e-06 2.60116e-05 0.000231521 )  
( -4.6731e-05 5.72706e-05 9.13063e-06 )  
( 0.000137324 0.000107843 0.000213839 )  
( 5.22057e-05 0.000316171 0.000534549 )  
( 0.000310663 6.27531e-05 0.000168309 )  
( 0.000133307 0.000284697 0.000610885 )  
( 3.17637e-05 1.0961e-05 0.000107988 )  
( 0.000336078 -0.00021308 0.000346515 )  
( 3.82339e-05 0.000132149 3.26479e-05 )  
( -0.000142975 0.00044431 0.000906676 )  
( 0.000161451 0.000208258 0.000277426 )  
( -0.000228176 0.000240422 0.000966239 )  
( -5.94005e-05 0.000346148 2.83332e-05 )  
( 0.00013158 0.000278812 -1.84501e-05 )  
( 6.22769e-05 0.000226695 0.000558188 )  
( 0.000101422 0.000262615 7.64808e-05 )  
( 0.000265761 0.00104385 -0.000372015 )  
( -1.19422e-05 5.88403e-05 6.62745e-05 )  
( -9.7548e-05 0.000177515 0.000223818 )  
( 2.22003e-05 0.000230319 0.000373047 )  
( -1.88402e-05 8.41801e-05 0.000541211 )  
( -0.000213973 0.000230424 0.000740496 )  
( -2.55691e-05 1.20969e-05 3.71713e-05 )  
( 0.000134805 0.000326769 -3.71917e-05 )  
( 2.0019e-05 7.35175e-05 -5.24277e-05 )  
( -2.33586e-05 0.000191303 0.000591804 )  
( 0.000591133 0.00161992 4.76148e-05 )  
( -7.99901e-05 6.02139e-05 -7.04377e-05 )  
( 0.000202268 3.53344e-05 0.000500076 )  
( -0.000168412 0.0006418 0.000309211 )  
( -0.000341793 0.000331622 0.000980889 )  
( -2.37888e-05 0.000109874 0.000874227 )  
( -2.24583e-05 0.000118442 0.000164788 )  
( -0.000212802 -1.70464e-05 0.000330062 )  
( -0.000480404 -0.00012992 0.000572807 )  
( -0.000290554 0.000369323 0.000678858 )  
( 0.000125268 0.000213122 0.000457545 )  
( -0.000148544 0.000226386 0.000602699 )  
( -0.000140518 0.000741289 0.000378599 )  
( 0.00251 0.000214254 -2.89274e-07 )  
( -7.89978e-05 0.00038919 -0.000140169 )  
( 7.51975e-05 0.000458028 0.000431415 )  
( -7.64475e-05 -1.71089e-05 0.000198688 )  
( 7.90349e-05 0.000192825 0.000656398 )  
( 8.42246e-05 0.000220264 4.35453e-05 )  
( -0.000135677 0.000398072 0.00058924 )  
( 8.16906e-05 0.000238002 0.00020833 )  
( 0.000106201 2.93987e-05 8.22151e-06 )  
( -3.20849e-05 0.000230782 0.000550464 )  
( -0.000193784 0.000374891 0.000704012 )  
( -1.21574e-05 0.000255515 0.000268024 )  
( -0.000398952 0.000388264 0.000656597 )  
( -3.88603e-05 0.000290834 0.000386151 )  
( -0.000606137 0.000282917 0.000479596 )  
( 0.000382896 0.000603171 0.000106183 )  
( -7.91621e-05 -0.000235403 -0.000213735 )  
( 0.000106788 0.000377155 0.000739356 )  
( -5.57246e-05 0.000178924 0.00062492 )  
( -9.22739e-05 0.00017906 0.000597606 )  
( 5.4992e-05 0.000260837 2.25418e-05 )  
( -0.00012201 0.00027447 0.00042456 )  
( 5.41088e-05 0.000445031 0.000194006 )  
( -5.07026e-07 2.86568e-05 0.0005478 )  
( -8.64204e-05 0.000308245 0.000350908 )  
( -8.61027e-05 0.000219735 -0.000195539 )  
( -1.91943e-05 0.000231383 4.47612e-05 )  
( -0.000113707 0.000409014 0.000349022 )  
( 0.000156812 0.000185323 6.37565e-05 )  
( -0.000523084 -4.11246e-05 0.000291304 )  
( 0.000250747 -0.000174324 -8.12197e-06 )  
( 0.000196516 2.45243e-05 4.30443e-06 )  
( 3.61403e-05 9.46888e-05 0.000225045 )  
( 3.42297e-06 6.48587e-05 0.000450657 )  
( -7.05507e-05 0.000113961 7.4779e-05 )  
( -0.000208527 8.95952e-05 0.000670399 )  
( 2.60263e-05 6.59586e-05 0.000218435 )  
( 4.45603e-06 0.000281475 0.000650462 )  
( -0.0001719 0.000176084 0.000119767 )  
( 3.29886e-05 -4.26578e-06 0.000263872 )  
( -2.31937e-05 0.000139797 0.000592271 )  
( -0.000234753 0.000325754 0.000763031 )  
( -0.000134786 0.000397927 0.000639291 )  
( -0.000124557 0.000416044 0.000269279 )  
( -0.000223191 0.000129897 0.00017722 )  
( 7.09405e-06 0.000252511 0.000438848 )  
( 6.11726e-05 0.000318538 0.000442193 )  
( -8.68382e-05 -9.65365e-05 0.000256034 )  
( -0.000142186 0.000251269 0.000271697 )  
( -0.000119233 9.43796e-05 0.000332694 )  
( -0.00044471 0.000156161 9.36961e-05 )  
( -0.000167843 -6.42322e-05 6.57791e-05 )  
( 0.000194826 0.000237227 -5.09282e-05 )  
( -0.000344831 0.00027249 0.000796645 )  
( -0.000193256 0.000389545 0.000436276 )  
( 0.000310441 0.000402666 -2.18432e-08 )  
( 0.000107541 7.53913e-05 0.000140916 )  
( 0.000133011 0.000184668 0.000291663 )  
( -0.00014586 0.000106716 8.89987e-06 )  
( -7.5741e-05 5.59385e-05 0.000118631 )  
( 8.31392e-07 0.000331479 0.000443347 )  
( 1.776e-05 0.000147377 0.000531029 )  
( 6.02977e-05 0.000137429 0.000322766 )  
( 4.65935e-05 4.51928e-05 1.36594e-05 )  
( -2.9166e-05 0.000172734 0.000529491 )  
( -9.20481e-05 0.000416539 0.000491526 )  
( 1.12959e-05 0.000244923 0.000544803 )  
( 0.000174877 1.67187e-05 0.000660847 )  
( 1.02984e-05 0.000373388 0.000844071 )  
( 9.306e-05 9.70237e-05 0.000266364 )  
( -0.000212498 0.000175809 0.000469938 )  
( -5.07121e-05 0.000293197 -3.88759e-05 )  
( 0.000186453 0.000286557 0.000535776 )  
( -0.000183553 4.80486e-06 9.88551e-07 )  
( -0.000124711 3.99291e-05 0.000221895 )  
( -9.14223e-05 0.000113293 0.000268207 )  
( -2.17789e-05 0.000259605 0.000928576 )  
( 0.000146105 3.10971e-05 2.09427e-05 )  
( -8.94857e-05 -8.31414e-05 0.000777789 )  
( -0.000113538 -0.00017383 0.000149384 )  
( -9.05941e-05 0.000527066 0.000392886 )  
( -8.36986e-05 -0.00014423 0.000332068 )  
( 0.00020981 4.31704e-05 0.000170942 )  
( -0.000199915 -0.000293096 0.000162985 )  
( -0.000275438 9.3666e-05 0.000829443 )  
( -3.10524e-05 -8.77829e-05 4.83164e-05 )  
( 1.02986e-06 5.02965e-05 0.000273618 )  
( 0.000268209 7.35966e-05 -6.70466e-05 )  
( -8.43948e-05 0.000355682 0.000374603 )  
( -0.000102437 0.000193257 0.000185173 )  
( 5.83657e-06 0.000265819 0.000326854 )  
( -8.81816e-05 0.000113428 -2.10032e-05 )  
( -0.000104441 1.24897e-05 3.16985e-05 )  
( -0.000102096 0.000551373 0.000826259 )  
( -1.45408e-05 7.31891e-05 4.80634e-05 )  
( -0.000326258 0.000289028 0.000811537 )  
( -1.41502e-05 0.000330874 0.000193419 )  
( -0.00010231 0.000343757 0.000455947 )  
( 0.00158423 -0.000798735 -2.7274e-07 )  
( 2.26366e-05 0.000154404 0.00037143 )  
( 5.61751e-05 6.01836e-05 5.39765e-05 )  
( 0.000118289 0.000195621 2.98473e-05 )  
( -3.04644e-05 0.000271579 0.000158106 )  
( -2.89216e-05 0.000198441 0.000626047 )  
( 5.1997e-05 0.00027164 0.000492316 )  
( 6.33327e-05 0.000186766 0.000136362 )  
( -0.000119747 9.8588e-05 0.000346111 )  
( 0.00015028 3.31268e-06 8.15098e-05 )  
( -0.000122065 0.000143178 0.000539808 )  
( -4.03157e-05 -5.55489e-05 0.000329553 )  
( -0.000143669 7.45804e-05 0.000157423 )  
( 9.72838e-06 4.10837e-06 4.34097e-05 )  
( -0.000380051 0.00012862 0.000640812 )  
( -6.47884e-05 0.000302265 0.000298817 )  
( 3.33334e-05 0.000280757 0.000571006 )  
( 1.96097e-05 -4.95916e-05 2.11151e-05 )  
( 0.000376011 -0.000143285 0.000442691 )  
( 0.000233187 0.000250185 -3.20054e-07 )  
( 0.000112524 0.000495655 0.00027207 )  
( 5.70088e-05 0.000340157 0.000309993 )  
( 3.34512e-06 0.000167349 0.000449535 )  
( -6.58259e-05 0.000194867 5.52513e-06 )  
( 9.91435e-06 0.000309893 0.000572576 )  
( -0.000141234 -0.000134144 0.000494768 )  
( 0.000241725 -0.000298753 0.000584464 )  
( -0.000156203 0.000159019 -4.12998e-06 )  
( 0.000122848 -3.67356e-05 0.000585636 )  
( 6.5432e-05 -9.41618e-05 0.000269589 )  
( -1.89961e-05 2.6604e-05 -9.25052e-05 )  
( -6.31107e-06 0.000232943 0.000230869 )  
( -0.000231263 0.000244863 0.000643212 )  
( -0.00021526 0.000474863 0.000706181 )  
( 2.29835e-05 0.000163785 0.000558795 )  
( 6.02669e-05 0.000151027 0.000547071 )  
( -0.00013272 -0.000248756 0.000635229 )  
( -0.000206292 0.000234469 0.00076127 )  
( -4.29077e-06 0.000305729 0.000220804 )  
( -0.000368622 0.000116362 0.000749661 )  
( -0.000200057 -4.82267e-06 0.000546811 )  
( -0.000210855 0.000147478 0.000586808 )  
( -0.000388685 8.60827e-05 0.0006 )  
( -6.27557e-05 0.000325233 0.000624027 )  
( -7.52093e-05 0.000232855 0.000516904 )  
( -1.84098e-06 4.09921e-05 -1.13824e-06 )  
( 0.000443271 -0.000249113 0.000143734 )  
( -2.81001e-05 0.000251067 1.88128e-05 )  
( -0.000159845 3.09136e-05 0.000482641 )  
( -0.000248937 -0.000189498 0.00032122 )  
( 1.82579e-05 3.0379e-05 2.40053e-05 )  
( -0.000103589 0.000255539 0.00080377 )  
( -5.60639e-05 3.61132e-05 0.000244061 )  
( -0.000157557 0.000339832 0.000423422 )  
( 0.000115198 0.000216488 3.57652e-05 )  
( -0.000356566 0.000169814 0.000559242 )  
( -5.91608e-05 0.000124569 0.000292106 )  
( -0.000534038 0.00186635 -0.000491528 )  
( -6.22278e-05 0.000242765 0.00016602 )  
( 0.000234126 0.000354237 0.000206046 )  
( -6.31153e-06 0.000249576 0.000514527 )  
( -0.000228917 0.000182884 2.44818e-05 )  
( -7.24236e-05 0.000267093 0.00020156 )  
( 9.46169e-05 -6.61149e-05 0.000402048 )  
( -0.000428288 0.000583502 0.00052257 )  
( -7.27888e-05 9.62951e-05 4.50827e-05 )  
( -8.0281e-05 0.000262701 0.000479861 )  
( 7.15472e-05 3.88662e-05 0.000175623 )  
( 0.000222652 -7.14223e-05 6.5541e-05 )  
( -0.000116821 3.93907e-05 0.00036532 )  
( -8.71482e-05 -2.89688e-05 -3.54599e-05 )  
( -4.51072e-05 0.000196825 0.000519711 )  
( 5.7858e-05 1.9122e-05 0.000575363 )  
( -9.36028e-05 0.000426987 0.000401458 )  
( -0.000268205 0.00011269 0.000574564 )  
( -0.000139847 0.00039937 0.000668176 )  
( 0.000258398 0.000102932 -0.000546967 )  
( 8.41696e-05 0.000275192 0.000507177 )  
( 6.00465e-05 0.000209332 -0.000102019 )  
( 0.000137941 2.80011e-05 0.000185232 )  
( 0.000129325 -0.00048731 0.00106847 )  
( -0.000250384 4.97552e-05 9.46989e-05 )  
( 0.000180465 0.00011195 4.10394e-05 )  
( -2.95663e-05 4.03081e-05 0.000131436 )  
( 0.000106876 0.000298573 0.000575128 )  
( -9.50316e-05 -0.000119254 8.63873e-05 )  
( -0.000190709 -5.73929e-05 0.000673283 )  
( 2.01169e-05 -0.000322186 0.000236264 )  
( -0.000184917 -0.000130393 0.000334622 )  
( 0.000352557 0.000294725 0.000690749 )  
( 7.52137e-07 -7.72807e-05 0.000368085 )  
( -5.92661e-05 3.69267e-05 0.000521417 )  
( 7.64252e-05 0.00029099 2.55208e-06 )  
( 0.000156049 6.4385e-05 0.000320483 )  
( 0.000324879 1.9685e-05 -3.58462e-05 )  
( 1.89669e-05 0.000109132 0.00013175 )  
( -8.56276e-06 0.000400051 0.000316092 )  
( -0.00759621 0.00129454 -0.00149067 )  
( 9.64498e-05 6.07089e-05 0.000199122 )  
( -0.000318922 0.000419175 0.000354203 )  
( 4.50553e-06 0.000119034 1.49357e-05 )  
( 6.01213e-05 0.000198064 -1.66958e-05 )  
( -7.34855e-05 1.24948e-05 -3.48262e-05 )  
( 0.000298645 0.00109449 1.34358e-05 )  
( 9.88131e-06 0.000343753 0.000833091 )  
( -3.90221e-06 0.000193588 6.36175e-05 )  
( -0.000114225 0.000324879 0.000785483 )  
( 2.06898e-05 0.00011705 4.27542e-05 )  
( -2.28808e-05 0.00024621 0.000370438 )  
( 4.52779e-05 -6.20785e-05 0.000231947 )  
( 2.76295e-05 6.42069e-06 6.22755e-05 )  
( -0.00028862 9.65345e-05 0.000532461 )  
( -0.000266998 9.77594e-05 0.000296008 )  
( -2.57622e-05 -8.34045e-05 3.34296e-07 )  
( -0.000641196 0.000185889 -0.000191853 )  
( -2.19717e-05 0.000134457 0.000131707 )  
( 0.000113031 7.49551e-05 0.000128534 )  
( -8.0072e-05 0.000145688 0.000114394 )  
( -6.67911e-05 0.000245405 0.00068357 )  
( 3.90583e-05 0.000177195 0.000395072 )  
( -8.63435e-05 0.000293833 0.000409339 )  
( -0.000213857 -9.23284e-05 0.000484121 )  
( 4.83575e-05 0.000195989 0.000423812 )  
( 0.0002092 -0.000136072 0.00020639 )  
( -0.00045372 0.00041734 0.00015756 )  
( 5.29475e-05 3.82881e-05 9.93997e-05 )  
( -0.000306175 0.000352196 0.000781263 )  
( 2.63477e-07 4.87946e-05 0.000745418 )  
( -0.000388738 -3.76742e-06 0.000564059 )  
( -0.000235364 6.90045e-05 0.000523116 )  
( -0.000115861 0.000326067 0.000759381 )  
( -2.4145e-05 0.000150148 0.000629914 )  
( -0.000410163 -4.06534e-05 0.00079126 )  
( -3.12278e-05 -2.66739e-05 0.000229367 )  
( -5.59945e-05 0.000349851 0.000212849 )  
( -5.58867e-05 -0.000320676 9.1757e-05 )  
( -0.000473453 0.000223143 0.000800306 )  
( 0.000238522 0.000127262 0.000701947 )  
( -5.37699e-05 0.00015366 0.00052994 )  
( 0.000184274 2.24255e-05 0.000119372 )  
( -0.000215458 0.000158634 0.000858416 )  
( -0.000248275 0.000147408 0.000152209 )  
( 8.01768e-05 0.000177704 1.26511e-05 )  
( 0.0011076 0.00133222 6.24362e-05 )  
( -0.000122832 7.17479e-05 0.000425093 )  
( -6.95678e-05 4.19707e-05 0.000294843 )  
( 6.16474e-05 0.000381112 -3.08403e-05 )  
( 0.000242177 6.20776e-05 0.000167106 )  
( -0.000127883 0.000172103 0.000267358 )  
( 0.000115586 8.04227e-05 0.000482345 )  
( -0.000151638 0.000342112 0.000802848 )  
( 2.21416e-05 9.40717e-05 0.000779759 )  
( -1.46377e-05 1.18417e-05 0.00012785 )  
( 0.000326731 0.000247106 0.000427264 )  
( -4.40206e-05 2.39201e-06 0.000472789 )  
( -2.31582e-05 0.000184594 8.02382e-05 )  
( -5.12972e-05 0.000246655 0.00113867 )  
( -0.000282321 0.000152227 0.000851682 )  
( 3.02803e-05 0.000170096 9.41141e-05 )  
( -0.000120723 0.000315649 0.00034158 )  
( -4.68571e-06 6.26664e-05 7.26118e-05 )  
( 0.000111576 0.000108909 0.000108605 )  
( -0.000145686 0.000155554 -1.40949e-05 )  
( 1.27825e-06 0.000107523 7.84798e-05 )  
( -2.04385e-05 0.00016947 0.000147031 )  
( -2.25406e-07 4.88688e-05 0.000279622 )  
( -0.000469482 -2.57954e-05 0.000790974 )  
( -0.000105744 -9.00007e-05 5.10911e-05 )  
( 0.000117531 0.000236023 0.000282565 )  
( -7.13284e-05 0.000321062 0.000424322 )  
( -8.34702e-07 0.000219201 0.000497058 )  
( -1.79248e-05 5.79354e-05 3.84485e-05 )  
( -2.4347e-05 -6.46811e-05 0.000225526 )  
( -0.000525256 0.000303533 4.75813e-05 )  
( 5.99963e-05 8.43752e-05 3.00199e-05 )  
( 6.11078e-05 3.64522e-05 0.000113942 )  
( 6.8867e-05 3.38446e-05 3.16887e-05 )  
( -3.89639e-05 0.000290607 0.000248457 )  
( 2.36379e-05 7.08036e-05 0.000365602 )  
( -0.00168211 -0.000354703 -0.00281263 )  
( -0.0001882 0.000370679 0.000548325 )  
( -8.55332e-05 0.000188107 0.00025592 )  
( 0.000589217 -0.00114185 3.48581e-06 )  
( -0.000218739 0.000185264 0.00112595 )  
( -0.000112531 -0.000151891 0.00100813 )  
( -0.000310161 0.000205945 0.00113834 )  
( -1.72993e-05 0.000188251 0.000144169 )  
( -0.00019761 0.000356123 0.000610577 )  
( -8.5279e-05 6.2494e-06 0.000341461 )  
( -6.16267e-07 0.000255552 0.000599388 )  
( 0.000159072 0.00011913 0.000222012 )  
( -0.000284343 -0.000234551 0.000358279 )  
( -9.13917e-05 0.000170296 0.000239097 )  
( 8.1897e-05 0.000207707 -0.000204361 )  
( -0.000277435 6.51421e-05 1.1633e-05 )  
( 1.04709e-05 4.1352e-05 -4.14633e-06 )  
( -0.000400019 0.000232186 0.000600896 )  
( -1.69785e-05 4.5561e-05 -3.86303e-06 )  
( 3.87118e-05 1.93318e-06 0.000402549 )  
( -0.000276103 -0.000501437 -2.19355e-07 )  
( 9.51929e-05 5.518e-05 0.000961558 )  
( 6.19042e-05 4.29152e-05 0.000120215 )  
( 3.54899e-06 0.000293464 0.000373486 )  
( -0.000410025 -2.34163e-05 0.000617234 )  
( 0.000140067 0.000102742 8.4022e-05 )  
( -0.00026921 0.000399905 0.000699763 )  