/*--------------------------------*- C++ -*----------------------------------*\
| =========                 |                                                 |
| \\      /  F ield         | OpenFOAM: The Open Source CFD Toolbox           |
|  \\    /   O peration     | Version:  2506                                  |
|   \\  /    A nd           | Website:  www.openfoam.com                      |
|    \\/     M anipulation  |                                                 |
\*---------------------------------------------------------------------------*/
FoamFile
{
    version     2.0;
    format      ascii;
    arch        "LSB;label=32;scalar=64";
    class       surfaceScalarField;
    location    "0.006";
    object      phi;
}
// * * * * * * * * * * * * * * * * * * * * * * * * * * * * * * * * * * * * * //

dimensions      [0 3 -1 0 0 0 0];

oriented        oriented;

internalField   nonuniform List<scalar> 
1200
(
0.00152138
-3.23236e-06
-1.10389e-05
0.00150623
1.03181e-05
-2.34848e-06
0.00149696
5.82257e-06
1.11775e-05
0.00151316
-7.22616e-06
1.18858e-05
0.00152538
-2.99462e-06
-5.19459e-07
0.00154611
-3.59993e-06
-3.38951e-05
0.00152886
-4.76286e-06
-5.98213e-06
0.00151279
-4.67762e-06
2.05304e-06
0.00151886
1.47544e-06
-5.00572e-06
0.00152249
2.43493e-06
3.44687e-06
0.00151329
6.19207e-06
9.76282e-06
0.00150879
1.2107e-06
-3.20432e-06
0.00150381
6.37632e-07
-6.29044e-06
0.00149633
5.53546e-06
-5.98955e-06
0.00150324
2.98155e-06
-2.50517e-06
0.00151411
-4.35341e-06
1.65338e-06
0.00151411
-2.36686e-06
-1.58713e-07
0.00152728
-1.10383e-05
-5.59864e-06
0.00152886
-1.92285e-06
2.49375e-06
0.00152581
1.80215e-06
4.34046e-06
0.00153891
-3.72272e-06
1.06635e-06
0.00153751
-6.9262e-06
-5.09475e-06
0.00151158
-7.03109e-08
-4.5703e-06
0.00150029
-1.68001e-06
-5.12797e-06
0.0015139
-2.40574e-06
-3.5829e-06
0.00151561
3.19894e-07
5.24737e-07
0.00151015
2.88595e-06
4.69487e-06
0.00151548
1.79838e-06
9.22606e-06
0.00152198
-2.02626e-06
9.50818e-06
0.00150731
7.72499e-06
1.27641e-05
0.00149716
1.13475e-05
6.57935e-06
-6.06461e-06
-4.94509e-06
0.00152017
5.43301e-06
-7.96076e-06
0.00151541
1.28682e-05
-3.65442e-06
0.00153182
1.80492e-06
4.56888e-06
0.00154884
-9.83291e-06
8.39602e-06
0.0015571
-5.73022e-06
6.59452e-06
0.00156494
-5.32193e-06
-2.21712e-05
0.00154331
-2.32429e-06
-9.77859e-06
0.0015176
-2.56684e-06
4.98682e-06
0.00152232
-1.78928e-06
-1.14047e-07
0.00153572
-3.27339e-06
-1.26563e-06
0.00154182
3.42539e-07
5.54243e-06
0.00153707
3.2913e-06
3.88504e-06
0.0015293
3.80266e-06
-3.74843e-06
0.00153391
3.36526e-06
-4.83452e-06
0.00154351
9.83839e-07
1.67795e-06
0.00154255
-3.62775e-06
5.81765e-06
0.00153834
-6.39341e-06
1.22324e-06
0.001534
-1.03891e-05
9.32004e-07
0.00153407
-1.9257e-06
4.88008e-07
0.00153735
-1.85969e-06
-1.61016e-06
0.00153854
-3.11588e-06
1.68187e-06
0.0015269
3.55764e-07
3.9905e-06
0.00152423
-3.41201e-06
-7.17439e-06
0.00151901
-4.64254e-06
-7.37669e-06
0.00153154
-3.21621e-06
-5.95532e-06
0.00153045
4.10374e-06
-3.65766e-06
0.0015271
8.19339e-06
-3.29687e-06
0.00152148
2.91043e-06
1.62031e-05
0.00151558
-1.01799e-06
1.33645e-05
0.00152334
8.27997e-07
3.27118e-06
0.00153743
7.59753e-07
2.58481e-06
4.56739e-09
8.3962e-06
0.00152593
-1.20885e-06
1.49807e-06
0.00154814
-9.75095e-07
1.56485e-06
0.0015576
6.17411e-06
3.07178e-06
0.00155534
-7.25186e-07
1.51449e-06
0.00155836
-7.19245e-06
5.9434e-06
0.00155594
-6.14447e-06
-1.35041e-05
0.00154228
-1.84463e-06
-7.03317e-06
0.00153381
-5.95516e-06
-1.40818e-06
0.00154502
-1.15805e-05
-2.5528e-06
0.00153997
4.44656e-06
-2.26197e-06
0.00152292
1.24642e-05
3.96553e-06
0.00151307
5.56219e-06
7.26521e-06
0.0015215
-3.83709e-06
-2.08701e-06
0.00154566
-7.75787e-06
-1.2305e-05
0.0015404
6.25782e-06
8.55336e-07
0.00152105
2.03004e-06
1.33927e-06
0.00152576
-6.70915e-06
-5.48155e-06
0.00153195
-2.58443e-06
-5.2268e-06
0.00153901
1.49835e-07
-4.6989e-06
0.0015426
-5.60639e-06
-6.2761e-07
0.0015476
-1.09284e-05
4.44006e-06
0.00153809
3.02811e-06
7.40291e-07
0.0015187
4.1278e-06
-7.67385e-07
0.00151111
-2.78463e-06
-2.48537e-06
0.00150358
1.15299e-06
1.45556e-06
0.00150597
5.37373e-06
-1.56231e-06
0.00151675
1.54818e-06
-5.29338e-06
0.00151711
-1.44946e-06
6.61789e-06
0.00151745
-6.60066e-06
1.24001e-05
0.00152693
-5.73066e-06
6.81396e-06
0.00152959
4.20184e-06
4.84497e-06
6.52814e-06
3.74509e-06
0.00153517
2.31401e-06
7.04937e-09
0.00153314
5.84064e-06
-1.01039e-06
0.00153035
1.4131e-05
-1.31233e-06
0.00153832
1.87575e-06
-2.95593e-06
0.00156295
-1.9893e-05
-5.98769e-06
0.0015866
-1.67551e-05
-1.33039e-05
0.00158636
-1.69758e-06
2.18807e-07
0.00155324
7.71551e-06
7.6785e-06
0.00153177
-5.1367e-06
6.56061e-06
0.00153408
-4.74082e-06
1.05812e-05
0.00154703
1.59284e-06
1.09928e-06
0.00155808
-1.72194e-06
-2.23598e-06
0.00154077
1.10279e-05
5.17964e-06
0.0015238
6.48972e-06
3.96749e-06
0.00153136
-2.46438e-06
-2.17151e-06
0.00153318
-4.10136e-06
-3.22055e-06
0.00152281
2.26375e-06
-1.29561e-07
0.00152354
-6.94772e-07
-2.31557e-06
0.00152572
-3.35589e-06
-1.82498e-06
0.00151516
-2.83374e-06
2.5177e-06
0.00150634
-7.97679e-06
3.99131e-06
0.00151032
-1.98597e-06
-3.13247e-06
0.0015084
6.50825e-06
-3.61312e-06
0.00150095
4.21107e-06
-3.58704e-07
0.00150056
9.1782e-07
7.11891e-07
0.00152101
-4.76012e-06
-8.30694e-06
0.00153356
-9.03333e-06
-2.53147e-06
0.00152814
-4.46194e-06
5.90946e-06
0.0015299
-4.27613e-06
4.89103e-06
0.00154839
-9.33879e-06
2.74777e-07
0.00154345
1.2316e-05
2.01126e-06
1.39798e-05
2.88842e-07
0.00153026
2.03182e-05
3.98541e-06
0.00152072
1.9108e-05
4.62383e-06
0.00153024
9.35263e-06
1.6741e-06
0.00152423
6.56249e-06
1.78853e-07
0.00153001
-2.6442e-05
-2.3996e-06
0.00155356
-2.82826e-05
-1.16714e-05
0.0015668
-2.80805e-06
-5.21674e-06
0.00153674
2.00873e-05
1.43114e-05
0.00150364
1.19265e-05
5.66736e-06
0.00151168
-5.52511e-06
-2.98897e-06
0.00153454
-1.08052e-05
-4.70772e-06
0.00151929
-1.10284e-06
9.74441e-06
0.00151791
1.17401e-05
4.36233e-06
0.00153571
2.55669e-06
-4.10024e-07
0.00154048
-1.38575e-06
-5.48039e-06
0.0015335
1.87901e-06
-5.41239e-06
0.00153266
3.28015e-06
-1.93361e-06
0.00153428
1.5112e-07
-5.76343e-07
0.00154121
-4.41537e-06
-4.20362e-06
0.0015384
-2.07952e-06
-1.59743e-06
0.00152856
-1.4693e-06
-5.63177e-06
0.00152848
1.10162e-06
-2.69568e-06
0.00153885
-6.9771e-07
-1.9468e-06
0.00154465
-1.64557e-06
-2.96693e-06
0.001549
-2.38917e-07
-3.86869e-06
0.00154798
2.12534e-06
-3.74863e-06
0.00153109
2.51564e-06
2.38923e-06
0.00152207
-1.76265e-06
-4.30221e-06
0.00152162
-3.47158e-08
1.7155e-06
0.00153367
-8.79637e-06
5.61727e-06
0.00155322
-7.20262e-06
3.44132e-06
7.68258e-07
1.78536e-06
0.00153938
2.72488e-06
3.84196e-06
0.00154902
1.02942e-05
-3.63948e-06
0.00156088
3.17664e-06
-7.80778e-06
0.00155228
1.07129e-05
1.95428e-06
0.00152276
2.43898e-07
4.83756e-06
0.00150248
-7.40101e-06
6.5351e-06
0.00150575
-1.28985e-06
4.12625e-06
0.00152673
1.63664e-06
2.36844e-06
0.00154517
-1.62409e-06
-4.52246e-06
0.00155818
-8.77872e-06
-2.43983e-06
0.0015531
-4.65451e-06
2.55643e-06
0.00153294
7.49068e-06
1.08507e-05
0.00153961
1.0044e-05
9.32719e-07
0.00152973
1.35497e-05
-4.8261e-07
0.0015161
-3.09192e-06
3.67049e-06
0.00152534
-8.44266e-06
-4.47411e-06
0.00152632
6.99815e-06
-2.81114e-06
0.00151473
6.94897e-06
1.92326e-06
0.0015158
-1.21552e-05
-1.53489e-06
0.00151942
-1.12761e-05
-4.24026e-07
0.00151959
-3.69586e-06
-3.68904e-07
0.00152472
7.72495e-07
-1.66351e-06
0.00153113
-7.95418e-06
4.10655e-06
0.00152633
-4.07968e-06
1.57156e-06
0.00151499
8.43832e-06
-4.9586e-06
0.00152152
5.54902e-06
-6.15492e-06
0.00153809
-5.46557e-06
-7.45282e-07
0.00153904
-1.14637e-06
-1.03605e-06
0.00153242
1.21814e-05
-6.13908e-06
0.00151367
6.85573e-06
1.20294e-06
0.00151174
-9.70164e-06
4.22146e-06
-1.84364e-05
5.7422e-07
0.00153131
6.3782e-07
-4.97012e-06
0.00152661
5.12849e-06
-2.81567e-06
0.00151815
7.90581e-07
-3.26896e-06
0.00153703
2.02376e-08
-2.14236e-06
0.00153745
6.80001e-07
6.11938e-06
0.00151364
-1.77032e-07
1.79684e-05
0.00150815
5.48262e-06
6.19413e-06
0.00151822
1.77321e-06
-2.58852e-06
0.00152085
-2.74656e-06
2.92822e-06
0.00151423
-2.74676e-06
6.34243e-06
0.00150609
6.76509e-07
6.71109e-06
0.00150326
4.12785e-06
8.25882e-06
0.00151008
-6.94534e-07
8.75718e-06
0.00153852
-1.48418e-06
-1.17278e-06
0.00154347
2.85361e-07
-1.29178e-05
0.00153494
2.97286e-07
-6.93307e-06
0.00155506
4.64826e-06
-1.3746e-05
0.00156645
4.58328e-06
-6.21135e-06
0.00155394
-8.01482e-06
-9.09048e-07
0.00154538
-8.24738e-06
5.11754e-06
0.00153723
-1.1738e-06
9.96296e-06
0.00154079
-2.28462e-06
4.57636e-06
0.00153401
-7.38006e-06
1.63181e-07
0.00151434
4.13501e-06
-1.42126e-06
0.00152583
9.59173e-07
-5.13044e-06
0.00154171
-4.16524e-06
-8.16123e-06
0.00154598
-2.44242e-08
5.48262e-06
0.00154343
2.43101e-06
1.01967e-05
0.00155496
-1.04954e-06
-1.33295e-05
0.00155399
1.98956e-06
-1.82656e-05
0.00153837
7.14537e-07
6.01906e-06
-7.7366e-06
7.23678e-06
0.00151598
1.49691e-06
0.00150913
5.01665e-06
0.00151069
-1.95163e-06
0.0015238
-7.84771e-06
0.00152514
1.19765e-06
0.00151745
5.82057e-06
0.00153553
-2.93694e-06
0.00154731
-3.25936e-06
0.00152918
1.5389e-05
0.00151417
1.57341e-05
0.00151798
3.19802e-06
0.00152739
5.76463e-07
0.00152778
4.47276e-06
0.0015295
-6.96691e-06
0.00152679
-7.2564e-07
0.00152569
2.74721e-06
0.00154542
-1.22798e-05
0.00155845
-9.06761e-06
0.00152723
1.03324e-05
0.00150517
9.443e-06
0.00150632
-5.74732e-06
0.00150129
2.12031e-06
0.00149327
5.29449e-06
0.00150886
-1.02232e-05
0.00152193
-1.34426e-05
0.00151604
-3.25203e-06
0.00151324
1.37337e-05
0.00152728
8.18592e-06
0.00153111
-1.0023e-05
0.00151919
-1.05906e-05
0.00151643
1.15546e-06
-2.18282e-06
0.001512
-1.90148e-06
0.00150342
9.18146e-06
0.00150516
7.28198e-06
0.00151649
-3.3551e-06
0.00153627
-3.44463e-06
0.00152687
-4.20352e-06
0.00151954
-1.00549e-06
0.00151256
-2.49627e-06
0.00150014
2.28667e-06
0.00150404
-1.3155e-06
0.00151148
-1.91712e-06
0.00150653
-2.02997e-06
0.00151113
-6.96518e-06
0.00151425
-3.21656e-06
0.00150194
6.49628e-06
0.00150323
-3.2052e-06
0.00151202
-7.25228e-06
0.00151405
2.20482e-06
0.00151924
6.42117e-06
0.00152172
4.64048e-06
0.0015121
4.79028e-06
0.00150389
-1.15647e-06
0.00150612
-2.14894e-06
0.00150243
5.36593e-07
0.00148833
6.40071e-06
0.00148312
-2.18095e-07
0.00149471
-9.24309e-06
0.00150564
-4.58771e-06
0.00151842
-7.87065e-06
0.00152247
1.73833e-06
0.00152027
5.68991e-06
-2.90702e-06
0.00152031
9.23196e-06
0.00150489
2.1265e-05
0.00150816
7.07914e-06
0.00153605
-1.62484e-05
0.0015588
-4.75293e-06
0.0015356
6.99297e-06
0.00152718
-1.45648e-06
0.00152482
-8.71046e-06
0.00152119
2.30406e-06
0.00151804
-1.77571e-06
0.00152164
-1.16278e-05
0.00151816
-4.08868e-06
0.00151026
-2.16504e-06
0.00151121
-2.36218e-06
0.00151914
4.28436e-06
0.00151218
4.52658e-06
0.00150114
2.8869e-06
0.00151217
5.23067e-07
0.00152722
-3.00967e-06
0.00153175
-6.83621e-07
0.00154101
-3.79464e-06
0.00153611
-1.21511e-08
0.00152001
8.91529e-06
0.00151651
4.96086e-06
0.00151687
4.95684e-06
0.00150276
8.59153e-06
0.00149948
-5.62569e-06
0.00151822
-9.23359e-06
0.001512
-7.1337e-07
0.00151377
9.93725e-07
0.00152758
-5.2979e-06
-7.697e-06
0.00151982
-3.52505e-06
0.0015511
2.24859e-06
0.00155502
8.07415e-06
0.00153799
-1.16901e-06
0.00154747
-9.75485e-06
0.00155633
3.65783e-06
0.00154583
2.85127e-06
0.00151973
-1.43353e-06
0.00152687
-4.81111e-06
0.00153259
1.95149e-06
0.00151427
4.67711e-06
0.00151735
-2.23767e-06
0.00151557
2.66337e-06
0.00150477
2.82567e-06
0.00151582
-7.70673e-07
0.00152439
-1.35184e-06
0.00152588
-5.32648e-07
0.00152963
-2.31875e-06
0.00152966
-3.25396e-06
0.0015224
-6.10777e-07
0.00152149
-6.47822e-06
0.00151197
4.82171e-06
0.00150517
8.11348e-06
0.00150052
1.23961e-06
0.00150406
-2.30149e-06
0.0015208
-1.32148e-06
0.00152623
-2.51113e-06
0.00152697
4.49964e-07
0.00152321
5.31605e-06
0.00152815
-4.38278e-07
0.00151741
1.56767e-06
-1.32766e-06
0.0015178
-2.85954e-06
0.00151956
4.33694e-06
0.00151585
8.75739e-06
0.0015159
-7.96218e-06
0.00153039
-2.77046e-05
0.00156032
-1.50984e-05
0.00156651
1.05101e-06
0.00153215
2.32032e-05
0.00151409
6.97292e-06
0.00152335
-3.32074e-06
0.00152617
-3.49998e-06
0.00151684
5.50819e-06
0.00151515
1.44125e-05
0.00152214
2.48948e-06
0.00152866
-6.41405e-06
0.0015294
-6.57525e-06
0.00152715
-1.15897e-06
0.00152492
-2.01518e-07
0.00152974
-3.82963e-06
0.0015325
-5.13848e-06
0.00152404
-1.10621e-07
0.00151905
4.72512e-06
0.00151733
4.11144e-06
0.00151294
-2.0847e-06
0.00151408
-1.76093e-06
0.00151327
3.20266e-06
0.00151856
2.40414e-06
0.00152996
-1.97738e-06
0.0015302
7.14679e-06
0.00152478
2.42065e-06
0.00152452
4.56283e-07
-1.94703e-06
0.00152972
-1.36346e-07
0.00152113
1.64923e-05
0.00151962
1.33163e-05
0.00152414
-1.48386e-05
0.00150898
-1.82887e-05
0.00150014
-8.9103e-06
0.001508
-4.82433e-06
0.00153417
1.15826e-05
0.0015395
3.927e-06
0.00152704
1.62707e-06
0.00150058
1.27508e-06
0.00150359
5.05899e-06
0.00151477
1.04328e-05
0.00152805
-3.04454e-07
0.00152595
-4.59186e-06
0.00152089
-3.96589e-06
0.00152551
-5.25344e-06
0.00153324
-3.43336e-06
0.00153138
1.68334e-07
0.00152539
2.14363e-08
0.00151731
4.32091e-07
0.00152111
-5.76689e-07
0.00153137
-3.35808e-06
0.00153023
-1.7672e-06
0.00152449
-1.4665e-06
0.00152114
2.88551e-06
0.0015254
3.27322e-06
0.00152199
2.39856e-06
0.00152214
3.88905e-06
0.00152249
-7.54638e-07
0.00152489
-2.30593e-06
-6.95804e-06
0.00150165
1.87961e-06
0.00152639
5.83093e-06
0.00152883
1.03871e-05
0.00150523
-7.41096e-06
0.00148692
-9.65931e-06
0.00150333
-5.84936e-06
0.00153092
-7.92531e-06
0.00155787
-6.65487e-06
0.00154696
1.32685e-06
0.00152698
4.43685e-06
0.00152685
-1.57308e-06
0.00153562
9.01618e-06
0.00153399
1.97702e-05
0.00152722
4.69381e-06
0.00153083
-1.19056e-05
0.00152586
-6.34374e-06
0.00152304
-3.79625e-06
0.00152864
-7.05155e-06
0.0015264
-3.92222e-06
0.0015274
-2.77028e-06
0.00152781
-1.91284e-07
0.00152305
4.15712e-06
0.00152716
1.94892e-07
0.00152997
-1.56288e-06
0.00152316
2.76896e-06
0.00152098
1.39513e-06
0.00152717
-9.87352e-07
0.00153218
1.0959e-06
0.00153285
1.94825e-06
0.00152631
1.63199e-06
0.00151265
3.78212e-06
-2.28858e-07
0.00150766
3.48094e-06
0.00151443
6.8986e-06
0.00153226
-2.53418e-06
0.00151845
-7.98713e-06
0.00150092
-3.14742e-06
0.0015113
-5.37794e-06
0.00151913
-2.87263e-06
0.00152664
-5.98143e-06
0.00154022
-6.36867e-06
0.00153872
5.27502e-06
0.00153571
5.62746e-06
0.00154879
4.53405e-06
0.00157575
2.24817e-06
0.00157994
4.82316e-06
0.00155573
2.85147e-06
0.00154059
-6.06858e-07
0.00152793
-1.28717e-06
0.00152338
-1.90483e-06
0.00151716
-1.27719e-06
0.00151735
-4.70218e-06
0.00152332
1.32507e-06
0.00153007
3.30065e-06
0.00152904
1.74381e-06
0.00152591
-3.96268e-07
0.00152643
-5.94414e-07
0.00152415
-2.74889e-06
0.00153227
-1.85509e-06
0.00154291
-3.48553e-06
0.00153383
-4.40238e-06
0.00151657
1.24737e-06
0.00151397
6.05414e-06
3.24223e-06
0.00150369
0.001528
0.00152561
0.00150342
0.00149826
0.00149904
0.00149688
0.00148858
0.00149166
0.00150537
0.00151082
0.00151395
0.0015207
0.00152435
0.00152558
0.00151531
0.00150238
0.00150271
0.00150288
0.0015001
0.0014958
0.00150616
0.00151605
0.00150765
0.00150467
0.0015073
0.00152212
0.00152504
0.00150437
0.00149332
0.0015004
)
;

boundaryField
{
    wall
    {
        type            calculated;
        value           uniform 0;
    }
    outlet
    {
        type            cyclic;
        value           nonuniform List<scalar> 
16
(
0.00151118
0.00152697
0.0015191
0.00153319
0.00155555
0.00152732
0.00152746
0.00151793
0.00151958
0.00153874
0.00150231
0.0015196
0.00153068
0.00149723
0.00150978
0.00149738
)
;
    }
    inlet
    {
        type            cyclic;
        value           nonuniform List<scalar> 
16
(
-0.00151118
-0.00152697
-0.0015191
-0.00153319
-0.00155555
-0.00152732
-0.00152746
-0.00151793
-0.00151958
-0.00153874
-0.00150231
-0.0015196
-0.00153068
-0.00149723
-0.00150978
-0.00149738
)
;
    }
    procBoundary2to1
    {
        type            processor;
        value           nonuniform List<scalar> 
256
(
4.06656e-06
7.18129e-06
-7.72996e-06
-2.08593e-05
-8.70825e-06
1.67644e-05
2.79974e-05
1.86936e-05
-2.53753e-06
-9.51628e-06
-6.75277e-06
6.49587e-06
1.06289e-05
7.93588e-06
-7.38445e-06
-8.16758e-06
2.5267e-06
3.46221e-06
-2.15153e-06
-3.08638e-06
-1.0453e-05
1.3422e-05
3.05755e-05
1.80924e-05
-7.62177e-06
-2.54874e-06
-2.12671e-06
-1.63491e-05
-1.39804e-05
-5.81946e-06
-7.77463e-06
-3.011e-06
6.09375e-06
5.85934e-06
-1.69592e-05
-2.28074e-05
-1.21222e-05
1.60591e-05
2.89653e-05
1.86132e-05
-1.33834e-06
-6.42979e-06
-5.79128e-06
-1.21729e-06
8.34951e-06
2.40355e-06
-9.28788e-06
-5.58249e-06
7.01071e-06
2.76211e-06
-5.57224e-07
1.99077e-06
-3.47306e-06
3.71448e-07
1.31792e-05
1.55573e-05
-5.76095e-06
9.67181e-07
1.33833e-06
-1.17017e-05
-8.46945e-06
-4.1359e-06
-6.07919e-06
-4.00498e-06
-1.67908e-06
-9.93313e-06
-1.69051e-05
-8.36025e-06
-7.50098e-06
1.67467e-05
2.02137e-05
1.3269e-05
1.13126e-06
-4.08216e-07
9.61613e-07
3.17488e-07
1.29385e-06
-7.32595e-07
-8.65762e-07
1.23487e-05
1.08838e-06
-8.7624e-06
-4.44154e-06
7.84171e-07
-1.62203e-06
6.093e-06
1.26216e-05
8.21427e-06
1.70029e-06
-2.09167e-06
1.15573e-06
-2.61384e-06
-7.15808e-06
-9.74017e-06
-1.094e-05
2.12595e-07
-5.51366e-06
-3.7737e-06
-3.84925e-06
-7.61552e-06
-5.95029e-06
2.64699e-07
-1.19053e-07
1.17695e-05
8.46577e-06
-3.70492e-06
-3.18022e-06
-1.52868e-06
-2.73431e-06
-1.24502e-06
3.33629e-06
7.53313e-06
1.52798e-06
-3.06085e-07
3.14417e-06
5.2775e-06
1.87728e-06
4.16354e-06
3.15191e-06
8.13993e-07
-8.36284e-08
-2.01746e-06
5.70283e-07
2.51954e-06
-8.97529e-06
-1.51549e-05
-5.19176e-06
2.52505e-06
3.2995e-06
-8.34829e-06
-6.41287e-06
1.14073e-06
3.16426e-06
-3.46367e-07
-6.91612e-06
3.38052e-06
1.03631e-05
-4.2671e-06
-5.75003e-06
4.89205e-06
-3.69956e-06
-1.34576e-05
-3.6359e-07
6.40445e-06
1.76171e-06
-1.89496e-06
-1.65987e-06
3.65424e-06
8.9639e-06
-3.19309e-07
-1.21156e-06
3.02597e-06
6.73517e-07
-2.12239e-06
2.9511e-06
1.06237e-05
-5.49971e-06
-1.82111e-05
-3.47928e-06
9.10064e-06
1.6929e-06
2.81448e-06
2.11568e-06
2.49459e-06
-1.99502e-06
-7.14299e-06
-8.91399e-06
-4.90011e-06
-3.6649e-07
-7.31465e-06
-3.62737e-06
7.2155e-07
-5.91367e-06
-6.29776e-07
1.16643e-05
5.56164e-06
-1.88685e-06
2.86477e-06
8.20171e-06
6.00522e-06
2.42059e-06
-3.12827e-06
-3.25976e-06
5.65544e-06
7.62424e-06
-3.79552e-06
-7.84383e-06
-5.37116e-07
5.46008e-07
1.89218e-06
2.06415e-07
3.05723e-06
3.20246e-06
1.26855e-05
1.41189e-05
-6.05407e-06
-6.96645e-06
-1.38412e-06
-7.47842e-06
-7.62082e-06
-4.42925e-06
-5.76119e-06
-3.90092e-06
-2.06294e-06
-4.84105e-06
-1.22349e-05
4.59179e-06
6.71894e-06
-4.02369e-06
-2.80382e-06
9.27282e-06
4.14883e-07
-4.33584e-06
-5.08081e-06
6.0497e-06
1.28693e-05
1.12328e-06
1.99399e-06
-1.51924e-05
-1.12216e-05
1.50309e-05
2.40974e-05
-8.17044e-07
-7.02283e-06
1.08317e-06
6.96447e-06
1.1848e-06
-5.24415e-06
-1.85504e-06
1.69533e-06
-9.66163e-06
-6.74988e-06
-9.04239e-09
-3.46557e-06
-6.33526e-06
-5.86039e-06
-5.55129e-06
3.76366e-06
3.71656e-06
-1.34632e-06
-2.80302e-06
6.19098e-07
1.2875e-05
4.36398e-06
3.4257e-06
6.23582e-07
-4.64749e-06
-1.23355e-06
1.32704e-06
4.98307e-06
-1.0959e-05
-1.97994e-05
5.14415e-06
2.45008e-05
2.32034e-06
-7.05195e-06
)
;
    }
    procBoundary2to3
    {
        type            processor;
        value           nonuniform List<scalar> 
256
(
-1.55577e-06
-2.95193e-06
2.15838e-06
3.90995e-06
-1.68488e-05
-2.02954e-05
2.35543e-06
1.15269e-05
5.13067e-06
8.56132e-07
4.23941e-06
3.77896e-06
-3.92312e-06
-5.89803e-06
3.30704e-06
3.56805e-06
-1.68751e-06
-9.83471e-06
-9.11977e-06
-2.78159e-06
5.89609e-06
4.27064e-06
-4.6493e-06
-1.97503e-06
4.11451e-06
5.95835e-06
2.34427e-06
2.8886e-06
4.59465e-06
6.97167e-06
3.09491e-06
-1.35233e-06
-6.59946e-07
-3.21834e-07
1.50011e-06
-6.5994e-06
-1.48498e-05
-1.01615e-05
-9.09407e-07
1.35581e-05
3.49603e-06
2.35365e-06
1.16507e-05
9.42525e-06
-6.48722e-07
-6.64308e-06
-4.04082e-06
5.04609e-06
2.12189e-06
-8.41078e-06
-5.13656e-06
-8.11659e-07
1.00493e-06
7.74729e-06
-2.1383e-06
-8.29982e-06
-4.87319e-06
1.6451e-06
-3.63752e-06
2.10754e-06
1.24301e-05
2.24964e-06
-2.39288e-07
2.02277e-06
-3.26256e-06
-1.0698e-05
-1.83566e-06
3.45962e-06
1.4671e-06
-1.90288e-05
-8.37955e-07
1.74078e-05
-2.57373e-06
-1.17037e-05
5.97879e-06
2.3282e-06
-5.13551e-06
-6.6866e-06
-5.14448e-06
-1.3547e-06
-3.54841e-06
-6.1304e-06
-4.48687e-06
6.56049e-06
8.03149e-06
5.42075e-06
6.84387e-06
5.8796e-06
5.18008e-06
-8.39357e-06
-1.38412e-05
-3.80488e-06
1.01368e-05
3.3003e-06
8.71844e-06
1.24815e-05
1.137e-06
-4.86289e-06
1.71498e-06
3.78763e-06
-2.52754e-06
-2.44755e-05
-4.16745e-06
1.7404e-05
1.28304e-05
6.59136e-06
6.46067e-06
-6.5351e-07
-4.87548e-06
-2.68891e-06
-3.04902e-06
1.26327e-06
2.74648e-06
-2.19958e-06
-6.07626e-06
4.2926e-06
6.07907e-06
1.9541e-06
2.11356e-06
7.34832e-06
-9.61002e-07
-1.20242e-05
-1.27393e-05
-3.06436e-06
2.82789e-06
2.83004e-06
3.3801e-06
5.83643e-06
2.21891e-06
1.05715e-06
-1.37329e-06
2.53915e-06
3.34072e-06
-9.01785e-06
-7.20055e-06
-2.37343e-07
3.37944e-06
4.51934e-06
1.69771e-05
7.18402e-06
-2.83233e-06
-1.09026e-05
-5.20203e-06
-2.95443e-06
-2.46595e-06
-5.07195e-06
-6.34217e-06
-7.66077e-07
1.90739e-06
-1.19927e-06
-4.73041e-06
-2.14271e-06
1.56775e-06
-8.04944e-08
-2.73541e-06
-5.27412e-06
4.82309e-06
8.44402e-06
3.81096e-06
1.00596e-06
-2.59572e-06
-1.77146e-05
-7.3152e-06
1.81249e-05
1.45184e-05
-1.29344e-05
-2.03601e-05
-6.34938e-06
8.99116e-06
1.47327e-05
5.52966e-06
-1.88005e-06
-6.77466e-06
1.29051e-06
7.37389e-06
2.87145e-06
-1.4453e-06
-6.0818e-08
4.8e-06
1.36615e-06
-1.54325e-07
-1.63824e-06
-3.55577e-06
-1.4387e-06
-2.38624e-06
-2.48437e-06
-2.67279e-06
-4.74458e-06
-4.86639e-06
5.35173e-06
1.17964e-05
9.25892e-06
-4.44875e-06
-1.06587e-05
-8.17564e-06
1.22441e-05
1.71351e-05
7.11385e-06
-6.68819e-06
-1.07638e-05
-2.96423e-06
7.01143e-06
2.51585e-06
-3.3456e-07
-6.80981e-07
-5.49094e-06
-3.47155e-06
2.46971e-06
-3.59213e-06
-6.81155e-06
2.66811e-06
6.86192e-06
2.47333e-06
-1.31382e-06
-3.53533e-07
5.37964e-07
-2.2884e-06
-1.73265e-06
-1.77656e-06
4.14498e-06
2.10002e-06
-6.27152e-07
6.34729e-06
7.96171e-06
-1.33358e-06
-1.23978e-05
-2.08731e-06
6.35386e-06
3.20935e-06
-3.35145e-07
-3.65134e-06
-9.45928e-07
5.93892e-06
7.3043e-06
3.37149e-06
1.98494e-06
-2.61273e-08
-5.80208e-06
8.95536e-07
1.24163e-05
-6.37657e-07
-1.13038e-05
8.88082e-06
7.52755e-06
-1.23905e-07
-4.94372e-06
-2.84748e-06
-2.22098e-06
-1.10605e-05
-8.62258e-06
-2.94137e-06
1.7734e-06
6.25157e-06
1.70489e-06
1.2631e-07
4.08143e-06
)
;
    }
}


// ************************************************************************* //
