FoamFile
{version 2.0; format ascii;class Cloud<passiveParticle>; location 0;object  positions;}
2496
(
( 0.00161516 -0.00389929 0.00635083 ) 0 
( 0.000435441 -0.00499569 0.00530388 ) 0 
( 0.0124881 -0.000845919 0.00375182 ) 0 
( 0.0109981 -0.00406236 0.00477348 ) 0 
( 0.00319509 -0.00399446 0.00575922 ) 0 
( 0.00491161 -0.00360989 0.000499619 ) 0 
( 0.00524871 -0.012274 0.00235606 ) 0 
( 0.00436097 -0.00415281 0.00724135 ) 0 
( 0.00830841 -0.00578963 0.0042882 ) 0 
( 0.00456946 -0.00146812 0.00614242 ) 0 
( 0.01022 -0.00706105 0.0065705 ) 0 
( 0.00510741 -0.00862828 0.00513408 ) 0 
( 0.00483524 -0.010513 0.000499677 ) 0 
( 0.00505905 -0.00523392 0.00417138 ) 0 
( 0.00912464 -0.00845816 0.0042598 ) 0 
( 0.00920919 -0.00206673 0.000499757 ) 0 
( 0.0122152 -0.00250804 0.00617995 ) 0 
( 0.00462717 -0.00599509 0.00747129 ) 0 
( 0.00219083 -0.0131692 0.00228525 ) 0 
( 0.00514478 -0.00142983 0.00148029 ) 0 
( 0.00750749 -0.00483201 0.000499655 ) 0 
( 0.00895089 -0.00418379 0.00648574 ) 0 
( 0.00391746 -0.0012923 0.00306253 ) 0 
( 0.00102165 -0.00695268 0.00571662 ) 0 
( 0.0102806 -0.00751496 0.00219295 ) 0 
( 0.000896086 -0.00328532 0.00308729 ) 0 
( 0.00375324 -0.00645154 0.00730535 ) 0 
( 0.00417413 -0.006887 0.00633529 ) 0 
( 0.00892232 -0.00277444 0.00127194 ) 0 
( 0.000642373 -0.00978582 0.00147701 ) 0 
( 0.00491905 -0.00377161 0.00609236 ) 0 
( 0.00925851 -0.00212874 0.00393246 ) 0 
( 0.00906856 -0.00297038 0.00342706 ) 0 
( 0.0133355 -0.000538995 0.00496578 ) 0 
( 0.00624586 -0.000960685 0.000499679 ) 0 
( 0.0113195 -0.00421263 0.002041 ) 0 
( 0.00764276 -0.0109459 0.00127222 ) 0 
( 0.00739659 -0.0074392 0.00559059 ) 0 
( 0.000171541 -0.00470876 0.00838408 ) 0 
( 0.00412072 -0.00434064 0.00628913 ) 0 
( 0.00558381 -0.0111665 0.00689455 ) 0 
( 0.00132215 -0.00864896 0.00220745 ) 0 
( 0.00765347 -0.00839807 0.00547103 ) 0 
( 0.00770766 -0.000999585 0.000499823 ) 0 
( 0.00338812 -0.00032399 0.000499802 ) 0 
( 7.82744e-05 -0.00104416 0.00585197 ) 0 
( 0.00844089 -0.00992193 0.00376424 ) 0 
( 0.00416273 -0.0051318 0.00727589 ) 0 
( 0.00457762 -0.00727681 0.00361575 ) 0 
( 0.0133212 -0.000878788 0.00679224 ) 0 
( 0.00229985 -0.0112503 0.00664918 ) 0 
( 0.00185266 -0.00550083 0.00555429 ) 0 
( 0.00758774 -0.00371792 0.0004998 ) 0 
( 0.000577669 -0.000741491 0.000499682 ) 0 
( 0.00939975 -0.0094804 0.000499653 ) 0 
( 0.00862176 -0.00904252 0.00242973 ) 0 
( 0.00314446 -0.0061188 0.00427021 ) 0 
( 0.0120291 -0.00348856 0.00608002 ) 0 
( 0.00152747 -0.00719865 0.00223046 ) 0 
( 0.00723177 -0.00110211 0.0054352 ) 0 
( 0.00789877 -0.0107619 0.00378875 ) 0 
( 0.00827453 -0.00149192 0.00592375 ) 0 
( 0.0093648 -0.00499478 0.00513471 ) 0 
( 0.00398437 -0.00116758 0.00538926 ) 0 
( 0.00884742 -0.00403392 0.00482879 ) 0 
( 0.00096991 -0.0103919 0.00712156 ) 0 
( 0.00559824 -0.00901887 0.00591257 ) 0 
( 0.00376471 -0.00354603 0.00205329 ) 0 
( 0.00242398 -0.00685198 0.000499751 ) 0 
( 0.00843447 -0.00750036 0.000499808 ) 0 
( 0.0107567 -0.00346246 0.00395634 ) 0 
( 0.00602205 -0.00259506 0.00607675 ) 0 
( 0.00707173 -0.00106147 0.00327292 ) 0 
( 0.00362429 -0.0012939 0.00692452 ) 0 
( 0.0116529 -0.00462288 0.00300391 ) 0 
( 0.000403096 -0.00241558 0.00310956 ) 0 
( 0.00927122 -0.00725211 0.00631931 ) 0 
( 0.00172126 -0.00344268 0.00416243 ) 0 
( 0.00986304 -0.00421943 0.00690395 ) 0 
( 0.00725909 -0.00699134 0.000499777 ) 0 
( 0.00470224 -0.00389408 0.00205812 ) 0 
( 0.00210766 -0.0123299 0.00659791 ) 0 
( 0.00866281 -0.00884172 0.00632178 ) 0 
( 0.000578516 -0.0123486 0.000499802 ) 0 
( 0.0092497 -0.00158361 0.00572274 ) 0 
( 0.01099 -0.00502319 0.00109619 ) 0 
( 0.00518759 -0.00517245 0.00735072 ) 0 
( 0.0033365 -0.00754312 0.000499808 ) 0 
( 0.00951006 -0.00821169 0.00514953 ) 0 
( 0.00151387 -0.0108744 0.00534304 ) 0 
( 0.00199285 -0.00501476 0.00404016 ) 0 
( 0.00108011 -0.00384872 0.00203836 ) 0 
( 0.00183698 -0.010549 0.000499595 ) 0 
( 0.00538234 -0.00701961 0.00500501 ) 0 
( 0.00234956 -0.00517348 0.00105491 ) 0 
( 0.00733998 -0.00914888 0.0048899 ) 0 
( 0.00446802 -0.0123658 0.00138 ) 0 
( 0.00159284 -0.00637179 0.00513683 ) 0 
( 0.00456631 -0.0114759 0.000499792 ) 0 
( 0.000525289 -0.00368363 0.00767291 ) 0 
( 0.0106708 -0.00628331 0.0013512 ) 0 
( 0.00369056 -0.00287898 0.00368053 ) 0 
( 0.0013653 -0.00170654 0.00787214 ) 0 
( 0.00291702 -0.00771499 0.00609288 ) 0 
( 0.0117627 -0.00439222 0.00116272 ) 0 
( 0.00579491 -0.00780134 0.00117413 ) 0 
( 0.00772059 -0.00431917 0.00540243 ) 0 
( 0.00108709 -0.0133057 0.000499817 ) 0 
( 0.0019494 -0.00597178 0.000499711 ) 0 
( 0.00653215 -0.00267458 0.00725145 ) 0 
( 0.000170935 -0.00103887 0.00438089 ) 0 
( 0.0118611 -0.0061216 0.00141013 ) 0 
( 0.00429591 -0.00212265 0.00543778 ) 0 
( 0.00189001 -0.011441 0.000948102 ) 0 
( 0.00445577 -0.00559279 0.00528808 ) 0 
( 0.0118684 -0.00611174 0.00466421 ) 0 
( 0.00658355 -0.00445006 0.000499685 ) 0 
( 0.0109344 -0.00259077 0.00699583 ) 0 
( 0.00272137 -0.00486264 0.00542067 ) 0 
( 0.00805417 -0.00992362 0.006525 ) 0 
( 0.00509009 -0.00459334 0.00135394 ) 0 
( 0.000957599 -0.0032902 0.00487204 ) 0 
( 0.00776531 -0.00488715 0.00455634 ) 0 
( 0.00295032 -0.00695555 0.00698736 ) 0 
( 0.00833172 -0.0043317 0.000763803 ) 0 
( 0.00310178 -0.00974909 0.00203018 ) 0 
( 0.00686974 -0.00962774 0.00706514 ) 0 
( 0.00784207 -0.00992855 0.00119953 ) 0 
( 0.0103866 -0.0052972 0.00648691 ) 0 
( 0.00113632 -0.00872287 0.00575378 ) 0 
( 0.00426117 -0.0013736 0.001945 ) 0 
( 0.00264438 -0.010689 0.00479829 ) 0 
( 0.0116513 -0.00117098 0.00669106 ) 0 
( 0.00761304 -0.00931633 0.00586458 ) 0 
( 0.00700158 -0.00316902 0.00519398 ) 0 
( 0.00996801 -0.00561518 0.00563643 ) 0 
( 0.0131685 -0.00219476 0.00601904 ) 0 
( 0.00929377 -0.00736967 0.00226647 ) 0 
( 0.00586575 -0.010063 0.000981913 ) 0 
( 0.00908739 -0.00673435 0.000499758 ) 0 
( 0.00380647 -0.0111103 0.00197592 ) 0 
( 0.00331103 -0.00501675 0.00676497 ) 0 
( 0.00474929 -0.00989962 0.00296526 ) 0 
( 0.00962289 -0.00683641 0.00338534 ) 0 
( 0.00357685 -0.00978452 0.00310297 ) 0 
( 0.00655639 -0.00631965 0.0063292 ) 0 
( 0.0102187 -0.0025629 0.00629826 ) 0 
( 0.00432003 -0.00486048 0.00193315 ) 0 
( 0.0105195 -0.00481463 0.00195351 ) 0 
( 0.00457545 -0.00427067 0.00388414 ) 0 
( 0.00559798 -0.000466356 0.00298685 ) 0 
( 0.00212982 -0.00121577 0.00132982 ) 0 
( 0.00928274 -0.00694443 0.00727465 ) 0 
( 0.00903895 -0.00126698 0.00345701 ) 0 
( 0.00614558 -0.00044633 0.00135119 ) 0 
( 0.000230651 -0.00649748 0.00803115 ) 0 
( 0.00632642 -0.00842685 0.00315295 ) 0 
( 0.00224591 -0.00864793 0.00340816 ) 0 
( 0.00289362 -0.0130325 0.00633698 ) 0 
( 0.000301083 -0.000475578 0.0020948 ) 0 
( 0.000883636 -0.00325918 0.00611541 ) 0 
( 0.00288795 -0.00976124 0.000499666 ) 0 
( 0.00379814 -0.0107704 0.00659559 ) 0 
( 0.0132175 -0.00187638 0.00320341 ) 0 
( 0.00127299 -0.00513124 0.00768984 ) 0 
( 0.00597923 -0.00147697 0.00357684 ) 0 
( 0.00540149 -0.0091026 0.000499649 ) 0 
( 0.00288783 -0.00639007 0.00780996 ) 0 
( 0.0126725 -0.0042001 0.00638743 ) 0 
( 0.000773101 -0.00382904 0.000499637 ) 0 
( 0.00109637 -0.00556498 0.00481493 ) 0 
( 0.00728772 -0.00814291 0.00325174 ) 0 
( 0.00402062 -0.00205377 0.00413889 ) 0 
( 0.00658516 -0.00750344 0.00282686 ) 0 
( 0.00198484 -0.00273026 0.00158089 ) 0 
( 0.0050502 -0.00724935 0.0015486 ) 0 
( 0.000150809 -0.00552538 0.00780801 ) 0 
( 0.0105651 -0.00816108 0.000499765 ) 0 
( 0.000511662 -0.00957282 0.00750682 ) 0 
( 0.012331 -0.00191505 0.00240402 ) 0 
( 0.00166117 -0.00170329 0.00604133 ) 0 
( 0.00219718 -0.00693562 0.00153607 ) 0 
( 0.000182853 -0.00393327 0.00280388 ) 0 
( 0.000443184 -0.0041429 0.00478183 ) 0 
( 0.0037076 -0.00351617 0.00765016 ) 0 
( 0.00651767 -9.58076e-05 0.00664376 ) 0 
( 0.0104399 -0.00367906 0.00587992 ) 0 
( 0.00295041 -0.00583876 0.00149763 ) 0 
( 0.00458457 -0.00471312 0.000499621 ) 0 
( 0.00467179 -0.0114057 0.00157128 ) 0 
( 0.00324864 -0.0106522 0.00128398 ) 0 
( 0.0108476 -0.00211298 0.000499806 ) 0 
( 0.00885354 -0.00999197 0.00116296 ) 0 
( 0.00292857 -0.0122132 0.00484728 ) 0 
( 0.000956787 -0.00796496 0.00709867 ) 0 
( 0.0107284 -0.00261956 0.00449416 ) 0 
( 0.00857925 -0.00497881 0.00696476 ) 0 
( 0.00228072 -0.00894578 0.00218897 ) 0 
( 0.000841146 -0.00384736 0.00391296 ) 0 
( 0.00810757 -0.0011229 0.00397689 ) 0 
( 0.00196304 -0.0103219 0.00604509 ) 0 
( 0.0115706 -0.00344958 0.00143741 ) 0 
( 0.00286172 -0.0104436 0.0064662 ) 0 
( 0.00237914 -0.010159 0.00126287 ) 0 
( 0.00687906 -0.0096828 0.00130764 ) 0 
( 0.00975374 -0.00449835 0.00435869 ) 0 
( 0.00711387 -0.011297 0.000499673 ) 0 
( 0.000767414 -0.00791019 0.00526163 ) 0 
( 0.00999842 -0.00582386 0.00465894 ) 0 
( 0.00268671 -0.00129688 0.00477469 ) 0 
( 0.00541123 -0.00061867 0.00200768 ) 0 
( 0.00741383 -0.0063715 0.00689379 ) 0 
( 0.00767639 -0.00165179 0.00269974 ) 0 
( 0.00695813 -0.0087995 0.0017695 ) 0 
( 0.00884055 -0.00747756 0.00429468 ) 0 
( 0.0023643 -0.00408913 0.00364752 ) 0 
( 0.0100437 -0.00870633 0.00389464 ) 0 
( 0.0074584 -0.0101219 0.0052926 ) 0 
( 0.00936963 -0.0047141 0.00343848 ) 0 
( 0.00653766 -0.00602791 0.00728538 ) 0 
( 0.0102434 -0.00686967 0.00755159 ) 0 
( 0.0055578 -0.00910593 0.0029011 ) 0 
( 0.00592037 -0.00286459 0.00103533 ) 0 
( 0.00517515 -0.0046495 0.00649862 ) 0 
( 0.00967234 -0.00473626 0.00606896 ) 0 
( 0.00157837 -0.00770164 0.00136237 ) 0 
( 0.00694144 -0.0016094 0.00196477 ) 0 
( 0.00461969 -0.00267816 0.00467178 ) 0 
( 0.00740586 -0.0093341 0.000499675 ) 0 
( 0.00253671 -0.00796997 0.00148065 ) 0 
( 0.0016722 -0.0132367 0.006563 ) 0 
( 0.00586408 -0.0105068 0.00619728 ) 0 
( 0.00636178 -0.0112394 0.00560147 ) 0 
( 0.000194063 -0.0111453 0.00326173 ) 0 
( 0.00128271 -0.0033347 0.00120492 ) 0 
( 0.000763103 -0.0100408 0.00331262 ) 0 
( 0.00228164 -0.00419675 0.00476815 ) 0 
( 0.00775131 -0.00388893 0.00449953 ) 0 
( 0.0120424 -0.000361975 0.00450469 ) 0 
( 0.00177216 -0.0119596 0.00395261 ) 0 
( 0.00944118 -0.00823914 0.00614662 ) 0 
( 0.00960563 -0.000853177 0.00508765 ) 0 
( 0.00470209 -0.0103952 0.00472308 ) 0 
( 0.000619182 -0.00141592 0.0022182 ) 0 
( 0.00328956 -0.00201615 0.00849974 ) 0 
( 0.00411155 -0.00358595 0.00311196 ) 0 
( 0.0130509 -0.00280989 0.00375404 ) 0 
( 0.0025987 -0.00949941 0.00301841 ) 0 
( 0.00312776 -0.00677865 0.00120618 ) 0 
( 0.00571948 -0.0111663 0.0041911 ) 0 
( 0.00765862 -0.000306461 0.0014442 ) 0 
( 0.00510039 -0.00258766 0.000499803 ) 0 
( 0.00190555 -0.00715197 0.00315547 ) 0 
( 0.0117458 -0.000577249 0.00589218 ) 0 
( 0.00988704 -0.00779831 0.00345761 ) 0 
( 0.00804378 -0.0022281 0.00196941 ) 0 
( 0.00904422 -0.00503252 0.00126326 ) 0 
( 0.00540135 -0.00312556 0.00549968 ) 0 
( 0.0016749 -0.00118499 0.00328277 ) 0 
( 0.00636009 -0.00959599 0.0062058 ) 0 
( 0.00892057 -0.00554795 0.00298708 ) 0 
( 0.000636564 -0.00286604 0.00397207 ) 0 
( 0.00783951 -0.00469848 0.00635359 ) 0 
( 0.00064041 -0.0080714 0.0010187 ) 0 
( 0.00290887 -0.00244164 0.00436896 ) 0 
( 0.00571463 -0.00340708 0.00657601 ) 0 
( 0.00481786 -0.00251828 0.00627202 ) 0 
( 0.00595481 -0.000355177 0.00809931 ) 0 
( 0.0132531 -0.00160558 0.00214684 ) 0 
( 0.00490575 -0.00260265 0.00767107 ) 0 
( 0.0130545 -0.00279399 0.000499752 ) 0 
( 0.00705904 -0.000185 0.00579445 ) 0 
( 0.00983128 -0.00166998 0.0065314 ) 0 
( 0.00631593 -0.00728118 0.0061976 ) 0 
( 0.010199 -0.00861418 0.00131254 ) 0 
( 0.0113814 -0.000235679 0.0026232 ) 0 
( 0.00732038 -0.0105011 0.0068825 ) 0 
( 0.000679219 -0.00269621 0.0076405 ) 0 
( 0.0046333 -0.00323676 0.00694783 ) 0 
( 0.00214597 -0.00483983 0.00808035 ) 0 
( 0.010399 -0.00837138 0.0027048 ) 0 
( 0.00306047 -0.0129919 0.000499669 ) 0 
( 0.00443334 -0.00566611 0.00256409 ) 0 
( 0.0125064 -0.000951781 0.00261952 ) 0 
( 0.00758136 -0.00927827 0.00343914 ) 0 
( 0.00127142 -0.00842423 0.00339201 ) 0 
( 0.0113718 -0.00699355 0.0014115 ) 0 
( 0.00601741 -0.00450441 0.00358 ) 0 
( 0.00776464 -0.00227685 0.00557229 ) 0 
( 0.00684405 -0.0104616 0.0060044 ) 0 
( 0.00688877 -0.00174197 0.000499698 ) 0 
( 0.00802617 -0.00147533 0.00495527 ) 0 
( 0.00426236 -0.0126514 0.00515492 ) 0 
( 0.00234604 -0.00526498 0.0020506 ) 0 
( 0.0102171 -0.00480772 0.000499607 ) 0 
( 0.00313514 -0.00599598 0.00666502 ) 0 
( 0.00307283 -0.000432349 0.00214247 ) 0 
( 0.00540583 -0.00766873 0.00238386 ) 0 
( 0.00225212 -0.00584524 0.00330668 ) 0 
( 0.00940551 -0.00665063 0.00437758 ) 0 
( 0.0043214 -0.00806052 0.00161031 ) 0 
( 0.00822368 -0.0072386 0.0050657 ) 0 
( 0.000430083 -0.00481068 0.00641021 ) 0 
( 0.00109816 -0.00548342 0.00370709 ) 0 
( 0.0102441 -0.00195491 0.00392082 ) 0 
( 0.00147319 -0.00317542 0.00801367 ) 0 
( 0.0132936 -0.00122789 0.00420454 ) 0 
( 0.00245302 -0.00341213 0.00610441 ) 0 
( 0.00712807 -0.00257462 0.00217254 ) 0 
( 0.00328848 -0.00566955 0.00337433 ) 0 
( 0.0018543 -0.00828847 0.0073978 ) 0 
( 0.00609781 -0.00351856 0.00482289 ) 0 
( 0.00362767 -0.00505858 0.0057979 ) 0 
( 0.00611648 -0.00254703 0.00505922 ) 0 
( 0.00770773 -0.0108198 0.00260049 ) 0 
( 1.37592e-05 -0.0124737 0.00591757 ) 0 
( 0.00606833 -0.00437259 0.00135294 ) 0 
( 0.00377584 -0.000223821 0.00395329 ) 0 
( 0.0130263 -0.00292279 0.00515729 ) 0 
( 0.00155206 -0.00993649 0.00392496 ) 0 
( 0.0124765 -0.00210052 0.0053036 ) 0 
( 0.000612629 -0.00643035 0.00494677 ) 0 
( 0.00446331 -0.0107792 0.00561491 ) 0 
( 0.00103199 -0.00651885 0.00337837 ) 0 
( 0.010052 -0.00406267 0.00787315 ) 0 
( 0.0128179 -0.00373227 0.000751231 ) 0 
( 0.00960121 -0.00545425 0.0021254 ) 0 
( 0.00348611 -0.00420132 0.00371192 ) 0 
( 0.000719531 -0.013208 0.00395593 ) 0 
( 0.00189706 -0.00937228 0.00572293 ) 0 
( 0.00704321 -0.0113409 0.0032201 ) 0 
( 0.00270218 -0.0121283 0.00581806 ) 0 
( 0.00658535 -0.00193985 0.00284018 ) 0 
( 0.00463178 -0.0125197 0.00423513 ) 0 
( 0.00771727 -0.00545226 0.00714396 ) 0 
( 0.00131319 -0.00204526 0.0029236 ) 0 
( 0.00837995 -0.00436026 0.00350858 ) 0 
( 0.0125968 -0.00150117 0.00708748 ) 0 
( 0.00992267 -0.000772741 0.00317295 ) 0 
( 0.00875929 -0.00803737 0.00690799 ) 0 
( 0.00391433 -0.00353832 0.000499741 ) 0 
( 0.00389819 -0.00237543 0.000499622 ) 0 
( 0.00214364 -0.00761317 0.00671952 ) 0 
( 0.00628644 -0.00987148 0.00209063 ) 0 
( 0.00439183 -0.000431139 0.000499633 ) 0 
( 0.00546615 -0.00974142 0.00670291 ) 0 
( 0.000750742 -0.00217379 0.00850769 ) 0 
( 0.0028241 -0.00879719 0.00660212 ) 0 
( 0.00755104 -0.00204307 0.00715325 ) 0 
( 0.000493725 -0.00881667 0.00167312 ) 0 
( 0.0109959 -0.00482778 0.00566708 ) 0 
( 0.00560523 -0.00466141 0.000499743 ) 0 
( 0.000621303 -0.0115996 0.006102 ) 0 
( 0.00921467 -0.00719728 0.00519285 ) 0 
( 0.000411146 -0.00498293 0.00423428 ) 0 
( 0.000337865 -0.000579529 0.00347043 ) 0 
( 0.0104163 -0.00833713 0.00474599 ) 0 
( 0.000342049 -0.00699695 0.000499676 ) 0 
( 0.000458049 -0.00278347 0.00133049 ) 0 
( 0.00466602 -0.00653791 0.00553777 ) 0 
( 0.0115508 -0.001212 0.00247839 ) 0 
( 0.00330945 -0.00976436 0.00704741 ) 0 
( 0.00936292 -0.00796033 0.00129421 ) 0 
( 0.0101845 -0.00525408 0.00385662 ) 0 
( 0.00871165 -0.00119871 0.000499583 ) 0 
( 0.0105816 -0.00136435 0.0046966 ) 0 
( 0.003281 -0.0107635 0.00403083 ) 0 
( 0.000810823 -0.00166683 0.00704106 ) 0 
( 0.00358153 -0.00202783 0.00138179 ) 0 
( 0.000102947 -0.00457175 0.00049974 ) 0 
( 0.00387603 -0.00742682 0.00712232 ) 0 
( 0.00320534 -0.00412995 0.0013401 ) 0 
( 0.0118343 -0.00414858 0.00534615 ) 0 
( 0.00834507 -0.0104205 0.00190981 ) 0 
( 0.000836964 -0.0104623 0.0021874 ) 0 
( 0.000642605 -0.00181692 0.00393474 ) 0 
( 0.00152873 -0.00260413 0.00562594 ) 0 
( 0.00962686 -0.00850679 0.000499649 ) 0 
( 0.000882394 -0.00750723 0.00330407 ) 0 
( 0.00413335 -0.0071911 0.00115412 ) 0 
( 0.00771576 -0.00295427 0.00677662 ) 0 
( 0.00105828 -0.00161825 0.000499712 ) 0 
( 0.00672783 -0.00387997 0.00320513 ) 0 
( 0.0094391 -0.00353422 0.00226254 ) 0 
( 0.00112211 -0.00921549 0.00478673 ) 0 
( 0.00310339 -0.00239042 0.00682753 ) 0 
( 0.00171541 -0.00153515 0.00475254 ) 0 
( 1.80796e-05 -0.00983976 0.000697994 ) 0 
( 0.0110329 -0.00383961 0.00306762 ) 0 
( 0.00240571 -0.00050237 0.00421105 ) 0 
( 0.00202882 -0.00270607 0.00476512 ) 0 
( 0.00308005 -0.0120466 0.00674027 ) 0 
( 0.00166442 -0.00746296 0.00514526 ) 0 
( 0.00525627 -0.00387599 0.00326714 ) 0 
( 0.0085566 -0.00334054 0.000499624 ) 0 
( 0.0108163 -0.00782483 0.00140719 ) 0 
( 0.00358802 -0.00649498 0.00511547 ) 0 
( 0.0112717 -0.00706839 0.00657059 ) 0 
( 0.00675072 -0.00601732 0.00456177 ) 0 
( 0.00989474 -0.00654467 0.00223746 ) 0 
( 0.0020268 -0.00800098 0.00415363 ) 0 
( 0.0121253 -0.00273331 0.00186078 ) 0 
( 0.00926023 -0.00451216 0.00215431 ) 0 
( 0.000908881 -0.00572482 0.00579776 ) 0 
( 0.00347245 -0.00367978 0.00666735 ) 0 
( 0.00556656 -0.00758755 0.00420074 ) 0 
( 0.00123386 -0.00243892 0.00656752 ) 0 
( 0.00828872 -0.000875156 0.0028477 ) 0 
( 0.00682208 -0.00509101 0.00493184 ) 0 
( 0.0015634 -0.000457616 0.000499806 ) 0 
( 0.00353601 -0.0121422 0.0016648 ) 0 
( 0.00896314 -0.0015871 0.00702335 ) 0 
( 0.00297656 -0.00972539 0.00419037 ) 0 
( 0.00622002 -0.00481764 0.00570886 ) 0 
( 0.00282169 -0.0024049 0.00080326 ) 0 
( 0.00684316 -0.00353513 0.00684819 ) 0 
( 0.000172822 -0.00304686 0.00227111 ) 0 
( 0.0100916 -0.00256557 0.00239597 ) 0 
( 0.00410612 -0.0062874 0.00346556 ) 0 
( 0.000792096 -0.00589562 0.00167516 ) 0 
( 0.00551568 -0.00586303 0.000499616 ) 0 
( 0.0031661 -0.00675027 0.00600932 ) 0 
( 0.0110338 -0.00422143 0.000499761 ) 0 
( 0.000143668 -0.0110721 0.00426844 ) 0 
( 0.00100876 -0.00268103 0.000499744 ) 0 
( 0.00238363 -0.00785115 0.000499751 ) 0 
( 0.0105956 -0.000383401 0.00118686 ) 0 
( 0.000824456 -0.00891052 0.00680237 ) 0 
( 0.00698999 -0.00680482 0.0021739 ) 0 
( 0.00624496 -0.00155469 0.00475409 ) 0 
( 0.00900435 -0.00985615 0.00474815 ) 0 
( 0.00509728 -0.00721503 0.00613381 ) 0 
( 0.00362275 -0.00973123 0.00117685 ) 0 
( 0.00642109 -0.0107219 0.00474796 ) 0 
( 0.0073979 -0.00285286 0.00771887 ) 0 
( 0.00199535 -0.0047814 0.00709363 ) 0 
( 0.00701934 -0.00263524 0.0061341 ) 0 
( 0.00333269 -0.00261356 0.00270881 ) 0 
( 0.000335255 -0.013346 0.0062854 ) 0 
( 0.00697832 -0.00427649 0.00607156 ) 0 
( 0.00257537 -0.00659129 0.00510325 ) 0 
( 0.0113363 -0.00307349 0.00239118 ) 0 
( 0.00653469 -0.0106516 0.00375697 ) 0 
( 0.00581729 -0.00137154 0.00252548 ) 0 
( 0.00816659 -0.00370045 0.00171458 ) 0 
( 0.0118211 -0.00237326 0.00459947 ) 0 
( 0.00212713 -0.0112292 0.00311059 ) 0 
( 0.00270053 -0.00156543 0.00643152 ) 0 
( 0.00354031 -0.00542429 0.00487126 ) 0 
( 0.00264167 -0.0120469 0.000499801 ) 0 
( 0.00643506 -0.0116967 0.00715278 ) 0 
( 0.00402668 -0.0117317 0.0043578 ) 0 
( 0.00395744 -0.00604061 0.00135981 ) 0 
( 0.000661216 -0.00670173 0.00236682 ) 0 
( 0.00382291 -0.00877636 0.00655839 ) 0 
( 0.00728813 -0.00384581 0.00768807 ) 0 
( 0.00552533 -0.0108335 0.0051966 ) 0 
( 0.00411915 -0.0126988 0.00225626 ) 0 
( 0.00172986 -0.00844966 0.00499657 ) 0 
( 0.00358026 -0.0089243 0.00751694 ) 0 
( 0.00350304 -0.00653395 0.00210156 ) 0 
( 0.000126394 -0.010494 0.00764865 ) 0 
( 0.00243508 -0.00197651 0.00547026 ) 0 
( 0.00521595 -0.0113646 0.00598623 ) 0 
( 0.00290169 -0.000192685 0.00327217 ) 0 
( 0.00911115 -0.000855536 0.00213628 ) 0 
( 0.00153685 -0.00405317 0.00308697 ) 0 
( 0.00151389 -0.0097395 0.000989149 ) 0 
( 0.00854901 -0.00929075 0.00543577 ) 0 
( 0.00494164 -0.00933233 0.00389905 ) 0 
( 7.49921e-05 -0.000584747 0.0083527 ) 0 
( 0.00271696 -0.0110235 0.000499589 ) 0 
( 0.00229729 -0.00173247 0.00396284 ) 0 
( 0.012006 -0.00373189 0.00331217 ) 0 
( 0.00158041 -0.00933816 0.00312416 ) 0 
( 0.0107364 -0.00150376 0.00317643 ) 0 
( 0.00138931 -0.013156 0.00473673 ) 0 
( 0.0119858 -0.00587885 0.00562971 ) 0 
( 0.00391748 -0.00171942 0.00778053 ) 0 
( 0.00590939 -0.00370885 0.000499757 ) 0 
( 0.00704798 -0.0113304 0.00197804 ) 0 
( 0.00266093 -0.0115374 0.00415984 ) 0 
( 0.00866178 -0.00073628 0.00539585 ) 0 
( 0.00604731 -0.00632427 0.00242569 ) 0 
( 0.0025967 -0.00894348 0.00515169 ) 0 
( 0.00762122 -0.00616818 0.00173117 ) 0 
( 0.00360937 -0.00449052 0.000499691 ) 0 
( 0.00128222 -0.00414943 0.00813076 ) 0 
( 0.000254669 -0.00670912 0.00145317 ) 0 
( 0.0024616 -0.0044275 0.00628302 ) 0 
( 0.000723487 -0.00910631 0.0038762 ) 0 
( 0.006268 -0.000572928 0.00396744 ) 0 
( 0.0117795 -0.00549221 0.000499809 ) 0 
( 0.0122616 -0.00528055 0.00665389 ) 0 
( 0.0058556 -0.0119418 0.00049965 ) 0 
( 0.00167044 -0.00433224 0.00136742 ) 0 
( 0.00986951 -0.00752928 0.00451319 ) 0 
( 0.000453893 -0.00816128 0.00625134 ) 0 
( 0.00244611 -0.00935445 0.0073413 ) 0 
( 0.0061035 -0.00715449 0.00187123 ) 0 
( 0.000991105 -0.0114406 0.00179491 ) 0 
( 0.013302 -0.00113055 0.00123145 ) 0 
( 0.00588578 -0.00698362 0.00774214 ) 0 
( 0.0114547 -0.00212948 0.002868 ) 0 
( 0.00411777 -0.00983415 0.00207038 ) 0 
( 0.00481949 -0.00159592 0.000499676 ) 0 
( 0.00142441 -0.000822654 0.00727663 ) 0 
( 0.00403083 -0.0048173 0.00312773 ) 0 
( 0.0066686 -0.00533774 0.00648059 ) 0 
( 0.0112018 -0.00686027 0.00470386 ) 0 
( 0.000291167 -6.87201e-05 0.00118151 ) 0 
( 0.0120913 -0.00251994 0.000499804 ) 0 
( 0.00591781 -0.00327075 0.00282398 ) 0 
( 0.000976174 -0.0106665 0.00616008 ) 0 
( 0.00527325 -0.00817721 0.00634346 ) 0 
( 0.00996928 -0.0070378 0.00135541 ) 0 
( 0.00621679 -0.00814831 0.00669677 ) 0 
( 0.0107432 -0.00790947 0.00645665 ) 0 
( 0.00195678 -0.0102502 0.00704304 ) 0 
( 0.0026392 -0.00198593 0.00171311 ) 0 
( 0.00180802 -0.00326642 0.00240641 ) 0 
( 0.0094822 -0.00196576 0.00180903 ) 0 
( 0.000354968 -0.0133113 0.0028409 ) 0 
( 0.0058854 -0.00693949 0.00340208 ) 0 
( 0.0049544 -0.00170375 0.0034077 ) 0 
( 0.00489727 -0.00076427 0.00551249 ) 0 
( 0.00715702 -0.00816347 0.00708588 ) 0 
( 0.00331564 -0.00949277 0.00607834 ) 0 
( 0.00777402 -0.000698204 0.00626858 ) 0 
( 0.00266154 -0.00325467 0.0070696 ) 0 
( 0.00342391 -0.00446354 0.00225706 ) 0 
( 0.00723843 -0.00302098 0.0042338 ) 0 
( 0.00495253 -0.0017887 0.00825166 ) 0 
( 0.00561977 -0.000591146 0.00639401 ) 0 
( 0.00691382 -0.000506078 0.00786036 ) 0 
( 0.00933818 -0.00249072 0.00681871 ) 0 
( 0.00535561 -0.00407083 0.0072984 ) 0 
( 0.00673586 -0.00578543 0.000499743 ) 0 
( 0.00346486 -0.0118013 0.00352824 ) 0 
( 0.00320876 -0.00153446 0.000499616 ) 0 
( 0.00157299 -0.000242189 0.00360974 ) 0 
( 0.0112383 -0.00203986 0.00385847 ) 0 
( 0.00815445 -0.0105704 0.00049965 ) 0 
( 0.00275754 -0.00338227 0.00509995 ) 0 
( 0.00835055 -0.0019878 0.00353715 ) 0 
( 0.00631696 -0.00357882 0.00579667 ) 0 
( 0.00950602 -0.00302452 0.000499627 ) 0 
( 0.00490673 -0.000938712 0.00700903 ) 0 
( 0.0108734 -0.00133664 0.00734372 ) 0 
( 0.00334851 -0.00158621 0.0022939 ) 0 
( 0.00275781 -0.00482771 0.0029193 ) 0 
( 0.00355045 -0.00746496 0.00535565 ) 0 
( 0.00617383 -0.006816 0.00439041 ) 0 
( 0.00661955 -0.0106661 0.00127159 ) 0 
( 0.00491049 -0.00677281 0.00281224 ) 0 
( 0.0102709 -0.00459825 0.00301568 ) 0 
( 0.00661026 -0.000992818 0.00621229 ) 0 
( 0.011854 -0.00364956 0.000499644 ) 0 
( 0.00475792 -0.00468907 0.00559087 ) 0 
( 0.0101487 -0.00867374 0.00670593 ) 0 
( 0.000858645 -0.0103433 0.000499682 ) 0 
( 0.0015326 -0.00622201 0.00246941 ) 0 
( 0.00773416 -0.00350454 0.00341888 ) 0 
( 0.00690435 -0.0087633 0.00631111 ) 0 
( 0.0046132 -0.000329793 0.00341582 ) 0 
( 0.00219607 -0.00698383 0.00594433 ) 0 
( 0.000230905 -0.00911496 0.00559092 ) 0 
( 0.00266922 -0.00543615 0.00743486 ) 0 
( 0.0105705 -0.00576522 0.00226131 ) 0 
( 0.00354607 -0.0092291 0.00502286 ) 0 
( 0.0122878 -0.00521854 0.00136541 ) 0 
( 0.00455667 -0.0022044 0.00124817 ) 0 
( 0.0117774 -0.00157089 0.00578361 ) 0 
( 0.00733799 -0.00443594 0.00377151 ) 0 
( 0.00147293 -0.00826411 0.000499657 ) 0 
( 0.00429288 -0.00905027 0.00147142 ) 0 
( 0.00570071 -0.00675712 0.00678624 ) 0 
( 0.00697619 -0.000988436 0.00118184 ) 0 
( 0.00808204 -0.00117582 0.00725518 ) 0 
( 0.0110475 -0.00575814 0.00530488 ) 0 
( 0.0126014 -0.000341869 0.00635275 ) 0 
( 0.00734118 -0.00167394 0.00624814 ) 0 
( 0.00765633 -0.00618177 0.00355671 ) 0 
( 0.00744599 -0.00701422 0.00430856 ) 0 
( 0.00638731 -0.0093595 0.000499535 ) 0 
( 0.00386847 -0.00908635 0.0040859 ) 0 
( 0.00864328 -0.00181432 0.00128443 ) 0 
( 0.00861083 -0.000519547 0.00122615 ) 0 
( 0.0029095 -0.00582857 0.00565696 ) 0 
( 0.0129495 -0.00226746 0.00134326 ) 0 
( 0.00147141 -0.0116857 0.00702221 ) 0 
( 0.0028097 -0.00667782 0.00329157 ) 0 
( 0.00772563 -0.00607884 0.000499808 ) 0 
( 0.0018085 -0.0059026 0.00148711 ) 0 
( 0.00402306 -0.0127295 0.000561901 ) 0 
( 0.00142652 -0.00192627 0.00137672 ) 0 
( 0.000187595 -0.00457934 0.00738113 ) 0 
( 0.00124593 -0.00671408 0.00132281 ) 0 
( 0.00558606 -0.000310932 0.00494702 ) 0 
( 0.00863008 -0.00562417 0.00195799 ) 0 
( 0.00119353 -0.011234 0.0027521 ) 0 
( 0.00702935 -0.00599211 0.00275512 ) 0 
( 0.00555045 -0.0121411 0.00434879 ) 0 
( 0.00397746 -0.00363448 0.00437317 ) 0 
( 0.0114715 -0.00525271 0.00194198 ) 0 
( 0.00212374 -0.00911649 0.000499651 ) 0 
( 0.00353825 -0.00723998 0.00284735 ) 0 
( 0.000447663 -0.0107533 0.00131355 ) 0 
( 0.00362419 -0.0128464 0.00699383 ) 0 
( 0.00251047 -0.00629261 0.00227257 ) 0 
( 0.000139468 -0.0072233 0.00610197 ) 0 
( 0.00195984 -0.0130901 0.00382482 ) 0 
( 0.00431669 -0.00479057 0.00469835 ) 0 
( 0.00524095 -0.00272642 0.00175712 ) 0 
( 0.00410858 -0.00984187 0.00557909 ) 0 
( 0.0111028 -0.00534597 0.00345689 ) 0 
( 0.00609873 -0.00524307 0.00425815 ) 0 
( 0.00506573 -0.0123517 0.00603945 ) 0 
( 0.00110001 -0.00231922 0.0046694 ) 0 
( 0.00317837 -0.00195181 0.00348475 ) 0 
( 0.00709994 -0.0011553 0.00706866 ) 0 
( 0.0123747 -0.00154892 0.00447441 ) 0 
( 0.00180119 -0.00352832 0.00535331 ) 0 
( 0.00129448 -0.00708669 0.00676098 ) 0 
( 0.00362326 -0.00290276 0.00495558 ) 0 
( 0.0103246 -0.0084634 0.00573365 ) 0 
( 0.00493159 -0.00632108 0.00190085 ) 0 
( 0.0132668 -0.0014882 0.00527281 ) 0 
( 0.00217495 -0.00111983 0.00786676 ) 0 
( 2.61413e-05 -0.00149552 0.00321579 ) 0 
( 0.00489412 -0.00622246 0.00653491 ) 0 
( 0.00551116 -0.00505667 0.00504551 ) 0 
( 0.00154884 -0.0124079 0.00538616 ) 0 
( 0.000542379 -0.00259124 0.00545423 ) 0 
( 0.00790182 -0.00820066 0.00641972 ) 0 
( 0.00831922 -0.00467795 0.00185926 ) 0 
( 0.0110193 -0.00309915 0.000499715 ) 0 
( 0.00674872 -0.00750501 0.00483184 ) 0 
( 0.00937972 -0.00640814 0.00579414 ) 0 
( 0.00162308 -0.0050399 0.00287864 ) 0 
( 0.00487562 -0.0115016 0.00483446 ) 0 
( 0.0107544 -0.000747096 0.00654518 ) 0 
( 0.00124933 -0.00973266 0.00642357 ) 0 
( 0.00195839 -0.00385034 0.00745767 ) 0 
( 0.00137894 -0.00737175 0.00778413 ) 0 
( 0.0117785 -0.00628266 0.0024322 ) 0 
( 0.00830168 -0.00726017 0.0060749 ) 0 
( 0.0108266 -0.00621236 0.00705497 ) 0 
( 0.00568317 -0.0120097 0.00533115 ) 0 
( 0.000233107 -0.00276507 0.00674835 ) 0 
( 0.00301175 -0.00269498 0.00782051 ) 0 
( 0.00476284 -0.00648656 0.00070991 ) 0 
( 0.00662422 -0.00888928 0.00406808 ) 0 
( 0.0117125 -0.000568799 0.000699764 ) 0 
( 0.00708987 -0.0112899 0.00778952 ) 0 
( 0.00929076 -0.00443161 0.000499719 ) 0 
( 0.00825656 -0.00729205 0.00217294 ) 0 
( 0.00762879 -0.00894617 0.00249646 ) 0 
( 0.0095874 -0.00929019 0.00250661 ) 0 
( 0.00359485 -0.00188439 0.00611802 ) 0 
( 0.00251207 -0.000806268 0.000499807 ) 0 
( 0.00872436 -0.00170581 0.00249631 ) 0 
( 0.0010283 -0.0113122 0.00378711 ) 0 
( 0.00932069 -0.0033061 0.00739639 ) 0 
( 0.00859561 -0.00549658 0.000499634 ) 0 
( 0.0123922 -0.00496558 0.005658 ) 0 
( 0.00671681 -0.00231959 0.00129747 ) 0 
( 0.00177278 -0.00384646 0.000499603 ) 0 
( 0.00781674 -0.0108224 0.00607625 ) 0 
( 0.00958022 -0.0092975 0.00724298 ) 0 
( 0.000764769 -0.00944207 0.00245702 ) 0 
( 0.000598945 -0.0133368 0.00138072 ) 0 
( 0.00792529 -0.00523323 0.00330274 ) 0 
( 0.00277847 -0.00365162 0.00799337 ) 0 
( 0.00929975 -0.00856483 0.00316631 ) 0 
( 0.000978803 -0.00621313 0.00049976 ) 0 
( 0.00313551 -0.000862714 0.00803963 ) 0 
( 0.0016529 -0.0024907 0.0038525 ) 0 
( 0.00294623 -0.00170948 0.00754273 ) 0 
( 0.00756541 -0.00996782 0.00429669 ) 0 
( 0.00384795 -0.00602093 0.00595675 ) 0 
( 0.0101554 -0.00123893 0.00223541 ) 0 
( 0.00839567 -0.00207435 0.00768705 ) 0 
( 0.0085885 -0.00917129 0.00726287 ) 0 
( 0.0107399 -0.00502537 0.00469808 ) 0 
( 0.00297705 -0.00824329 0.00233608 ) 0 
( 0.00300198 -0.0115907 0.00232753 ) 0 
( 0.00162528 -0.0122946 0.000499728 ) 0 
( 0.0122097 -0.00539839 0.00268465 ) 0 
( 0.00458949 -0.00188559 0.00705067 ) 0 
( 0.00171981 -0.00974356 0.00196764 ) 0 
( 0.00135354 -0.0132589 0.00284481 ) 0 
( 0.0116665 -0.00648603 0.000499711 ) 0 
( 0.000604734 -0.000138449 0.00432882 ) 0 
( 0.010977 -0.00759786 0.00543853 ) 0 
( 0.0020263 -0.00916871 0.00436193 ) 0 
( 0.00617431 -0.00082001 0.0072417 ) 0 
( 0.00650458 -0.0116582 0.00120529 ) 0 
( 0.00386709 -0.00281972 0.00634403 ) 0 
( 0.00618488 -0.0118309 0.00337912 ) 0 
( 0.0109444 -0.00593324 0.00432587 ) 0 
( 0.00199743 -0.000418806 0.0024439 ) 0 
( 0.00758146 -0.00348949 0.00594286 ) 0 
( 0.0122429 -0.00270673 0.00308098 ) 0 
( 0.0108815 -0.00731959 0.00324873 ) 0 
( 0.00571762 -0.003173 0.00754802 ) 0 
( 0.00545877 -0.00219541 0.00439262 ) 0 
( 0.010098 -0.00544893 0.00125743 ) 0 
( 0.00671388 -0.00632873 0.00133889 ) 0 
( 0.00199057 -0.00287056 0.000499784 ) 0 
( 0.000897285 -0.00165815 0.00539759 ) 0 
( 0.00704497 -0.00222059 0.00488029 ) 0 
( 0.00742214 -0.00994008 0.00210698 ) 0 
( 0.00292891 -0.00576996 0.000499738 ) 0 
( 0.00538908 -0.00363946 0.00137749 ) 0 
( 0.00139262 -0.00715602 0.00421688 ) 0 
( 0.00224048 -0.00625438 0.00705247 ) 0 
( 0.00239326 -0.0070728 0.0042186 ) 0 
( 0.0100003 -0.00234666 0.00104334 ) 0 
( 0.00106075 -0.000623561 0.00272793 ) 0 
( 0.00961004 -0.00588192 0.000499703 ) 0 
( 0.000986493 -0.0114274 0.000499806 ) 0 
( 0.00656306 -0.004291 0.00439068 ) 0 
( 0.000343673 -0.00385925 0.00670536 ) 0 
( 0.00799997 -0.00267589 0.00290182 ) 0 
( 0.00874705 -0.00734054 0.00321085 ) 0 
( 0.00404942 -0.00543017 0.00397749 ) 0 
( 0.00797949 -0.00773019 0.00384503 ) 0 
( 0.00570371 -0.00309297 0.00400828 ) 0 
( 0.0101286 -0.00672835 0.00506569 ) 0 
( 0.00281663 -0.00309423 0.00199984 ) 0 
( 0.00520888 -0.0058481 0.00335578 ) 0 
( 0.005554 -0.00239793 0.00693797 ) 0 
( 0.00855409 -0.0102497 0.00571864 ) 0 