/*--------------------------------*- C++ -*----------------------------------*\
| =========                 |                                                 |
| \\      /  F ield         | OpenFOAM: The Open Source CFD Toolbox           |
|  \\    /   O peration     | Version:  2506                                  |
|   \\  /    A nd           | Website:  www.openfoam.com                      |
|    \\/     M anipulation  |                                                 |
\*---------------------------------------------------------------------------*/
FoamFile
{
    version     2.0;
    format      ascii;
    arch        "LSB;label=32;scalar=64";
    class       volScalarField;
    location    "0.003";
    object      p;
}
// * * * * * * * * * * * * * * * * * * * * * * * * * * * * * * * * * * * * * //

dimensions      [0 2 -2 0 0 0 0];

internalField   nonuniform List<scalar> 
512
(
16.296
12.1665
-8.17632
-22.9721
-28.5144
-16.2486
5.45779
22.112
32.3355
37.7209
43.7829
51.8653
58.885
64.3905
70.7888
73.336
70.8091
77.7462
83.8027
79.8369
77.6003
62.2611
46.8932
57.2569
60.2082
46.3696
51.296
67.8456
74.5912
62.5536
40.8467
19.6659
14.1629
11.2013
-8.15504
-25.8468
-25.1038
-10.7446
7.16474
22.9792
35.0541
39.8542
42.2281
51.0499
59.2997
64.4527
70.9998
72.0462
67.3058
73.2034
81.3392
82.8448
82.6935
68.0562
45.599
53.71
57.278
42.2699
47.9417
62.2025
67.2095
64.3525
51.2504
25.7475
13.4172
16.6016
-2.32477
-23.5039
-20.2171
-7.47159
6.94116
23.0451
35.0728
41.6237
47.3436
56.3448
61.3439
63.964
67.6741
64.7089
66.9562
75.9171
81.5592
83.323
82.8634
68.5984
51.3721
54.9662
49.933
33.7636
43.5959
60.1469
64.8312
62.693
48.7604
18.9581
12.6575
20.1402
10.6762
-9.93477
-14.2059
-7.511
6.08208
23.8994
39.7756
48.2284
49.7066
56.2588
59.9289
59.7424
66.1377
69.7867
72.3653
76.9192
80.3809
78.2787
72.7391
61.9242
54.7364
54.6137
47.1857
34.7906
44.4346
61.1861
61.4031
49.8938
36.2287
14.287
14.7404
14.7405
13.4191
5.97729
-1.72729
-0.657403
3.71466
18.4163
39.1423
54.1579
58.0306
51.5046
48.6952
54.9993
64.9867
75.7206
78.8783
76.4709
79.3862
75.4906
64.1024
54.5238
53.7672
56.173
53.0892
46.765
46.8725
47.116
42.8665
42.0436
36.4164
22.4006
7.01202
6.01333
11.4343
11.8365
11.3067
7.58026
2.76191
15.3206
35.3594
48.334
49.3185
46.1878
54.4874
62.5071
64.3496
74.6896
79.9441
75.7329
75.4765
73.82
70.0586
61.0247
57.1625
57.749
59.7798
64.3935
56.4643
30.5954
22.9097
33.9936
38.9766
25.6322
-0.162248
2.23993
14.2083
17.3543
15.3018
9.955
5.31668
15.2176
32.1959
44.6836
45.6547
42.0594
54.0375
65.3526
65.8943
69.5856
71.4263
71.7824
74.5485
77.704
80.0883
74.0522
62.7129
62.5566
70.101
69.0521
51.2644
29.0923
16.6858
24.597
34.1404
23.4566
-4.00447
0.101575
12.6703
15.7677
15.0207
13.78
14.9276
20.2055
29.9614
40.7554
42.694
39.0731
49.5177
63.2512
69.267
71.056
70.7624
72.202
76.3096
80.6628
80.1866
74.6456
73.5196
72.5864
69.0648
64.2727
49.7025
31.7867
22.2212
22.9893
23.7208
14.3023
29.4826
20.5417
-7.95507
-25.9274
-21.6054
-10.8662
5.63215
26.8868
37.6555
37.2845
45.256
55.8575
61.3896
63.5957
64.5467
73.2688
74.6018
66.5298
71.4614
76.9164
83.498
77.2514
59.285
62.2228
58.7243
40.8619
41.8731
60.5838
68.5497
46.0963
24.4402
24.8345
22.3225
8.05838
-12.3983
-26.6538
-16.2546
-2.50309
7.44869
25.8723
37.6644
36.5114
43.9712
56.8282
61.1023
61.5656
67.1891
74.5937
71.4092
61.0083
72.1316
85.227
86.068
72.1119
54.0416
58.4306
58.4377
41.2886
45.7051
62.708
60.0222
42.2688
39.1962
35.8642
17.5364
7.66732
-5.3254
-19.2796
-14.2704
-3.62581
10.2867
27.4694
37.2348
42.0589
48.5264
60.3886
64.475
58.1467
66.7865
74.0501
66.1052
66.5616
75.3207
81.9539
83.7681
71.3444
53.4164
52.583
50.8803
39.3726
46.4275
61.3103
58.6985
46.2423
37.7273
29.4452
18.7396
22.1232
4.91993
-10.8198
-11.2894
-7.07787
9.30228
28.3282
44.3448
54.8831
50.3972
50.1525
54.527
54.6188
66.0454
73.2335
68.7513
75.6812
78.548
73.7737
74.2076
64.8746
51.7495
50.8902
50.4037
39.8714
48.598
61.7642
54.9239
45.6372
33.1619
16.3269
18.8035
19.352
6.67474
-0.311221
-0.214283
1.6404
8.83544
19.279
41.9874
59.249
52.0042
44.7309
47.2058
53.1424
67.6343
75.2371
73.6579
79.2083
78.2562
71.0046
66.8317
56.9238
51.5829
55.4605
54.2717
43.9709
48.2894
50.4973
37.9211
44.1658
43.3874
22.06
13.7559
8.22543
7.15021
10.9998
7.77373
5.12717
7.43723
12.87
33.1822
51.7602
50.3266
41.4275
50.5494
62.1069
68.5899
71.4775
76.2408
81.5675
73.6608
67.3392
66.3049
57.303
62.9051
67.1205
51.2582
50.5695
50.7718
34.1104
32.5421
44.328
44.8177
27.8536
11.3583
8.84072
12.7042
16.268
10.7874
7.16435
11.4663
12.2489
27.06
46.236
45.7659
33.2219
51.0938
70.2864
73.6344
74.151
69.8735
71.0552
70.0029
69.5244
73.7181
70.8032
70.3856
70.6848
56.9804
50.1299
49.2989
34.0611
31.6445
37.5567
32.5101
22.1326
4.80995
7.06242
13.6684
17.6337
18.2855
15.8689
18.4593
18.788
23.898
35.4565
37.7351
31.5365
46.3489
66.322
79.6339
81.775
69.0384
67.9597
73.6015
74.5589
67.9627
74.2725
78.8655
67.1981
57.0533
51.9487
50.0218
37.594
31.8675
33.0078
25.4047
16.2088
)
;

boundaryField
{
    wall
    {
        type            zeroGradient;
    }
    outlet
    {
        type            cyclic;
    }
    inlet
    {
        type            cyclic;
    }
    procBoundary2to1
    {
        type            processor;
        value           nonuniform List<scalar> 
256
(
2.06967
0.708135
-0.919468
-14.4981
-36.4517
-21.8113
4.53419
19.6264
29.179
35.865
42.0611
49.4289
56.357
62.1113
67.3845
71.3607
76.4056
85.9657
89.0516
82.7695
73.8876
49.9437
37.1352
48.3047
56.0641
55.2011
59.2159
68.9558
77.8377
80.0304
62.7591
21.6557
-0.615958
1.7717
2.60014
-12.7415
-34.0622
-18.9938
6.04804
20.5852
30.314
36.8787
42.5907
49.8952
56.6415
61.7449
66.3631
69.9347
74.321
81.8046
86.1413
85.4781
78.4719
55.3303
37.8267
47.2657
54.7111
52.2463
56.4818
66.3979
75.2364
78.5588
62.6494
20.5465
0.54042
5.61955
4.39908
-11.9474
-25.3805
-12.9184
7.45583
21.4408
31.4945
38.7309
44.9914
51.8414
57.3255
61.6272
65.0852
67.2535
72.2403
79.1565
84.8148
87.4514
80.1582
56.712
42.0536
51.6472
54.7199
44.623
50.6517
63.2141
70.2604
72.6621
57.6783
17.3798
5.25875
10.1647
6.13076
-7.82541
-13.9706
-5.52652
8.79455
22.1385
33.3029
41.4881
47.4421
53.429
57.3469
61.32
65.5961
67.0511
71.599
78.5828
86.0411
85.9998
69.4459
52.2532
49.9371
56.6582
54.6527
43.0575
48.3154
58.5175
60.8732
60.2876
46.9576
16.3093
11.3266
9.89248
7.80322
1.21186
-2.51461
1.32023
10.0838
21.6819
33.6435
43.3008
49.1938
51.9028
54.1058
58.9301
65.9786
76.0205
79.3218
75.507
79.6245
77.2977
66.4765
59.9251
55.4486
51.3309
52.8805
55.0921
51.6483
46.9947
44.5453
44.0825
37.0771
21.6751
10.3651
7.64341
8.63293
7.6612
6.71558
7.48343
11.6006
21.1636
32.4079
41.2103
46.367
50.2158
56.7148
61.1637
63.3507
72.7272
76.4128
70.6413
74.5575
80.655
78.4523
70.2649
58.9705
52.5032
61.574
70.9322
59.0984
28.8604
21.329
30.1974
31.8842
21.4222
6.67708
5.64305
10.1487
11.9905
12.2617
11.8869
13.4563
21.0782
30.9509
39.0025
44.2021
48.8493
57.5043
63.1242
61.8357
66.8771
71.7575
71.5378
76.0079
83.3803
87.0084
78.4865
58.8306
58.0757
73.7265
78.6558
58.1824
22.1637
7.21643
17.2913
25.6778
18.2633
-0.184856
1.0265
10.2921
13.0006
13.5424
14.3774
17.135
22.9045
30.2442
37.444
42.5422
46.5552
53.3616
60.2448
64.269
67.993
71.0847
73.4354
78.1419
84.724
87.9272
78.4318
63.0725
67.0231
82.1601
81.2038
53.6173
26.4084
7.1553
5.96602
19.351
17.7246
)
;
    }
    procBoundary2to3
    {
        type            processor;
        value           nonuniform List<scalar> 
256
(
21.9139
11.1351
-8.25761
-16.3202
-10.5117
-9.11222
8.13842
35.2871
46.219
41.9123
48.333
57.052
59.3583
57.7326
57.3884
65.8321
68.7107
63.9554
65.6319
74.2842
84.7251
78.5364
61.4748
61.4855
54.9989
40.8733
45.2925
59.2682
63.1202
45.2187
30.9273
28.3319
18.2369
5.44263
-10.4818
-18.3243
-7.27182
6.58897
15.3
27.4472
38.9076
40.1384
42.8792
56.3148
62.4658
56.1387
56.8482
68.35
70.704
59.7163
67.1239
82.3971
87.0637
70.3967
55.4496
58.9896
56.1987
41.7625
46.5251
61.7552
61.1026
45.1317
36.7074
30.0316
16.5396
4.17725
-4.65491
-13.6968
-6.76913
5.92292
21.0539
36.4362
36.3282
37.3702
45.4964
54.0202
58.1952
59.2001
64.9548
69.8585
71.7374
70.8332
68.7709
74.6117
80.0711
69.4621
49.4726
47.1047
52.3373
48.6461
49.2726
59.7867
58.0813
43.8159
34.48
29.7891
18.9611
13.3763
-0.0180033
-7.97809
-4.13883
5.85383
20.9995
30.8098
37.0241
45.8135
45.8355
45.8546
51.4507
58.9723
70.368
73.1361
65.7901
70.6702
75.0986
72.8527
73.6584
65.0011
47.7153
47.4422
51.8123
45.8032
47.6241
57.7032
58.4177
47.925
34.5961
24.4569
23.0962
15.8447
-1.05741
-2.09039
5.05855
6.72284
13.4533
30.0519
44.4914
46.5211
42.2782
42.9252
48.1375
58.5776
70.0865
68.8433
66.626
78.1997
81.7623
70.7161
64.7964
59.008
53.0733
50.5847
54.2996
53.1591
47.3702
45.5207
39.9356
44.8158
43.0488
27.0806
21.0583
11.8858
2.27161
4.17174
8.81428
9.49433
10.306
26.2273
40.8638
40.7764
39.6988
41.8832
52.775
63.5776
67.9744
69.2797
71.2833
74.5832
72.9455
67.8589
65.6254
59.7935
65.0999
69.8695
54.6532
42.3001
43.3436
47.0852
44.7097
40.7427
35.2025
26.6482
19.1787
11.7278
8.73525
13.0151
11.2271
12.1829
18.404
22.3649
29.8516
35.3216
33.5062
32.0262
53.3596
74.8965
76.2214
75.801
71.9393
65.3967
61.9128
65.314
73.0332
73.7578
69.4346
67.3866
52.2061
40.9524
43.1426
40.8996
44.7375
43.5967
28.4563
22.6704
11.8533
12.1739
17.0883
19.2984
17.9325
16.9508
18.5556
19.2201
22.2579
27.7568
30.1272
27.3165
45.032
68.8025
86.0608
91.4783
74.768
60.8512
63.808
73.9203
72.6839
69.5719
72.747
65.888
48.2162
37.703
44.6383
51.1286
46.9104
34.6159
23.5077
18.623
)
;
    }
}


// ************************************************************************* //
