/*--------------------------------*- C++ -*----------------------------------*\
| =========                 |                                                 |
| \\      /  F ield         | OpenFOAM: The Open Source CFD Toolbox           |
|  \\    /   O peration     | Version:  2506                                  |
|   \\  /    A nd           | Website:  www.openfoam.com                      |
|    \\/     M anipulation  |                                                 |
\*---------------------------------------------------------------------------*/
FoamFile
{
    version     2.0;
    format      ascii;
    arch        "LSB;label=32;scalar=64";
    class       volVectorField;
    location    "0.003";
    object      U_0;
}
// * * * * * * * * * * * * * * * * * * * * * * * * * * * * * * * * * * * * * //

dimensions      [0 1 -1 0 0 0 0];

internalField   nonuniform List<vector> 
512
(
(10.7891 0.000128359 0.000485532)
(10.7897 -4.09601e-05 -0.000857488)
(10.7892 -0.000126209 -0.000956204)
(10.7886 -0.000107381 -0.00160987)
(10.7893 -2.18957e-05 -0.00314405)
(10.791 2.53952e-05 -0.00312344)
(10.7921 1.21091e-05 -0.00164872)
(10.7924 -6.24213e-05 -2.71469e-05)
(10.7916 -5.15471e-05 0.00155569)
(10.7903 6.35339e-05 0.00187811)
(10.7892 7.33682e-05 0.00111849)
(10.7887 2.99971e-05 0.0003887)
(10.7887 1.06561e-06 -0.000574762)
(10.7891 4.99819e-05 -0.00158013)
(10.7901 0.000176852 -0.00236042)
(10.7913 0.000220152 -0.00230861)
(10.7921 0.000162748 -0.00073421)
(10.7914 4.31147e-05 0.00133779)
(10.7899 3.27888e-05 0.0013898)
(10.7893 0.00023058 -0.000438635)
(10.79 0.000321122 -0.00183491)
(10.7914 0.000143143 -0.00148956)
(10.7919 -0.000130437 0.00074173)
(10.7914 -0.00034084 0.00192511)
(10.7911 -0.000384153 0.00197645)
(10.7907 -0.000316679 0.00310758)
(10.7895 -0.000229594 0.00361741)
(10.7885 -8.03766e-05 0.00256215)
(10.7883 6.22717e-05 0.00182824)
(10.7881 0.000109604 0.00198426)
(10.7878 0.000209482 0.00178505)
(10.7881 0.000261984 0.0014612)
(10.8255 0.000249008 0.000123368)
(10.8261 -0.000119122 -0.000732864)
(10.8258 -0.000259545 -0.0009056)
(10.8254 -0.000191699 -0.00182553)
(10.8262 -2.77544e-05 -0.00313532)
(10.8277 0.000129135 -0.00309141)
(10.8288 0.000231342 -0.00180655)
(10.829 0.000118756 -0.00055853)
(10.8285 -9.20817e-05 0.00128843)
(10.8272 -8.50878e-05 0.00236233)
(10.8259 -1.05972e-05 0.00151342)
(10.8254 8.24426e-05 0.00040199)
(10.8254 0.000200952 -0.000900213)
(10.826 0.000195174 -0.00169155)
(10.827 0.000290232 -0.00184441)
(10.828 0.000586184 -0.00189738)
(10.8286 0.000512516 -0.000538206)
(10.828 5.70078e-05 0.00130371)
(10.8268 -1.77351e-05 0.00130425)
(10.8263 0.000372094 0.000305305)
(10.8266 0.000568011 -0.000713845)
(10.8276 0.000311203 -0.00106436)
(10.8281 -0.000159416 0.000295527)
(10.8279 -0.000602804 0.000924447)
(10.8279 -0.000892426 0.00116792)
(10.8276 -0.000951382 0.00276082)
(10.8264 -0.000643599 0.0032602)
(10.8255 -0.000207215 0.00242636)
(10.8252 7.12453e-05 0.00204719)
(10.825 0.000293521 0.00191342)
(10.8247 0.000581161 0.00180509)
(10.8247 0.000599313 0.00141195)
(10.8251 0.000267098 -0.000428761)
(10.8259 -0.000213075 -0.000863155)
(10.8258 -0.000394956 -0.000695604)
(10.8256 -0.000174757 -0.00175909)
(10.8264 8.90875e-05 -0.00320944)
(10.828 0.000311523 -0.00300099)
(10.8289 0.000479779 -0.00121971)
(10.8288 0.000367902 7.56421e-05)
(10.8282 1.30172e-05 0.000976397)
(10.8272 -0.000215138 0.00163298)
(10.8262 -0.000156471 0.00111862)
(10.8257 0.000166316 0.000390728)
(10.8256 0.000404008 -0.00025378)
(10.826 0.000242869 -0.00144941)
(10.8272 0.000294009 -0.00224286)
(10.8283 0.000792973 -0.00114954)
(10.8283 0.000711577 0.000345274)
(10.8277 1.43285e-05 0.00093121)
(10.827 -0.000164023 0.000880462)
(10.8266 0.000235892 0.000502358)
(10.8267 0.000492006 -0.000278254)
(10.8274 0.000291591 -0.000608993)
(10.8278 -0.000227853 0.000676096)
(10.8274 -0.000650847 0.000954226)
(10.8275 -0.000950811 0.000327415)
(10.8277 -0.00107931 0.00115497)
(10.827 -0.000737504 0.00244357)
(10.826 -0.000265596 0.00238131)
(10.8255 1.90139e-05 0.00182135)
(10.8253 0.000355512 0.00193716)
(10.8249 0.000634963 0.00232636)
(10.8245 0.000582837 0.00144405)
(10.8246 0.000246235 -0.000448157)
(10.8254 -0.000212132 -0.00138761)
(10.8258 -0.00040085 -0.00144231)
(10.8259 -8.12015e-06 -0.00195376)
(10.8267 0.000375578 -0.00306117)
(10.8282 0.00046387 -0.00264659)
(10.8289 0.000550447 -0.000813108)
(10.8286 0.000591825 6.58437e-05)
(10.828 0.000296933 0.00084904)
(10.827 -9.56836e-05 0.00140907)
(10.8264 -0.000147775 0.00079585)
(10.826 2.35944e-05 0.000906482)
(10.8255 2.42684e-05 0.000610639)
(10.826 3.33114e-05 -0.00147199)
(10.8276 0.00046971 -0.00234198)
(10.8285 0.000920071 -0.000396869)
(10.8279 0.000742505 0.0010006)
(10.8272 8.89306e-05 0.000450993)
(10.8271 -0.000151848 0.000168367)
(10.827 0.000177689 0.00063089)
(10.8267 0.000308088 0.000559166)
(10.827 -6.30981e-05 0.000127209)
(10.8273 -0.000580187 0.000411954)
(10.8272 -0.000700372 0.000248763)
(10.8275 -0.000568292 -0.000384624)
(10.8278 -0.000548236 0.00045891)
(10.8273 -0.000578093 0.00209908)
(10.8263 -0.000343603 0.00231373)
(10.8258 2.72814e-05 0.00167974)
(10.8256 0.000178986 0.00209798)
(10.8249 0.000174212 0.00257875)
(10.8243 0.000278714 0.00138895)
(10.8245 0.000335817 -0.000609284)
(10.8252 3.46454e-05 -0.00183676)
(10.826 -0.000143552 -0.00188522)
(10.8263 0.000138566 -0.00156136)
(10.8269 0.000525259 -0.00222668)
(10.8282 0.000531728 -0.00241958)
(10.829 0.000581297 -0.000609863)
(10.8286 0.000801817 0.00101219)
(10.8275 0.000600739 0.00125773)
(10.8267 0.000291794 0.000705503)
(10.8263 0.000151113 0.000288343)
(10.8259 -0.000292446 0.000745845)
(10.8256 -0.000669597 5.0091e-05)
(10.8264 -0.000379212 -0.00176226)
(10.8281 0.000355689 -0.00153643)
(10.8286 0.000844349 0.000686469)
(10.8275 0.000774042 0.00156423)
(10.8268 0.000421514 0.00011735)
(10.8271 0.00010546 -0.000306153)
(10.8271 -3.56865e-05 0.00111838)
(10.8265 -0.000217172 0.00114022)
(10.8265 -0.0005632 -0.000187014)
(10.8271 -0.000743658 -0.000440693)
(10.8275 -0.000506776 -0.000142428)
(10.8277 -0.000222934 0.000144014)
(10.8277 -0.000342609 0.00122927)
(10.8272 -0.000706299 0.0019954)
(10.8266 -0.000606626 0.00204738)
(10.826 -5.35718e-05 0.00193505)
(10.8255 0.000107605 0.00163932)
(10.8249 2.1231e-05 0.00122296)
(10.8245 0.000248395 0.000592992)
(10.8244 0.000499421 -0.000299903)
(10.8249 0.000192454 -0.00159404)
(10.8259 5.51455e-05 -0.00203157)
(10.8266 0.000195914 -0.00174522)
(10.8271 0.00039123 -0.00171682)
(10.8282 0.000388298 -0.00193774)
(10.8291 0.000403448 -0.000253339)
(10.8286 0.000612049 0.00174049)
(10.8275 0.000646314 0.00179361)
(10.8266 0.000638861 0.00147309)
(10.8258 0.000488763 0.00117029)
(10.8252 -0.000164054 -7.6491e-05)
(10.8255 -0.000642171 -0.001794)
(10.827 -0.000707578 -0.00261272)
(10.8288 -0.000191564 -0.00129987)
(10.8289 0.000612668 0.00125892)
(10.8275 0.000722199 0.00216756)
(10.8265 0.000585249 0.00097048)
(10.8267 0.000232521 0.000209672)
(10.8267 -0.000502468 0.000977476)
(10.8262 -0.000935284 0.00085228)
(10.8264 -0.00100553 -0.000582151)
(10.8273 -0.000708718 -0.0009081)
(10.8277 -0.000161735 -0.000259011)
(10.8276 -0.000125323 0.000438738)
(10.8273 -0.000608284 0.00120891)
(10.827 -0.00113984 0.00136394)
(10.8269 -0.000838921 0.00117349)
(10.8265 0.000299895 0.00137501)
(10.8256 0.00068093 0.00119979)
(10.825 0.00055026 0.000721621)
(10.8246 0.000625736 0.000586349)
(10.824 0.000544383 -0.00012113)
(10.8247 0.0001648 -0.00182697)
(10.8259 3.7789e-05 -0.00196057)
(10.8266 8.08751e-05 -0.00121641)
(10.827 0.000156337 -0.00149005)
(10.8281 0.000226444 -0.00185776)
(10.8292 0.000125522 -0.000185639)
(10.8288 0.000194849 0.00177356)
(10.8275 0.000464609 0.00193053)
(10.8265 0.00059124 0.00193063)
(10.8255 0.000452924 0.00175387)
(10.8247 0.000115916 0.000129991)
(10.825 -6.41218e-05 -0.0018429)
(10.8268 -0.00011949 -0.00307981)
(10.8294 -9.54182e-05 -0.00162246)
(10.8295 3.63802e-05 0.00118752)
(10.8274 0.000113282 0.00194451)
(10.8262 0.000196045 0.00160732)
(10.826 -8.41721e-05 0.000902438)
(10.8259 -0.000822619 0.00010826)
(10.8259 -0.00114968 -0.000790964)
(10.8267 -0.000864029 -0.00185195)
(10.8279 -0.000337414 -0.00129377)
(10.828 7.48395e-05 0.000276076)
(10.8272 -0.00011706 0.000644675)
(10.8266 -0.000605548 0.00066239)
(10.8269 -0.000959221 0.00153888)
(10.8279 -0.000549177 0.00224745)
(10.8275 0.000475715 0.00138822)
(10.8256 0.000771185 0.000465244)
(10.8248 0.000789526 0.000909588)
(10.8243 0.000862422 0.00112997)
(10.7869 0.000281097 0.000468887)
(10.7876 8.42584e-05 -0.00179543)
(10.789 -2.16613e-05 -0.00221248)
(10.7899 -5.87957e-05 -0.00171057)
(10.7905 9.75013e-06 -0.00168075)
(10.7914 0.000113775 -0.00129178)
(10.7923 1.34459e-05 -1.56362e-05)
(10.7922 -2.03801e-05 0.00130307)
(10.7911 0.000175667 0.00189229)
(10.7898 0.000273316 0.00240434)
(10.7885 0.000190496 0.00211924)
(10.7879 7.77759e-05 0.000208205)
(10.7884 8.83221e-05 -0.00154781)
(10.7902 0.000273199 -0.0023673)
(10.7922 0.000162444 -0.00148606)
(10.7923 -0.000224976 0.000654654)
(10.7909 -0.000215487 0.00162665)
(10.7895 -5.61556e-05 0.00142283)
(10.7888 -0.000173019 0.000387917)
(10.7888 -0.00043927 -0.00117988)
(10.7894 -0.000494466 -0.00206072)
(10.7905 -0.000234861 -0.00191239)
(10.7915 9.0362e-06 -0.000596444)
(10.7912 4.13996e-05 0.000692774)
(10.7902 -8.89798e-05 0.000549222)
(10.7897 -0.000236299 0.000401426)
(10.7903 -0.000271117 0.00164526)
(10.7916 -0.000112986 0.00259054)
(10.791 0.000105951 0.00122578)
(10.7891 0.000190541 -0.000117901)
(10.7883 0.00034961 0.00133703)
(10.7875 0.00045194 0.00234028)
(10.788 2.9622e-05 -0.00111332)
(10.7894 -1.07453e-05 -0.00135205)
(10.7886 -0.000214613 0.00119594)
(10.7867 -0.000315391 -0.000539669)
(10.788 -1.72878e-05 -0.00590086)
(10.7919 4.54983e-05 -0.00593539)
(10.7941 -0.00013392 -0.00170474)
(10.7944 -0.00052307 0.00121671)
(10.7928 -0.000269862 0.00353365)
(10.7898 0.000493765 0.00296023)
(10.7882 0.000411311 0.00116737)
(10.7877 3.26519e-05 0.000815811)
(10.7874 -0.000298542 -0.000400316)
(10.7878 -6.53655e-05 -0.000737093)
(10.7894 0.000597147 -0.00181608)
(10.7924 0.000514724 -0.0046834)
(10.7947 0.000281259 -0.00368473)
(10.7929 5.34322e-06 0.00202767)
(10.7885 -5.58047e-05 0.00311636)
(10.7868 0.000817827 -0.000488395)
(10.7892 0.00121226 -0.00430831)
(10.7933 0.000463573 -0.00647493)
(10.7943 -0.000501003 0.000904411)
(10.792 -0.00113463 0.00492144)
(10.7917 -0.000974979 0.00318018)
(10.7917 -0.000501571 0.00617422)
(10.7889 -0.000464121 0.00615658)
(10.787 -0.000163507 0.00213893)
(10.7877 0.000275741 0.000777182)
(10.7879 6.53698e-05 0.00254923)
(10.787 0.00026729 0.00171631)
(10.7869 0.000411391 0.000320577)
(10.8243 -0.000156306 -0.00140987)
(10.8259 -0.000218871 -0.000921349)
(10.8251 -0.0002358 0.000497956)
(10.8236 -0.000367673 -0.00192088)
(10.8251 -0.000118284 -0.00559904)
(10.8285 0.000179132 -0.00570155)
(10.8303 0.000538952 -0.00161001)
(10.831 0.000184455 0.000591895)
(10.8306 -0.000563871 0.00278136)
(10.8273 -0.000252966 0.00372002)
(10.8245 1.06365e-05 0.00179852)
(10.8237 5.5182e-05 0.000809296)
(10.824 0.000422058 -0.000826069)
(10.8255 0.000258703 -0.00118383)
(10.8267 0.000305297 -0.0015819)
(10.8288 0.00143211 -0.00334702)
(10.8309 0.00131687 -0.00271491)
(10.8293 -0.000308379 0.000786834)
(10.826 -0.000456173 0.00191806)
(10.8248 0.00108004 0.00104319)
(10.8256 0.0017339 -0.00082114)
(10.8283 0.000952014 -0.00326324)
(10.8295 -0.00018659 -0.00015173)
(10.8283 -0.00127272 0.00203529)
(10.8291 -0.00205882 0.002203)
(10.829 -0.00236526 0.0046316)
(10.826 -0.00145612 0.00413811)
(10.8245 -0.000254684 0.00215644)
(10.8247 0.00012609 0.00265904)
(10.8246 0.00030023 0.00204269)
(10.8241 0.00114811 0.00144452)
(10.8234 0.000940868 0.00131622)
(10.8236 7.16541e-05 -0.0033876)
(10.8261 -0.000751576 -0.00125007)
(10.8253 -0.000928561 0.00202028)
(10.8236 -0.000334246 -0.00134952)
(10.8253 6.36081e-05 -0.00541578)
(10.8293 0.000577678 -0.00495329)
(10.8309 0.00120615 -0.00113261)
(10.8301 0.000813895 0.000989376)
(10.8292 -0.000358873 0.00110613)
(10.8272 -0.000959994 0.00226578)
(10.8253 -0.000723723 0.00144881)
(10.8249 0.000574372 0.0008972)
(10.8244 0.0016478 0.00101097)
(10.8245 0.000373608 -0.00114033)
(10.8274 -0.000260708 -0.00249103)
(10.8302 0.00187149 -0.00119562)
(10.8297 0.00186968 -0.000891877)
(10.8279 -0.00072781 -0.000212792)
(10.8266 -0.00110153 0.000742303)
(10.8257 0.00043205 0.000893134)
(10.8258 0.00141293 0.000473944)
(10.8281 0.00121212 -0.00115356)
(10.8289 -7.5347e-05 0.000644731)
(10.8269 -0.00104982 0.0009457)
(10.8274 -0.00203304 -0.000576414)
(10.8291 -0.00279265 0.000850363)
(10.8278 -0.00150917 0.00316476)
(10.8253 -0.000217703 0.00462977)
(10.8251 -0.000218007 0.00359671)
(10.8257 0.000598506 5.35627e-05)
(10.8245 0.00144791 0.00218045)
(10.8224 0.000855545 0.00221884)
(10.8227 0.000300437 -0.0017765)
(10.8249 -0.000963943 -0.00297504)
(10.8255 -0.00141209 -0.00154676)
(10.8246 0.000106188 -0.00244471)
(10.826 0.00108406 -0.00489238)
(10.8297 0.000798795 -0.00340215)
(10.8306 0.000897761 -0.000643845)
(10.8295 0.00123492 5.58644e-05)
(10.8288 0.000476776 0.00167759)
(10.8269 -0.000862744 0.00233543)
(10.8261 -0.000817979 0.000314456)
(10.8261 0.000372316 0.00191168)
(10.8239 0.000326912 0.00310143)
(10.8236 -0.000234919 -0.00146503)
(10.8283 0.000961638 -0.00336919)
(10.831 0.00225107 -0.000289524)
(10.8284 0.00159012 0.000404354)
(10.8264 -0.000653833 -0.0011302)
(10.8272 -0.00115331 -0.00166424)
(10.8273 0.000663366 0.000368759)
(10.8264 0.00144225 0.00149468)
(10.8268 0.000293461 0.000714712)
(10.8272 -0.00143278 0.00189153)
(10.8264 -0.00149615 0.000135529)
(10.8274 -0.000586487 -0.00202589)
(10.8296 -0.000324253 -6.32966e-05)
(10.8286 -0.000789819 0.00198938)
(10.8258 -0.000484549 0.00379203)
(10.8256 0.000239511 0.00285751)
(10.8263 5.7943e-05 0.00228216)
(10.8244 -0.000582914 0.00452833)
(10.8221 -0.000212543 0.00243752)
(10.8228 0.00055688 -0.00153663)
(10.8244 -8.61191e-05 -0.00297783)
(10.8263 -0.000634554 -0.00153147)
(10.8261 0.000237622 -0.00194057)
(10.826 0.00152782 -0.00347426)
(10.8291 0.000970056 -0.00312576)
(10.8313 0.000880506 -0.000719444)
(10.8297 0.00204777 0.000604951)
(10.8271 0.00125712 0.00118503)
(10.8259 0.000261858 0.000750889)
(10.8265 0.000468302 0.000948622)
(10.826 -0.0010401 0.00316138)
(10.8238 -0.00256401 0.00192508)
(10.8251 -0.00121021 -0.00202526)
(10.8299 0.00121393 -0.00222541)
(10.8308 0.00202895 0.00138815)
(10.8268 0.00154051 0.00128213)
(10.8252 0.000746818 -0.00226472)
(10.828 0.000104748 -0.00194863)
(10.8283 0.000283121 0.00173909)
(10.8255 0.000108794 0.0022676)
(10.8253 -0.00102937 0.000682002)
(10.8271 -0.00171143 0.000649579)
(10.8278 -0.00086018 -0.000680222)
(10.8286 0.000514092 -0.000821286)
(10.8289 0.000389197 0.00129849)
(10.8276 -0.00115173 0.00270501)
(10.8264 -0.00139379 0.00386428)
(10.8256 -0.000204002 0.00265578)
(10.8249 -0.000558403 0.00125449)
(10.8242 -0.00142157 0.000757798)
(10.8233 -0.000294262 0.00037464)
(10.8229 0.000888568 -0.000371702)
(10.8238 0.00019702 -0.00270901)
(10.8259 -1.43308e-05 -0.00172358)
(10.8268 0.000432091 -0.000658724)
(10.8268 0.000907036 -0.00200997)
(10.829 0.00077943 -0.00259932)
(10.8317 0.000680712 6.76141e-05)
(10.8299 0.00108224 0.00171586)
(10.827 0.00100618 0.00157693)
(10.8261 0.00152137 0.00257284)
(10.8248 0.00165728 0.00280151)
(10.8231 -0.000636942 1.39302e-05)
(10.8237 -0.00206818 -0.0025851)
(10.8274 -0.00148228 -0.00340707)
(10.8315 -6.84976e-05 -0.0024824)
(10.8313 0.000753408 0.00139206)
(10.8271 0.000683243 0.00330261)
(10.8249 0.00171312 0.00126248)
(10.8268 0.00124792 -0.000140739)
(10.8273 -0.00123151 0.00228721)
(10.8251 -0.00233591 0.00274083)
(10.825 -0.00212138 -0.000279949)
(10.8274 -0.0012345 -0.00144366)
(10.8286 0.000165911 -0.00236262)
(10.8286 0.000238862 -0.000590228)
(10.8279 -0.00100123 0.00285555)
(10.8268 -0.00106764 0.0034397)
(10.8267 -0.000191467 0.00218886)
(10.8264 -0.000329197 0.000471226)
(10.8251 -0.000629217 -0.000845705)
(10.8247 0.000238229 -0.00112139)
(10.8241 0.00106487 0.000451215)
(10.8219 0.00111417 -0.000156237)
(10.8234 -3.95434e-05 -0.00462465)
(10.8265 -0.000118059 -0.00328796)
(10.8269 9.32071e-05 0.00072606)
(10.8263 0.000131747 0.000680808)
(10.8289 0.000775419 -0.00114364)
(10.8316 0.00037265 -0.000546282)
(10.83 -0.00025899 0.00115067)
(10.8275 0.000344428 0.00117692)
(10.8265 0.00119389 0.00275966)
(10.8243 0.00114081 0.00420696)
(10.8222 0.000339381 0.00070831)
(10.8229 0.000209317 -0.00388917)
(10.8271 0.000196101 -0.0064392)
(10.832 -0.000188725 -0.00202958)
(10.8315 -0.000532068 0.00272098)
(10.8277 -0.000435485 0.00235914)
(10.8257 0.000537708 0.00310918)
(10.825 0.000121253 0.00220235)
(10.8247 -0.00245988 0.00071134)
(10.8245 -0.00335069 -0.001398)
(10.8263 -0.00172152 -0.00371529)
(10.8293 6.4236e-05 -0.00208796)
(10.8292 0.000814062 -0.000322789)
(10.8274 -9.81054e-05 -0.00056731)
(10.8276 -0.00125953 0.00172913)
(10.8284 -0.000632741 0.00495307)
(10.8271 0.000733601 0.00439917)
(10.8251 0.000361693 -0.000133812)
(10.8254 -0.000371197 -0.00231586)
(10.8258 0.00127241 0.00049804)
(10.8239 0.00226497 0.00241574)
(10.7839 0.000739463 0.000817591)
(10.7857 9.76781e-05 -0.00457564)
(10.7892 -0.000234424 -0.00406179)
(10.7903 -0.000488019 -0.000353726)
(10.7907 -0.000166624 0.000129577)
(10.7925 0.000610527 -0.000656126)
(10.7938 0.000207839 -0.000118932)
(10.7931 -0.000422221 0.000351276)
(10.7917 5.33445e-05 7.44364e-05)
(10.7902 0.00058461 0.00331726)
(10.7871 0.000448755 0.0049922)
(10.7854 0.000115137 0.000248589)
(10.7868 0.000313556 -0.00294486)
(10.7902 0.000750422 -0.00282966)
(10.794 0.00016298 -0.0010372)
(10.7943 -0.000552795 0.000591133)
(10.7914 -0.000334126 0.00133603)
(10.7887 -0.000188753 0.00249495)
(10.787 -0.000571982 0.000117626)
(10.7871 -0.00143764 -0.00273974)
(10.789 -0.00145448 -0.00234025)
(10.7916 -0.000198241 -0.00249376)
(10.7932 0.00062757 -0.00160549)
(10.7916 0.000373211 -0.000260559)
(10.7898 -0.000185893 -0.000737886)
(10.7906 -0.000474432 0.000711145)
(10.792 -0.000444757 0.00304598)
(10.7909 -0.000110173 0.00335831)
(10.7885 0.000178529 0.00114645)
(10.7892 6.5553e-06 -0.00153411)
(10.7905 0.000763581 0.00308674)
(10.7871 0.00144399 0.00623277)
)
;

boundaryField
{
    wall
    {
        type            fixedValue;
        value           uniform (0 0 0);
    }
    outlet
    {
        type            cyclic;
    }
    inlet
    {
        type            cyclic;
    }
    procBoundary2to1
    {
        type            processor;
        value           nonuniform List<vector> 
256
(
(17.9633 0.00039394 0.00163694)
(17.9639 -0.000134574 -0.000631223)
(17.9668 -0.000265116 -0.00148213)
(17.9663 -0.000100502 -0.0015755)
(17.967 -2.91731e-05 -0.0019368)
(17.9679 9.6139e-06 -0.00179391)
(17.9686 2.16017e-05 -0.00107688)
(17.9688 7.84364e-06 -0.000193039)
(17.9685 -8.87644e-07 0.000603329)
(17.9678 1.22072e-05 0.00089446)
(17.9673 1.85405e-05 0.000644407)
(17.967 2.06667e-05 0.000185814)
(17.9669 2.68733e-05 -0.000384355)
(17.9672 4.44132e-05 -0.000906797)
(17.9677 7.83523e-05 -0.00119802)
(17.9683 0.000100475 -0.00105482)
(17.9686 8.37241e-05 -0.000374763)
(17.9684 4.07696e-05 0.000384767)
(17.9678 3.19649e-05 0.000470567)
(17.9676 7.39855e-05 -6.76568e-05)
(17.9678 9.00378e-05 -0.000525365)
(17.9683 3.57787e-05 -0.000382258)
(17.9685 -5.41507e-05 0.000380033)
(17.9684 -0.000131498 0.000991152)
(17.9681 -0.0001641 0.00134802)
(17.9677 -0.000151072 0.00187424)
(17.967 -0.000101834 0.0021455)
(17.9663 -2.36683e-05 0.00194435)
(17.9659 5.98705e-05 0.00177029)
(17.9655 0.000139616 0.00184841)
(17.9651 0.000250687 0.00196564)
(17.9657 0.000464116 0.00220097)
(18.0076 0.000760671 0.00117996)
(18.0081 -0.000212443 -0.00076639)
(18.0081 -0.000496341 -0.00150742)
(18.0079 -0.000219197 -0.00160363)
(18.0084 -5.59758e-05 -0.00192421)
(18.0093 5.2798e-05 -0.00176605)
(18.0099 0.000107501 -0.00107757)
(18.0101 8.19219e-05 -0.000268683)
(18.0098 1.63574e-05 0.000543363)
(18.0092 -4.75374e-06 0.000950295)
(18.0086 1.25725e-05 0.000708076)
(18.0083 5.42896e-05 0.000201691)
(18.0083 0.000101009 -0.000404286)
(18.0086 0.000126474 -0.000887391)
(18.0091 0.000184921 -0.00106474)
(18.0097 0.000270128 -0.000886789)
(18.0099 0.000237034 -0.000257526)
(18.0096 9.82483e-05 0.000399518)
(18.0092 5.55638e-05 0.000483008)
(18.009 0.000139415 0.000137202)
(18.0091 0.000175325 -0.000228348)
(18.0094 6.93496e-05 -0.000241139)
(18.0096 -0.000120847 0.00028227)
(18.0096 -0.000299437 0.000713506)
(18.0094 -0.000406939 0.00104055)
(18.0091 -0.000409233 0.00162571)
(18.0085 -0.000276999 0.00195098)
(18.0078 -6.9675e-05 0.0018418)
(18.0074 0.000136082 0.00173243)
(18.007 0.000350689 0.00175649)
(18.0067 0.000610347 0.00184823)
(18.0072 0.000961523 0.00199761)
(18.0079 0.000643165 0.000518207)
(18.0083 -9.68267e-05 -0.000665361)
(18.0082 -0.000391852 -0.00119933)
(18.0081 -0.000206017 -0.00151551)
(18.0087 -1.05462e-05 -0.00186825)
(18.0094 0.000132494 -0.00166247)
(18.01 0.000213091 -0.000890881)
(18.01 0.000189835 -0.000125039)
(18.0097 8.02746e-05 0.000478518)
(18.0092 -6.84195e-06 0.000788941)
(18.0087 -6.14689e-06 0.000610877)
(18.0084 6.98793e-05 0.000229761)
(18.0084 0.000137632 -0.000243079)
(18.0087 0.000153388 -0.000792755)
(18.0093 0.000234428 -0.00101969)
(18.0097 0.000373442 -0.000608282)
(18.0098 0.000332203 1.28426e-05)
(18.0096 0.00012371 0.000366437)
(18.0093 3.42609e-05 0.000405292)
(18.0091 0.00010638 0.000251359)
(18.0091 0.000140003 -2.27567e-06)
(18.0093 2.20024e-05 -6.33475e-05)
(18.0095 -0.00019328 0.000309487)
(18.0094 -0.000374141 0.00055005)
(18.0094 -0.00048049 0.000653763)
(18.0092 -0.000491444 0.00110327)
(18.0087 -0.000347309 0.00159638)
(18.0081 -0.000105078 0.00168408)
(18.0077 0.000148511 0.00159198)
(18.0073 0.000414725 0.00163741)
(18.0071 0.000674371 0.00170659)
(18.0072 0.000878538 0.00144943)
(18.0076 0.000480931 0.000112076)
(18.008 9.66524e-06 -0.00075191)
(18.0082 -0.000222476 -0.00117682)
(18.0084 -9.15458e-05 -0.00145363)
(18.0089 0.000101293 -0.00172454)
(18.0096 0.000217273 -0.00147314)
(18.01 0.000287983 -0.000685345)
(18.01 0.000298739 -1.42982e-06)
(18.0096 0.000196293 0.000483508)
(18.0091 6.35293e-05 0.000693984)
(18.0087 1.16191e-05 0.000518613)
(18.0085 1.78991e-05 0.000318546)
(18.0084 2.30377e-05 -7.41672e-05)
(18.0087 7.79242e-05 -0.000745173)
(18.0094 0.000253764 -0.000918201)
(18.0098 0.000417321 -0.000287059)
(18.0097 0.000370437 0.000278436)
(18.0094 0.000160225 0.000311023)
(18.0092 3.30983e-05 0.00026692)
(18.0091 4.73375e-05 0.00033105)
(18.0091 2.37711e-05 0.000243319)
(18.0092 -0.000128519 9.8333e-05)
(18.0093 -0.000315985 0.000197809)
(18.0093 -0.000399503 0.000283998)
(18.0093 -0.000403085 0.000347028)
(18.0093 -0.000398026 0.000781495)
(18.0089 -0.00034219 0.00134528)
(18.0084 -0.000150616 0.00152434)
(18.0079 0.000125984 0.00145357)
(18.0076 0.000355838 0.00150954)
(18.0073 0.000520241 0.00149505)
(18.0072 0.000638527 0.00101144)
(18.0074 0.00040862 -0.000134996)
(18.0078 0.000120306 -0.000877617)
(18.0082 -4.61121e-05 -0.0012105)
(18.0085 2.98993e-05 -0.00129902)
(18.009 0.000183481 -0.00143818)
(18.0097 0.00026126 -0.00126158)
(18.0101 0.000319778 -0.000472886)
(18.01 0.000373991 0.000311944)
(18.0095 0.000312554 0.000648609)
(18.009 0.000197837 0.000613867)
(18.0086 9.52059e-05 0.000414935)
(18.0084 -5.7165e-05 0.000216911)
(18.0084 -0.000160724 -0.000259621)
(18.0089 -7.21114e-05 -0.000835889)
(18.0096 0.000173842 -0.000699923)
(18.0099 0.000374523 0.000100524)
(18.0096 0.000373013 0.00055883)
(18.0092 0.000227405 0.000337494)
(18.0091 6.31858e-05 0.00020703)
(18.0091 -6.32829e-05 0.000422267)
(18.0089 -0.00018432 0.000346133)
(18.009 -0.000320009 -7.70769e-06)
(18.0092 -0.000392362 -6.84879e-05)
(18.0093 -0.000351714 0.000101009)
(18.0094 -0.000308909 0.000349216)
(18.0093 -0.00036048 0.000799107)
(18.009 -0.00041706 0.001182)
(18.0086 -0.000254117 0.00132629)
(18.0082 0.00010129 0.00134688)
(18.0077 0.000339803 0.00126264)
(18.0074 0.000435576 0.0010382)
(18.0072 0.000508345 0.000594049)
(18.0073 0.000400403 -0.000144383)
(18.0076 0.000187228 -0.000857662)
(18.0081 6.10243e-05 -0.0012078)
(18.0086 8.6593e-05 -0.00123153)
(18.0091 0.000170941 -0.00121679)
(18.0097 0.000217694 -0.00104178)
(18.0101 0.000256172 -0.000262583)
(18.01 0.000321084 0.000610146)
(18.0095 0.000333387 0.000909736)
(18.0089 0.000296229 0.000856914)
(18.0085 0.000191766 0.000593667)
(18.0082 -2.10878e-05 8.23638e-06)
(18.0084 -0.00017548 -0.000731066)
(18.0091 -0.000165998 -0.00114675)
(18.0098 2.02251e-05 -0.000673972)
(18.01 0.000251394 0.000369929)
(18.0095 0.000302921 0.000863908)
(18.0091 0.000223142 0.000609232)
(18.0089 4.10099e-05 0.000336984)
(18.0089 -0.000222887 0.000343201)
(18.0088 -0.000404888 0.000151019)
(18.0089 -0.00045645 -0.000269429)
(18.0093 -0.000381973 -0.000305917)
(18.0094 -0.000252064 2.66676e-05)
(18.0093 -0.000261803 0.000376916)
(18.0091 -0.000434354 0.000702491)
(18.009 -0.000611141 0.000870819)
(18.0089 -0.000392368 0.000979069)
(18.0085 0.000218373 0.00116879)
(18.0079 0.000544895 0.00112404)
(18.0075 0.000551387 0.000844111)
(18.0072 0.000528078 0.000488256)
(18.007 0.000343454 -6.40658e-05)
(18.0074 0.000163156 -0.000867921)
(18.008 6.53392e-05 -0.00117757)
(18.0086 6.05113e-05 -0.00110808)
(18.0091 9.75845e-05 -0.00109798)
(18.0097 0.000131638 -0.000972703)
(18.0101 0.000135757 -0.000209997)
(18.01 0.000176021 0.000748687)
(18.0094 0.000243091 0.0011135)
(18.0088 0.000259389 0.00109667)
(18.0083 0.000188383 0.000801842)
(18.008 5.33556e-05 2.83323e-05)
(18.0082 -3.568e-05 -0.000875207)
(18.009 -4.64584e-05 -0.00152861)
(18.01 6.10093e-07 -0.000945468)
(18.0101 7.12138e-05 0.000584689)
(18.0095 0.000103057 0.00113674)
(18.0089 8.32423e-05 0.000824113)
(18.0086 -5.83474e-05 0.000432503)
(18.0086 -0.000301797 2.62961e-05)
(18.0086 -0.000435423 -0.000394526)
(18.009 -0.000388696 -0.000776985)
(18.0094 -0.000246845 -0.000543443)
(18.0094 -0.000137938 0.000155773)
(18.0091 -0.000209607 0.000463751)
(18.0088 -0.000452581 0.000503036)
(18.009 -0.000917504 0.000408023)
(18.0094 -0.000686848 0.000668593)
(18.0091 0.000509524 0.0014021)
(18.008 0.000946443 0.00141265)
(18.0073 0.000655497 0.00099375)
(18.0071 0.000507464 0.000645982)
(17.9656 0.00014779 0.000105176)
(17.966 6.76239e-05 -0.000840556)
(17.9667 2.0084e-05 -0.00121999)
(17.9673 8.02068e-06 -0.00117576)
(17.9678 2.50874e-05 -0.0011011)
(17.9684 4.7235e-05 -0.000880002)
(17.9688 3.8573e-05 -0.000224371)
(17.9687 4.59659e-05 0.000688468)
(17.9682 8.90122e-05 0.00123674)
(17.9675 0.000107588 0.00131685)
(17.9669 8.00047e-05 0.000952823)
(17.9666 3.56032e-05 8.66741e-05)
(17.9669 1.95119e-05 -0.000794214)
(17.9677 4.08141e-05 -0.0012635)
(17.9686 2.82985e-05 -0.000793597)
(17.9687 -1.91972e-05 0.000349113)
(17.9682 -1.83758e-05 0.000909334)
(17.9676 -6.48588e-06 0.000762416)
(17.9672 -5.86444e-05 0.000280171)
(17.9671 -0.000148614 -0.000356579)
(17.9673 -0.000183897 -0.000812191)
(17.9678 -0.000135258 -0.000938753)
(17.9681 -6.77843e-05 -0.000476022)
(17.9681 -4.42648e-05 0.000251784)
(17.9676 -9.13074e-05 0.00045713)
(17.9671 -0.000214074 0.000430955)
(17.9674 -0.000553462 0.000519902)
(17.9624 -0.00045618 0.000861544)
(17.9613 0.000338269 0.00126835)
(17.9657 0.000589111 0.00116094)
(17.9657 0.000334058 0.001072)
(17.9656 0.000230391 0.000924862)
)
;
    }
    procBoundary2to3
    {
        type            processor;
        value           nonuniform List<vector> 
256
(
(17.9581 -0.000167589 -0.000502809)
(17.9562 0.00038852 0.000669856)
(17.9408 -0.00082578 0.00663623)
(17.9524 -0.00148837 -0.00194575)
(17.9614 0.000286085 -0.0142666)
(17.966 0.000267263 -0.011125)
(17.9675 0.000109989 4.41127e-05)
(17.9659 -0.000689424 0.00396342)
(17.9608 -0.000806659 0.0077165)
(17.9619 0.000818932 0.00201907)
(17.9644 0.000702048 -0.00184106)
(17.9645 2.15582e-05 0.0020516)
(17.9646 -0.000424873 0.000722734)
(17.9591 -0.000394884 0.00272118)
(17.9576 0.000409237 -0.000733796)
(17.9653 0.00156446 -0.0121184)
(17.9694 0.0011366 -0.0103778)
(17.9664 -0.00119783 0.00786714)
(17.9598 -0.00116929 0.00924993)
(17.9554 0.00176231 -0.000714104)
(17.9521 0.00380938 -0.00977411)
(17.9616 0.00336135 -0.0236105)
(17.9681 -0.0011845 0.00561547)
(17.9582 -0.00322943 0.016633)
(17.9567 -0.00136973 0.000249143)
(17.9594 -0.00186416 0.0118871)
(17.9577 -0.0022569 0.0117555)
(17.9606 -6.63994e-05 -0.000651063)
(17.9596 0.00194038 -0.002463)
(17.9549 -0.000398766 0.00579144)
(17.958 -6.57479e-05 -0.000323415)
(17.9625 0.00125566 -0.00155368)
(18.0051 -0.00202545 -0.00373734)
(18.0049 -1.51041e-05 -0.000145252)
(18.0018 0.000562137 0.00228239)
(18.0013 -0.00100351 -0.00411614)
(18.0044 0.000463133 -0.0115397)
(18.0135 0.0011172 -0.0113438)
(18.0097 0.000807899 0.00381709)
(18 -0.000110556 0.00304494)
(17.9971 -0.0025203 0.00430938)
(18 -0.000786014 0.00810184)
(17.9968 0.000268362 0.00239258)
(17.9954 0.000162512 0.00161753)
(17.9976 0.00161132 0.000396785)
(17.981 -0.000207128 0.000961122)
(17.9905 -0.000382229 -0.00185767)
(17.9926 0.00407793 -0.00812941)
(17.9988 0.00330853 -0.00858762)
(17.9986 -0.0021825 0.000325972)
(18.0009 -0.00239598 0.00192429)
(17.9997 0.00175425 0.00382552)
(17.9985 0.00534924 0.00242916)
(18.0022 0.00563511 -0.0094675)
(18.0073 -0.000409126 -0.00157998)
(18.0041 -0.00458458 0.00537391)
(17.9962 -0.00465485 0.00303526)
(18.0029 -0.006282 0.00801239)
(18.0047 -0.00364267 0.00355287)
(18.0051 0.00227837 -0.00147518)
(17.9988 0.00288741 0.00703717)
(17.9976 -0.00220441 0.0020724)
(18.0037 0.00104253 -0.00188007)
(18.0016 0.00249497 0.0033416)
(17.9953 -0.000102011 -0.0153978)
(17.9973 -0.00226443 -0.00171465)
(18.0001 -0.00243949 0.0130444)
(17.9978 -0.000698188 1.97204e-05)
(18.0025 0.000795287 -0.0108166)
(18.0061 0.00260695 -0.00944383)
(18.0086 0.00144988 -0.000658172)
(18.0096 -0.000166754 0.00614836)
(17.9999 -0.00109188 -0.000531322)
(17.9999 -0.00159938 0.000668092)
(18.0055 -0.00164115 0.00202796)
(17.9991 0.00127287 0.00366045)
(17.9892 0.00432324 0.00603256)
(17.9891 -3.55733e-05 -0.00141873)
(17.9938 -0.00148906 -0.00509539)