FoamFile
{version 2.0; format ascii;class vectorField; location 0;object  v;}
2497
(
( 0.00185222 -0.000831412 0.00535751 )  
( 0.00483522 -0.00344036 0.00428923 )  
( 0.000550062 0.00035778 -9.66924e-05 )  
( -0.00135855 2.92255e-05 0.00556251 )  
( -0.000404173 0.00101443 0.00661572 )  
( -4.2522e-05 -0.000373982 0.00391925 )  
( 0.000822894 -0.00164115 0.00669174 )  
( 0.00130056 0.00101772 0.00749361 )  
( 6.06569e-05 -6.82243e-06 -8.3919e-05 )  
( -0.000116111 -0.000863799 0.00690734 )  
( 0.000387533 -0.00166077 0.00346476 )  
( -0.000196521 -8.49895e-05 -0.000132293 )  
( -0.000507109 0.000914315 0.00384634 )  
( 0.00147744 -0.000466198 0.00549729 )  
( -0.000545605 0.000118762 0.00569652 )  
( 0.000215462 -0.00188059 0.00565219 )  
( 0.000389021 -0.00217205 0.006326 )  
( -0.000216137 0.000307838 0.006286 )  
( 0.00322015 0.00267607 0.00957564 )  
( -0.000289871 -0.00045282 0.00644621 )  
( 0.0010125 -0.000299434 0.00686104 )  
( -0.000180951 3.85228e-06 -2.9403e-05 )  
( 0.000480174 -0.000250442 0.00295344 )  
( -0.000629967 0.000605496 0.00664336 )  
( -0.00047193 -0.000273146 0.00567174 )  
( 0.000427547 -0.000461636 0.00580529 )  
( -0.00198369 -0.00223225 -0.00245167 )  
( 0.000223083 -0.00062457 -0.000178126 )  
( -0.000528384 -8.43039e-05 -1.59284e-05 )  
( -0.000995095 0.000784602 0.0071908 )  
( -0.000272139 -0.000736332 1.56435e-05 )  
( 0.000725139 -0.000150569 0.00542299 )  
( 0.000492871 0.000440547 0.00616954 )  
( 0.000311822 0.000327946 0.00489846 )  
( -0.00218637 -0.000629779 0.000253414 )  
( -0.000507592 -5.75944e-05 0.005464 )  
( 0.00112498 -0.0013032 -0.000878729 )  
( 0.000518038 -0.000213403 0.00361545 )  
( -0.00195858 -0.00334419 0.00635033 )  
( 0.00198275 -0.00188359 -0.00145841 )  
( -0.00103985 0.000816159 -0.000761164 )  
( -0.00041426 0.000375352 0.00537365 )  
( -0.00225283 0.000448734 0.0113041 )  
( -0.000121868 0.00109303 0.00646658 )  
( 0.000253716 0.000227208 0.00496521 )  
( 0.00107541 -3.66023e-05 0.00590605 )  
( -0.000516717 -0.000465616 0.00399515 )  
( -0.00174524 -0.00217539 0.00702032 )  
( -0.00239026 -0.0024177 0.00344259 )  
( 0.000287436 0.000234822 0.00577143 )  
( 0.000487354 0.000421543 0.00581193 )  
( -0.000590183 -0.00241485 0.0079784 )  
( -0.00165056 -3.21032e-05 0.00508224 )  
( 4.5785e-05 0.000869983 0.00591756 )  
( 0.000973607 0.000858551 0.0058815 )  
( 0.00378098 0.000108509 0.00817462 )  
( 0.0021241 -0.000565501 0.0124242 )  
( 0.00129393 -0.000355328 0.00583116 )  
( -0.00048931 0.000184948 0.000260163 )  
( -0.000566481 -0.00107596 1.05135e-08 )  
( -0.000779676 -0.000580196 0.00585916 )  
( 0.00186192 -0.000397977 0.00460196 )  
( 0.00108329 0.00164749 0.00963645 )  
( 0.000932293 0.000295586 0.00607919 )  
( 1.22192e-05 0.000458024 0.00551864 )  
( 8.98916e-05 0.000469897 -0.000104913 )  
( -0.000145308 -0.000448238 0.00547746 )  
( -0.000227016 -0.000315794 -5.37461e-05 )  
( 0.00153284 -0.000510928 0.0056208 )  
( 0.0011833 0.00051509 0.00601233 )  
( 0.000211614 -0.000427484 0.00520416 )  
( -0.00017661 0.00164077 0.000699488 )  
( 0.000540013 0.000206033 0.00591493 )  
( -0.00227991 0.00139682 0.00706624 )  
( -0.0030227 0.00332065 -0.000162202 )  
( -0.00121279 0.000842655 -2.90972e-07 )  
( -0.000562199 -0.00261098 0.0153729 )  
( 0.000901123 -0.000347258 0.00640304 )  
( -0.000658399 -0.00542337 0.0138838 )  
( 0.00113744 -1.68678e-05 -1.67729e-05 )  
( -0.000682554 0.0009529 0.00748939 )  
( 8.42025e-05 8.82642e-05 -0.000105348 )  
( -0.000272868 0.000483129 -0.00030653 )  
( -0.000289905 -9.33477e-05 0.00575319 )  
( 0.00116437 -0.000667129 -0.000570658 )  
( 0.000455413 -0.000177341 0.00673835 )  
( 0.000865973 5.99953e-05 0.00549212 )  
( -0.00167944 -0.00415262 0.0104407 )  
( -0.000110489 1.10616e-05 0.00569153 )  
( -0.000903165 -0.00126191 0.00645185 )  
( 0.00102523 -0.000356035 0.0085705 )  
( -0.000635644 -0.000856704 0.00883066 )  
( 0.00104707 0.000318513 0.00504529 )  
( 0.000463425 0.0003137 0.00705478 )  
( -0.000322049 -0.000102478 -0.000162463 )  
( -0.00125773 -0.000389487 0.00407642 )  
( -0.00186805 -0.00317027 -0.0043989 )  
( -0.000477415 0.000675816 0.00547002 )  
( -0.00113348 -0.00168159 0.00554047 )  
( -0.000277347 0.000187731 0.00587834 )  
( 0.000151692 -6.61092e-05 0.00741449 )  
( 0.00017519 5.92238e-05 0.00453411 )  
( -0.000196989 0.000105357 -0.000980812 )  
( 0.000386415 -0.00126632 0.0059094 )  
( -0.00023111 -0.000198487 3.44498e-05 )  
( 0.000325139 0.000383577 0.00490528 )  
( 0.000221298 -0.000905463 0.00647346 )  
( -0.000385099 -0.00313368 0.00618724 )  
( -0.000553152 -0.00146898 0.00703377 )  
( -0.00229104 -0.00296742 0.00646796 )  
( 0.000209053 -0.000641928 0.00523568 )  
( -0.000244264 0.000236387 0.00581824 )  
( 0.00157396 -6.8784e-05 0.00404629 )  
( 0.000455731 -0.00150808 0.00609999 )  
( -0.000597938 -0.00124128 -0.00015299 )  
( 0.00128562 -1.9001e-05 0.00565902 )  
( 0.000199222 -0.000802996 0.00931309 )  
( 0.00230912 -0.00268479 0.0116621 )  
( 0.000890232 -2.4243e-05 0.00567896 )  
( 0.0014122 -0.000677297 0.00477491 )  
( 0.000504745 -0.000944916 0.00592218 )  
( -0.00212433 0.000640346 0.00718414 )  
( -0.000135672 -0.000350148 0.005491 )  
( -0.000120009 -0.000204695 5.07536e-06 )  
( -0.000661298 8.96735e-05 0.00419831 )  
( -0.000269459 0.000109904 -6.88438e-06 )  
( 0.00133966 -0.00130846 0.00481727 )  
( -0.000558218 -0.000792117 0.000625285 )  
( -3.98699e-05 7.04531e-05 -3.7608e-06 )  
( 0.00151478 -0.00110211 0.00671042 )  
( -0.000711062 1.39469e-05 0.00612596 )  
( -0.00298773 0.000825821 0.00713679 )  
( 0.000554132 0.00107355 0.00545719 )  
( 0.000557779 -0.00135802 0.00762885 )  
( 0.00256794 -0.0033729 0.00746863 )  
( 0.00032184 -0.000719813 -0.000473101 )  
( 0.000828594 -0.000853527 0.00631473 )  
( -0.00102871 -3.92113e-05 0.00588796 )  
( 6.61817e-05 -0.000599575 -3.36618e-05 )  
( 0.000220913 -3.95413e-05 -1.34675e-05 )  
( -0.00146267 -0.0018368 0.0074697 )  
( 0.00132139 0.000455198 0.0101224 )  
( 0.000886487 -0.000506047 0.00737702 )  
( -0.000257017 -0.00091546 3.76567e-05 )  
( 2.72622e-05 0.00020918 -0.000590947 )  
( 0.000180184 -0.00156474 0.00638168 )  
( 0.000122007 -0.00213393 0.00742047 )  
( 0.00102795 -0.000862493 0.00519911 )  
( -0.00303976 0.00290548 -0.00108967 )  
( -0.00121922 0.00208424 0.000190451 )  
( -0.000986213 -0.0027195 3.65364e-08 )  
( -0.000111866 0.00178606 0.00523927 )  
( -0.00340699 0.0013022 0.0056081 )  
( 0.000920355 -0.000724371 0.00651913 )  
( -0.00126581 -0.00119593 0.0061838 )  
( 0.000578627 0.00124566 0.0062253 )  
( -0.0010275 -0.00138184 3.13651e-05 )  
( -0.00038349 7.2e-05 -5.31702e-05 )  
( -0.00244941 -0.000531335 0.00465369 )  
( -0.00304853 0.00102942 0.00967676 )  
( -8.93235e-05 -0.000995239 0.00641436 )  
( 0.000179969 -0.00194865 7.95182e-06 )  
( 0.000307653 2.16305e-05 0.00603519 )  
( 0.000796121 -0.000796865 0.00686965 )  
( 0.00302081 0.00193965 0.00688688 )  
( -0.00139611 0.000701912 0.00553021 )  
( -0.00106704 0.000581267 0.00615813 )  
( 0.000546471 -0.000159894 0.00477628 )  
( 0.00125272 -0.000442252 0.0066746 )  
( 0.00086513 0.000226658 0.00572761 )  
( -0.0015081 -0.00115472 0.0061568 )  
( 9.24919e-05 -8.93368e-05 0.00277514 )  
( -0.00168714 0.000482628 3.23227e-07 )  
( 0.00069001 0.00108991 0.00477946 )  
( -0.000166603 2.6028e-05 2.24362e-05 )  
( 0.000945268 0.00132207 0.005736 )  
( 0.000996953 0.001116 0.00755856 )  
( -0.0026935 -0.000157208 0.00582439 )  
( -0.000674657 -0.0015297 0.00630649 )  
( 4.46818e-05 0.00053341 0.00563041 )  
( 0.000389059 9.08423e-05 0.00569739 )  
( 0.00185989 -0.000261497 0.00419733 )  
( -0.000115123 0.000993971 0.0042909 )  
( 0.000800939 0.000325454 0.00612891 )  
( 0.002635 -0.00369667 0.00720291 )  
( -0.00081421 -0.000146786 -0.000777839 )  
( -0.00100061 0.00141137 0.00617497 )  
( 3.08801e-05 0.000187598 3.82864e-05 )  
( 0.000303197 -0.00282652 0.00608889 )  
( -0.000342749 5.76742e-05 -8.49146e-06 )  
( 0.000676583 0.000475987 0.00556486 )  
( -0.00297654 0.000206092 0.00494836 )  
( 0.000433144 -0.000651158 -0.000214256 )  
( 7.16894e-05 -0.00142618 0.00547736 )  
( -0.00141174 0.000521865 0.000127119 )  
( 0.00187376 9.59464e-05 0.00645972 )  
( -0.00290058 -0.00541579 -0.00542885 )  
( 0.000643921 -0.000929654 0.00399528 )  
( -3.91354e-05 -1.04028e-05 -3.39605e-05 )  
( -0.00111302 -0.000457369 0.00683543 )  
( -0.000393884 -0.000210127 0.00394374 )  
( 0.000222732 -0.00151671 0.00453415 )  
( 0.00068822 -0.000737192 0.00509517 )  
( 0.00067551 -0.000108854 6.52547e-06 )  
( -0.00385261 -0.000875716 -0.0039808 )  
( -0.000662658 0.000297441 0.000206598 )  
( -0.00244083 -0.000777082 0.0054421 )  
( -0.000535268 0.00168247 0.0122919 )  
( -0.0018804 -0.00266119 0.00500752 )  
( -0.000914415 -2.37756e-05 1.0119e-08 )  
( 0.000167411 -0.000353098 0.00605316 )  
( -0.00188432 -0.000870884 0.00718276 )  
( -0.00202547 -0.00499344 0.00742382 )  
( 0.000540268 -0.0011798 0.005852 )  
( 0.00139515 -0.000714847 0.00688332 )  
( -0.000276047 -0.000166737 4.32203e-05 )  
( -0.000447628 0.000975095 0.00632289 )  
( 0.000610869 0.000453929 4.14768e-05 )  
( 0.00140041 0.000212288 0.00661541 )  
( -0.00013705 0.000429313 0.00528162 )  
( 0.00011044 -0.000194664 4.15578e-05 )  
( -0.000785301 0.000121945 -0.000569237 )  
( -0.00244105 -0.000763593 0.0053022 )  
( 3.79801e-06 0.000264801 0.000104788 )  
( -0.00241894 -0.000697632 0.00877795 )  
( -0.000891396 0.000246641 -0.000149162 )  
( 0.000431527 0.000105144 0.00567881 )  
( 3.11031e-05 0.000585968 0.00698023 )  
( 0.00157677 0.000627176 0.00508175 )  
( 0.0011426 0.000276787 0.00591983 )  
( 0.00140602 0.000452347 0.0062308 )  
( 0.000106342 0.000738032 -0.000525195 )  
( 0.00239996 -0.000100424 0.0119188 )  
( 0.000885347 -0.000485391 0.00479072 )  
( -0.00146696 -0.00385657 0.00439798 )  
( -0.000798935 0.00036539 0.00526938 )  
( -0.00252914 -0.00296966 0.00766815 )  
( 0.00339054 -0.00447751 0.00919661 )  
( 2.00359e-05 -0.00286132 -2.35234e-05 )  
( 0.000698385 -0.000434405 0.0137578 )  
( 0.00104306 0.000109804 0.00596849 )  
( -3.66972e-05 -0.000641539 0.00847064 )  
( -0.00107701 8.16327e-05 0.00640401 )  
( -0.00239818 -0.00294321 0.0035199 )  
( 0.00124894 -0.00042894 0.00454654 )  
( -0.000307741 -5.62289e-05 0.00501905 )  
( 0.000569537 -0.000138067 0.00608501 )  
( 0.0018268 0.00182047 0.00408046 )  
( -0.000477651 7.30678e-05 0.00556686 )  
( -0.000327709 -8.90227e-05 4.50406e-05 )  
( 0.000909206 -0.000613356 0.00537692 )  
( 2.05284e-05 -9.8236e-06 6.49789e-05 )  
( 0.000793552 0.00651362 -0.00320124 )  
( -0.000122527 -0.00101971 0.00658489 )  
( -5.66806e-05 -0.000363171 0.00615885 )  
( -0.000190615 -0.000375701 -2.88682e-05 )  
( 0.00119396 0.00128565 0.00705677 )  
( -0.000333608 4.03086e-05 -0.000200722 )  
( 0.00159136 0.000830039 0.00584427 )  
( -0.00312705 -0.00163226 0.00720013 )  
( -0.000270339 -2.19704e-05 -5.15985e-05 )  
( -0.000436952 0.000578951 0.00495442 )  
( -0.000727691 0.00102812 0.00530378 )  
( 0.0038521 -0.00450566 -0.00552545 )  
( 0.000743151 -0.000821061 0.00651503 )  
( -0.000497834 0.000557595 0.0058912 )  
( -0.00111439 -0.00294708 0.00704235 )  
( -0.00304498 -0.000391322 -0.00359194 )  
( -0.00105916 0.000558119 0.0073416 )  
( 0.000959162 0.000497905 0.00451925 )  
( 0.000872707 -0.000648559 0.00463176 )  
( 0.000318329 0.000243944 0.00654206 )  
( 0.000137108 0.000279464 -0.000105235 )  
( -0.00120272 0.00050724 0.00328653 )  
( 0.00123768 -0.000321997 0.0065642 )  
( 0.000226112 0.00104887 0.00399718 )  
( -0.000844898 -0.00183229 0.00714458 )  
( -0.000345932 9.62257e-05 -2.10967e-05 )  
( -3.75104e-05 -9.58805e-05 -2.60855e-05 )  
( -0.000933756 -0.000107719 0.00573054 )  
( -0.00154256 0.000184258 0.00575327 )  
( 0.00033252 0.00194593 0.00688679 )  
( -0.000499419 -0.000344402 0.006801 )  
( -0.000157772 -0.00173819 0.00545126 )  
( 0.000229245 0.00070092 -0.000725453 )  
( 0.00244147 0.000941899 0.010741 )  
( -0.0013323 0.00173505 0.00578856 )  
( 0.0010347 -0.00316953 0.0142066 )  
( -6.71627e-05 0.000133961 7.26898e-05 )  
( 0.00127357 -0.0009891 0.00645287 )  
( -0.000158074 -0.00138532 0.00605361 )  
( 0.000731912 -0.000811543 0.00596592 )  
( -0.000169821 0.000277403 1.54271e-05 )  
( 0.000278035 -0.000270986 -6.42529e-05 )  
( 7.92562e-05 -0.0029722 0.010876 )  
( 0.00159254 0.000110729 0.00536325 )  
( -0.000243716 0.00018477 0.00666193 )  
( 0.0002096 -0.00113599 0.00869008 )  
( -0.00032815 -0.000335056 0.00055021 )  
( 0.00126637 0.000585109 0.00695168 )  
( -0.00117768 -0.00610374 -0.0037836 )  
( -0.000392516 0.000725821 -0.00162797 )  
( 0.00154341 0.000534893 0.00631169 )  
( -0.00113787 0.000533251 0.00545927 )  
( 8.33401e-05 -2.20311e-05 0.0143257 )  
( 0.000345801 0.00025119 -0.000353453 )  
( 0.000268227 3.21753e-05 0.00485703 )  
( -0.00190185 -0.00234563 0.00694383 )  
( 0.000597648 -0.00054906 0.00659938 )  
( 0.0023873 -0.000108921 0.0050845 )  
( 0.000592628 -0.000972001 0.00559577 )  
( -0.000600934 -5.31958e-05 -0.000327433 )  
( 0.00210473 0.000887179 0.00556444 )  
( -5.73199e-06 0.00177486 0.00505069 )  
( -0.000575296 -0.00197984 0.0073367 )  
( -0.00165278 -0.00133165 -0.00013863 )  
( -2.62471e-05 -0.00128462 0.000326157 )  
( -0.0018411 -0.00264948 0.011575 )  
( -0.000123894 0.0015904 -3.43702e-05 )  
( -0.000473444 -0.000731167 0.00590817 )  
( 0.0019967 -0.00182679 0.00575653 )  
( -3.35994e-05 -0.00161568 -0.000571341 )  
( -0.000659564 -0.000127849 1.70229e-05 )  
( 0.00117955 0.000515022 0.0056535 )  
( -0.000315507 -8.60744e-05 -0.000286134 )  
( 0.00152869 0.000837581 0.00544294 )  
( -0.000830438 0.00108114 0.00786884 )  
( -0.00187876 0.000999249 0.00295792 )  
( 0.00132634 0.00108556 0.00421781 )  
( 0.000314147 -0.00285508 0.0076962 )  
( -0.00326359 -0.000158916 0.00674111 )  
( 0.000299922 0.000934467 7.4647e-05 )  
( -0.00160353 0.00050432 0.00578538 )  
( 0.00105073 -0.000724006 0.00618951 )  
( 0.000338917 -0.000253952 8.87188e-05 )  
( 0.000260038 0.000594261 5.4672e-05 )  
( -0.00121734 -0.00131717 0.00888518 )  
( 2.77838e-05 -0.000721368 0.0056498 )  
( -0.000556964 -0.000236444 0.00658114 )  
( -0.00188545 -0.00188898 0.00302889 )  
( -6.01146e-05 0.000162429 0.000257566 )  
( -0.00197946 -0.00463204 0.00755368 )  
( 0.00121218 -0.000131413 0.00689842 )  
( -0.00128568 -0.00102772 0.00759448 )  
( 0.00198228 -0.000634918 0.00531763 )  
( -0.00235613 -0.000927009 0.00702204 )  
( -0.000540845 8.37235e-05 0.00621372 )  
( 0.000249657 0.000829128 0.00345863 )  
( -0.000245117 0.000905951 -0.000489048 )  
( -0.00453907 0.000386659 0.00700389 )  
( -0.000353687 4.11023e-05 0.00634497 )  
( -0.00115406 -0.00203261 0.00528523 )  
( -0.000275402 0.000139742 -6.36736e-05 )  
( -0.000355365 -3.05791e-05 7.0455e-05 )  
( -0.00133884 0.00215489 0.00574923 )  
( -0.000922429 -0.000340819 0.00658471 )  
( -0.000399373 -0.000560898 0.00522182 )  
( -0.000561537 -0.000261708 0.000339711 )  
( 0.000764501 0.000990478 0.000118128 )  
( -0.000102631 -0.000223927 0.00573791 )  
( 0.00352273 -0.001869 0.011612 )  
( 0.000571085 -0.000761338 0.00581397 )  
( -0.00202511 0.0001081 0.00862766 )  
( -0.00151569 0.000922326 0.012076 )  
( 0.000888538 0.000132016 0.00547251 )  
( 0.000423056 -0.00127468 0.00645696 )  
( 0.000812654 0.000260938 0.00567336 )  
( -0.000210373 -0.00090521 0.00498453 )  
( 0.00115008 -0.00137131 0.00391566 )  
( -0.00017669 0.000967478 0.0101754 )  
( 4.17958e-05 -0.000409892 1.02166e-05 )  
( 0.000402135 -0.000151827 0.00643392 )  
( -0.00033777 0.00116176 0.00577806 )  
( 0.000894592 0.000676289 0.00555315 )  
( -0.000447466 0.00146745 0.000245276 )  
( -0.000435118 9.29052e-05 0.00494462 )  
( 0.000862419 0.000166477 -0.000633076 )  
( -0.00049376 -8.18049e-05 -6.84774e-05 )  
( 9.72662e-05 -0.000200433 0.0106741 )  
( -0.00038827 0.000405066 -6.10425e-06 )  
( 0.000877527 0.000380977 0.00620703 )  
( 0.000370331 -0.00076624 0.006352 )  
( 7.25673e-06 3.80821e-06 1.10686e-05 )  
( 0.00180669 -0.00144015 0.00583783 )  
( -0.000354031 0.000231502 -7.24783e-05 )  
( 0.000572957 -0.000397728 0.00582131 )  
( 0.00248124 -0.00128607 0.00721516 )  
( 0.00316708 0.000209893 0.00428252 )  
( -0.000900339 -0.000828988 -0.000910216 )  
( 0.00136002 -0.000913757 0.00680423 )  
( 0.000494929 -0.000187205 0.0054348 )  
( -0.000137799 -0.000269608 4.36776e-06 )  
( -0.000324661 -0.00135108 -0.000188673 )  
( 8.84806e-05 0.000120762 1.3891e-05 )  
( 7.4329e-05 -0.00016216 -9.04968e-06 )  
( -0.000688112 0.000565753 -0.000496288 )  
( 0.000467652 0.000339315 0.00585053 )  
( -0.000266335 -0.00277703 0.00959545 )  
( -0.000795545 0.00067531 -0.000414535 )  
( -0.000979302 0.000380951 0.0082677 )  
( -0.00226838 0.00100863 0.00502332 )  
( 0.000795185 -0.000347492 0.00551052 )  
( 0.000544088 0.0011147 0.0057263 )  
( -0.000743349 -0.000903871 5.41942e-06 )  
( 0.000231759 -0.000197292 0.00705022 )  
( -0.00118782 -0.00270447 0.00464371 )  
( -0.00113009 -0.000624264 -0.00051295 )  
( -0.000473624 -0.0027504 0.00622361 )  
( 0.00149475 -0.00157333 0.00504382 )  
( 0.000244872 5.06202e-06 -0.000673176 )  
( -3.07733e-05 -0.000494303 -0.000381579 )  
( 0.00154247 -0.0043982 0.00926812 )  
( -0.000516022 0.00144175 0.00469162 )  
( -0.000798283 -0.000884846 -0.000111117 )  
( 0.000538662 -0.000166537 0.00593783 )  
( -0.000999624 -0.00239406 0.00594377 )  
( -0.00110262 -0.000816202 3.45661e-05 )  
( -0.000462654 0.000637799 0.00582542 )  
( -0.000697329 0.000759958 -0.000359631 )  
( -0.00146654 0.00105758 0.00148106 )  
( -0.000118075 0.00379647 0.00257167 )  
( -0.00160845 0.00116103 0.00493882 )  
( 5.1931e-06 0.00239832 0.00665742 )  
( 0.00075727 -4.39115e-05 0.00578396 )  
( -4.84919e-05 0.000131308 0.000342508 )  
( 0.00234982 0.00202134 0.0157988 )  
( 0.00185763 0.00116615 0.00639661 )  
( -0.000458828 -0.000649971 -2.3435e-05 )  
( -0.000506733 -0.000648688 0.00573589 )  
( 0.00155808 -0.000540377 0.00437078 )  
( 0.00184353 -0.000898937 0.00765574 )  
( -0.00142119 0.000296591 0.00585789 )  
( -8.65957e-05 -0.000515877 -2.91768e-06 )  
( 0.00160179 -1.01232e-05 0.00528649 )  
( 0.000200642 1.29425e-05 -7.85677e-05 )  
( 0.00128698 0.000420585 0.00218359 )  
( 0.000157532 3.65437e-05 4.80972e-05 )  
( 0.00109673 -0.00257259 0.00411715 )  
( 0.000785129 -0.000959136 0.00548276 )  
( 3.94623e-05 2.11549e-05 -4.27039e-06 )  
( 0.000133503 0.00144312 0.00614551 )  
( -0.000763941 -0.000899175 -0.000301702 )  
( 0.000791464 -0.000137095 0.00438002 )  
( -0.00203305 7.55102e-06 -0.000195711 )  
( -0.00156138 -0.00232821 0.00731232 )  
( 0.0012827 0.00161053 0.00650892 )  
( -0.000587319 0.000304664 0.00641549 )  
( -0.00361646 -4.4177e-05 0.00498762 )  
( -0.00230959 0.00143446 0.00780189 )  
( -7.68099e-05 1.40485e-05 4.06658e-05 )  
( -0.000211525 -0.000301666 0.000131539 )  
( -6.75332e-05 4.16878e-05 0.000178616 )  
( -0.000549917 0.00247643 0.00801399 )  
( -0.00479407 0.000338239 0.0095941 )  
( -0.00404192 -0.00106573 0.00858397 )  
( 0.00162203 -0.000369694 0.00862348 )  
( 0.000338948 0.000549893 0.0057141 )  
( 0.00143528 0.000235107 0.00602598 )  
( 0.000134187 -0.00104094 0.00550428 )  
( 0.00127336 -0.000600266 0.00499274 )  
( -3.04347e-05 -0.000431748 0.00429869 )  
( -7.33297e-05 0.000437032 0.00638643 )  
( 9.56296e-05 -0.0015981 0.00476807 )  
( -1.96734e-05 -0.00193025 0.00499486 )  
( 0.00058343 -0.000285224 0.00619842 )  
( 0.00093215 0.00050257 0.00542027 )  
( 0.000799767 -0.000763217 0.00505984 )  
( -0.000413786 -0.00109822 0.00804847 )  
( -0.00211666 -0.000922805 0.00635913 )  
( -0.000430521 -0.000478255 0.00666432 )  
( 0.00106003 -0.000212722 0.00652796 )  
( 0.000180369 -0.000196539 0.00526332 )  
( 0.000605051 5.72513e-06 0.0054018 )  
( -0.00276296 -0.00238819 0.0100722 )  
( 0.000396262 -0.000349593 0.00724935 )  
( -0.000246564 0.000783803 0.00551173 )  
( -0.00103605 0.00110036 0.00582614 )  
( 0.00129091 -8.47326e-05 0.00591298 )  
( 0.00115781 -0.000361542 0.00770496 )  
( -0.000720262 -0.000136766 -0.0011047 )  
( -0.00070192 -0.000726507 0.000318932 )  
( 0.000896463 0.00233193 0.00439382 )  
( 0.000129792 0.00254474 0.00708336 )  
( 0.000221821 -0.000425861 0.00571267 )  
( 0.00152665 0.000275745 0.003774 )  
( -0.000454317 -0.000417703 0.000132788 )  
( 0.00080228 -0.000368181 0.00468394 )  
( -0.00253022 0.000747044 0.0104567 )  
( -0.000924171 0.000710732 0.00482155 )  
( -0.00200332 -0.00261691 0.00629938 )  
( 0.00108446 -0.000363318 0.00672184 )  
( -0.00221477 -0.000964387 0.00920846 )  
( 2.68619e-05 -0.000139234 -2.7093e-06 )  
( 0.000374863 0.000719156 0.00662827 )  
( -0.000334815 0.00239456 0.00468688 )  
( 0.000380204 0.000336179 0.00472952 )  
( -0.000940438 0.000212434 0.00396324 )  
( 0.000805167 0.000220053 0.0065389 )  
( 0.000820116 0.000733916 0.00785949 )  
( -0.00125436 -0.000749764 0.00961963 )  
( -0.000554068 8.82882e-05 -7.20113e-05 )  
( -0.000961089 -0.0015706 0.0049818 )  
( 0.000390131 0.000133695 1.92359e-05 )  
( -0.00359719 0.000918256 0.00967512 )  
( -0.00178713 -0.00190148 0.00491852 )  
( 0.00103877 -4.40107e-05 0.0062306 )  
( 0.000907327 -0.000383019 -0.000235795 )  
( 3.81485e-05 0.00140677 -0.000814131 )  
( 0.000421126 -0.000839045 0.00862498 )  
( 8.21001e-05 1.63088e-05 0.00470822 )  
( -0.0013652 8.05375e-05 -0.000699715 )  
( 0.000490831 0.000667052 0.00504731 )  
( 0.000978488 -0.000883226 0.00517686 )  
( -0.000550796 -0.000325941 -0.000422354 )  
( 0.00176024 -0.000538124 0.00558555 )  
( 0.000157121 -7.73164e-05 6.04258e-06 )  
( -0.000150293 0.000157712 -2.65996e-05 )  
( -0.000280663 -0.000755509 0.0046023 )  
( -0.00671986 0.0026886 -0.00179546 )  
( -0.000162083 0.000461272 -0.000128263 )  
( 0.00036586 -2.25368e-05 0.0059165 )  
( -0.000563217 -0.000719878 0.000105102 )  
( 8.69524e-05 -0.000615766 0.00624985 )  
( -0.00055509 -0.000371956 -0.000735815 )  
( 0.000289507 -0.000906897 0.00678464 )  
( -0.000736279 0.000978511 0.00666399 )  
( -0.000132095 0.000570327 0.00180208 )  
( -0.00181228 0.00087892 0.0035758 )  
( 0.00130962 0.000504326 0.00551266 )  
( -2.18519e-05 -0.00136711 0.00617907 )  
( 0.00077122 -0.000492173 0.00565727 )  
( -0.00141851 0.00333793 0.00853038 )  
( 0.00149699 6.35092e-05 0.00519192 )  
( -0.000398339 0.00263924 0.00545258 )  
( -0.000305606 -0.000461474 5.45872e-05 )  
( 0.000529056 -0.00116553 0.0061279 )  
( -4.22897e-05 5.50262e-05 -2.54055e-05 )  
( 0.000660156 0.000626475 0.00468066 )  
( 0.00044009 -0.00149412 1.64157e-05 )  
( 0.000227638 -0.000126712 0.00458203 )  
( 0.00136017 -0.000609345 0.00526234 )  
( -0.000754757 0.000415723 2.05738e-05 )  
( 0.000718334 0.000734379 -0.000308046 )  
( -8.3228e-05 4.53191e-06 3.60041e-05 )  
( 0.00119254 0.00106251 0.00590744 )  
( -0.000434555 0.000209554 -0.000298141 )  
( -0.000859292 0.000253805 2.98641e-05 )  
( -0.000532629 0.00178064 -5.11978e-05 )  
( 0.000835829 3.88387e-05 0.00458615 )  
( 0.00137583 0.000318301 0.0063621 )  
( 0.00131599 -0.00192449 0.00538503 )  
( 0.000135475 -0.00132846 0.00579673 )  
( 0.000950422 -0.00174364 -0.000193261 )  
( -0.00270595 -0.0013273 0.00575588 )  
( 0.000117511 0.00153453 0.00573993 )  
( -0.00309751 -0.000793827 0.00458473 )  
( -0.00200956 -0.000363219 0.0041538 )  
( -0.00290187 -0.000754508 0.00973102 )  
( -0.000932875 -0.00101139 0.00576746 )  
( 0.000620441 0.000189157 0.00420762 )  
( 0.00163884 -0.0030103 0.00867655 )  
( 0.000931931 0.000694588 0.0062216 )  
( 0.00150581 0.000569642 0.00695216 )  
( 0.00127034 -0.000420144 0.00572072 )  
( -0.000858061 -0.00361136 0.00673191 )  
( -0.00163806 0.000802672 -0.000392563 )  
( 0.00176172 0.00140635 0.00728741 )  
( -0.000664376 0.000595441 0.00656783 )  
( 0.00015629 0.000333053 1.35197e-05 )  
( -0.000328853 -0.00169554 0.00606962 )  
( -0.00124547 -0.0015062 0.00427458 )  
( -0.000277866 -0.000797132 0.00838648 )  
( 0.000448615 -0.000526825 0.00613403 )  
( 0.0018253 -0.00142767 0.00644968 )  
( -0.00133454 0.000442321 0.00457172 )  
( 0.000925392 -0.00239495 0.00044568 )  
( -5.1287e-05 0.000119444 -2.32692e-06 )  
( -0.000154111 0.000294944 -0.000266075 )  
( -0.00061945 -0.0010336 0.00675598 )  
( -0.000782553 -0.00018915 0.00519598 )  
( -0.000159344 0.000935725 -0.000292427 )  
( 0.000197504 0.000702325 0.00818227 )  
( -2.40878e-05 -0.000105021 0.000138106 )  
( 0.00117733 -0.000112787 0.00603586 )  
( 8.58703e-05 -8.83991e-05 0.00616584 )  
( -0.000181333 -0.000333642 -0.00193325 )  
( -0.000278388 0.000730993 0.0055219 )  
( 0.00181569 -0.000492144 0.00626081 )  
( -0.000248164 0.00089481 0.00495144 )  
( -0.000426302 -0.000207308 2.29252e-05 )  
( 0.000452907 0.000255475 0.00511286 )  
( -0.000532473 0.000319602 -0.000249688 )  
( -0.00293528 -1.81387e-05 0.00886622 )  
( -0.000379655 0.00145765 0.0050917 )  
( -0.00031454 -0.000963473 -9.34768e-06 )  
( 0.000183254 -0.00437566 0.00852914 )  
( 0.001786 -0.000759901 0.00275372 )  
( -1.19085e-05 -0.00118494 0.00528591 )  
( 0.0016617 0.00258296 -0.00071095 )  
( -0.00106376 -0.00165786 0.000319566 )  
( -0.00110066 -0.000746821 0.00665115 )  
( -0.00269773 0.00107711 0.0105443 )  
( 0.000840289 -0.00120087 0.00890373 )  
( 0.000520002 0.000495884 -0.00122303 )  
( -4.576e-05 -0.000262592 0.0050667 )  
( 0.000359445 -0.00176952 0.00564688 )  
( 0.000718928 0.000253246 0.00624965 )  
( 0.00200842 -0.00055475 0.00342698 )  
( 0.000201909 -0.00041505 3.27578e-05 )  
( -0.000508328 0.00168413 -0.00457162 )  
( -0.000599461 -0.000186808 3.08643e-05 )  
( 0.000675243 -0.000355276 0.00527541 )  
( 0.000623587 0.00140429 0.00483673 )  
( -0.00047261 -0.0012944 0.00732302 )  
( 0.00218134 -0.000200762 0.00518998 )  
( 0.000473034 -0.000368998 0.00602061 )  
( -0.00332072 -0.00168559 -0.000841162 )  
( 0.000529088 8.05133e-05 0.00570715 )  
( 0.0033228 -0.000830806 0.00864821 )  
( 0.000137763 -5.75137e-05 0.00487761 )  
( 0.000329945 -0.00137455 0.00616008 )  
( -0.000172882 -0.000220351 0.00594429 )  
( -3.00423e-05 -0.000362606 1.47275e-05 )  
( 0.00434681 0.00151882 0.00745211 )  
( -0.000450058 -8.3358e-07 -5.30443e-05 )  
( 0.000462915 -0.00248157 0.0130596 )  
( -0.00165775 0.00587573 0.00525929 )  
( 0.000179618 -0.00040784 0.00531833 )  
( 0.000908591 0.000127795 0.00687844 )  
( -0.0014309 -0.00013932 0.00731781 )  
( 8.79915e-05 -7.60005e-05 4.97911e-05 )  
( 0.000742866 0.000145889 0.0084694 )  
( 0.000644019 -0.00104084 0.00455518 )  
( 0.00158839 0.000605632 0.00553925 )  
( -0.000602412 -0.000201774 -9.8727e-05 )  
( 0.00125071 -0.00148712 0.00734194 )  
( -4.10918e-05 0.00093795 -0.000415689 )  
( 0.000414177 0.00232772 0.00665757 )  
( 0.00163995 -5.03749e-05 0.00640259 )  
( 0.00133801 -0.000316026 0.0083021 )  
( -0.000197154 0.00178914 0.0044255 )  
( -0.00178612 -0.000247826 -0.000583803 )  
( -0.00150875 -0.000796857 0.000181108 )  
( 0.00211934 -0.00187556 0.00600179 )  
( -0.000979363 -0.000429041 0.00666402 )  
( 0.00147092 -0.000497816 0.00426579 )  
( -0.00219424 0.000953504 0.0106998 )  
( -0.00160206 0.00209362 0.00582866 )  
( 0.000414018 0.000350542 0.00585141 )  
( 0.000372262 -4.17514e-05 -0.000226553 )  
( 0.000709432 -0.00158593 0.00624975 )  
( 0.00172388 -0.00165693 0.00666232 )  
( 0.000348511 -0.0004045 0.00595215 )  
( 0.000236963 -0.00183588 0.00143854 )  
( -0.000393142 8.11394e-05 -0.00118002 )  
( 0.00010722 0.000322198 0.00575788 )  
( -0.000280145 0.000737948 -0.00231121 )  
( -0.000231569 0.00187437 0.00500822 )  
( 0.000223208 -0.00160488 0.00524966 )  
( 0.000936703 -0.00109994 0.00564678 )  
( -0.00135184 -0.00105506 -4.83269e-05 )  
( -0.00118419 0.00124707 0.00819072 )  
( 0.000117142 -0.00271917 0.00621346 )  
( 0.00258977 -0.000689714 0.00635618 )  
( 0.000932181 -0.000411461 0.0042989 )  
( 3.22413e-05 -0.000264585 -0.000487489 )  
( -0.000499337 0.000312569 2.19379e-07 )  
( 0.00226746 -0.00050903 0.00664888 )  
( -0.00337103 -0.000596982 0.00511905 )  
( -0.000852453 -0.000788773 2.3281e-06 )  
( -0.00347358 0.000391764 0.00499433 )  
( 0.000504581 -0.000581288 0.00578406 )  
( -0.000130561 -0.000111128 2.39746e-05 )  
( 0.00125816 -0.00170792 0.00478403 )  
( 0.000381848 -6.50052e-05 0.00600134 )  
( -0.000663439 -0.00223189 0.00656068 )  
( 0.00148738 0.000866052 0.00628988 )  
( -0.00116516 -0.00142851 0.00753009 )  
( -0.00116553 -0.00250415 0.0074477 )  
( -0.000425631 0.0001287 5.11604e-05 )  
( -0.000437799 -1.73305e-05 -4.77979e-05 )  
( 0.00104891 0.00137756 0.00568422 )  
( -0.00032035 0.000758853 -0.000528987 )  
( -0.000800033 -0.000548501 0.00572892 )  
( 0.00107106 0.00032873 0.00526655 )  
( -0.0012947 -0.00134175 9.78694e-05 )  
( -0.00142611 0.0038826 -0.00117236 )  
( -0.000115576 4.54888e-05 0.00546903 )  
( -0.000120002 0.00013307 2.26678e-05 )  
( 0.000658976 0.000441197 -0.000390006 )  
( -0.001003 -0.000846206 0.00632807 )  
( 0.000151741 -0.000331576 0.00659956 )  
( 0.000793501 -0.000714576 0.00436132 )  
( -0.00348822 0.000852393 0.00924361 )  
( 0.00343956 -6.1076e-05 0.00500492 )  
( 0.000698988 -0.00101356 0.00529418 )  
( 0.00162521 -0.00124017 0.00502399 )  
( 1.06262e-06 0.00013719 -0.000346906 )  
( -0.00109996 -0.00060902 -0.000474788 )  
( 7.88851e-05 -0.00135848 -0.000683115 )  
( 0.000932884 0.00097804 0.00543584 )  
( -0.000193972 0.000136608 -0.000114129 )  
( 0.000808515 -0.000494841 2.65683e-06 )  
( -0.000803381 -4.49087e-06 -0.000109658 )  
( 0.000300218 -9.07259e-05 -0.00105034 )  
( -0.00100876 0.000165845 0.000181067 )  
( 0.00098851 0.000209783 0.00565771 )  
( -0.000935017 0.00137497 0.00403015 )  
( 0.00108844 -0.00224634 0.00725812 )  
( -3.63168e-05 0.000416494 0.00713948 )  
( -0.000939403 0.00074069 0.00556934 )  
( -1.15871e-05 0.000304221 0.000107987 )  
( 2.32001e-06 9.11328e-05 -5.01424e-07 )  
( -0.000413953 0.00131409 0.00816446 )  
( -0.00060004 0.000107038 -1.34705e-05 )  
( 0.00156103 -0.000225621 0.00448162 )  
( 0.000371697 -0.000853492 0.00611766 )  
( -8.29903e-05 -0.000182142 3.73424e-05 )  
( -0.000354698 0.000768351 0.00637797 )  
( -0.000537775 -0.00207641 0.00668356 )  
( 0.000451014 -0.000146116 0.00588806 )  