/*--------------------------------*- C++ -*----------------------------------*\
| =========                 |                                                 |
| \\      /  F ield         | OpenFOAM: The Open Source CFD Toolbox           |
|  \\    /   O peration     | Version:  2506                                  |
|   \\  /    A nd           | Website:  www.openfoam.com                      |
|    \\/     M anipulation  |                                                 |
\*---------------------------------------------------------------------------*/
FoamFile
{
    version     2.0;
    format      ascii;
    arch        "LSB;label=32;scalar=64";
    class       volScalarField;
    location    "0.01";
    object      p;
}
// * * * * * * * * * * * * * * * * * * * * * * * * * * * * * * * * * * * * * //

dimensions      [0 2 -2 0 0 0 0];

internalField   nonuniform List<scalar> 
512
(
-0.269787
-0.303028
-0.397308
-0.461792
-0.36718
-0.262428
-0.211009
-0.105587
-0.380097
-0.610548
-0.399258
-0.213887
-0.316963
-0.308614
-0.184472
-0.098509
0.0580246
0.173036
0.138142
0.199594
0.186615
0.143592
0.0606762
-0.191782
-0.127601
0.125957
0.140732
-0.023278
0.0558928
0.14314
-0.0454697
-0.265138
-0.102096
-0.306157
-0.384972
-0.374823
-0.483068
-0.474807
-0.262525
-0.192068
-0.463585
-0.682908
-0.423379
-0.203487
-0.231161
-0.221383
-0.0929937
-0.0143854
0.00467643
0.00710894
0.0718906
0.127343
0.13265
0.161389
0.114704
-0.0711003
-0.0862898
0.129709
0.146374
-0.039946
-0.0246684
0.0405211
-0.0639711
-0.106949
-0.290592
-0.365246
-0.170148
-0.142879
-0.456246
-0.497927
-0.279771
-0.178178
-0.463209
-0.61395
-0.386475
-0.210663
-0.274473
-0.311506
-0.144995
0.083603
-0.0188625
-0.190828
0.0649476
0.236271
0.191233
0.170442
0.142994
-0.0114404
-0.0555427
0.0263005
-0.0719884
-0.0662861
0.0994038
0.0524431
-0.100571
-0.162411
-0.449744
-0.435711
-0.191097
-0.115322
-0.325535
-0.413063
-0.238188
-0.124771
-0.374548
-0.61828
-0.629477
-0.309883
-0.116913
-0.14308
-0.0765548
0.0759892
-0.00831398
-0.136839
-0.0872564
0.114286
0.196149
0.132804
0.0336797
-0.0597263
-0.0448441
0.0591725
0.0417297
0.0291108
0.0794168
0.0419483
-0.06254
-0.24446
-0.201728
-0.234941
-0.220555
-0.174359
-0.307242
-0.501621
-0.394253
-0.266252
-0.359929
-0.533285
-0.57111
-0.305482
-0.158793
-0.236554
-0.0794918
0.0914103
0.0843435
-0.0238747
-0.0751156
0.150891
0.323399
0.180736
-0.0532926
-0.19793
-0.0643582
0.151193
0.156791
0.0303528
-0.076778
-0.234613
-0.259384
-0.270189
-0.366685
-0.283856
-0.226257
-0.0391061
0.00593916
-0.297284
-0.48193
-0.420938
-0.400919
-0.418328
-0.390892
-0.367786
-0.284599
-0.131451
0.125607
0.104099
-0.178022
-0.276826
-0.0844382
0.0592175
0.0862128
0.02803
-0.0216132
-0.0685712
-0.0561805
0.0384954
0.1258
0.132531
0.0792273
-0.0928157
-0.355335
-0.415805
-0.345349
-0.403331
-0.263168
-0.0554239
-0.0460316
-0.331082
-0.540226
-0.541513
-0.426455
-0.41859
-0.572274
-0.463066
-0.297925
-0.0365698
0.170713
0.199081
-0.0213485
-0.140872
-0.0276093
0.051408
-0.0213937
0.0425649
0.0632266
0.0033356
0.032993
0.117769
0.205615
0.10435
-0.0824114
-0.202806
-0.260308
-0.25667
-0.508663
-0.568038
-0.255521
0.067897
0.0108094
-0.291488
-0.484409
-0.505984
-0.466843
-0.361606
-0.512351
-0.511265
-0.115145
0.0105686
0.0144511
0.0235427
-0.129685
-0.136483
-0.0113874
0.0172694
-0.0814607
-0.0917066
0.0657096
0.125915
0.0827331
0.156156
0.154551
0.0248983
-0.026186
-0.0642944
-0.113992
-0.238252
-0.372123
-0.163706
-0.239504
-0.398698
-0.316345
-0.191724
-0.222165
-0.379859
-0.652579
-0.525254
-0.302013
-0.204635
-0.145764
-0.282311
-0.192465
0.0777865
0.0992022
0.0726338
0.0913391
0.021933
0.00624719
0.100542
0.0172735
-0.134857
-0.0294457
0.103777
0.0446666
-0.0493543
0.12071
0.247558
0.0116075
-0.336145
-0.131221
-0.22009
-0.40454
-0.39926
-0.356869
-0.322563
-0.211644
-0.350667
-0.607372
-0.488315
-0.298506
-0.287519
-0.255022
-0.260338
-0.1247
0.0475196
0.154281
0.155202
0.0733616
-0.0560058
-0.0836537
0.115289
0.156379
0.0311732
0.0299453
0.161512
0.117787
-0.0941304
-0.0603112
-0.0505461
-0.23721
-0.232559
-0.191303
-0.275877
-0.292567
-0.21205
-0.224656
-0.277739
-0.239593
-0.330971
-0.573424
-0.601752
-0.353034
-0.223699
-0.224358
-0.336123
-0.21674
0.0196105
0.120347
0.0520686
-0.0144929
0.0428068
0.0903078
0.117643
0.0434375
-0.081844
-0.00642641
0.0766806
0.0551884
0.0430458
0.115153
0.0595278
-0.160558
-0.294383
-0.582322
-0.345386
-0.172235
-0.175265
-0.282016
-0.345256
-0.204484
-0.137007
-0.371143
-0.593371
-0.540471
-0.300532
-0.219495
-0.284633
-0.108966
0.0890574
0.0649744
0.00243102
-0.0051974
0.125484
0.142007
0.0859137
0.00187304
-0.112232
-0.0271895
0.0681868
0.0795117
0.0777627
0.0561307
0.0664405
-0.0861653
-0.40061
-0.206785
-0.271658
-0.200423
-0.157683
-0.248144
-0.357261
-0.322997
-0.297159
-0.39436
-0.490512
-0.421489
-0.277697
-0.212286
-0.224347
-0.0714145
-0.00782137
-0.016669
0.00587349
0.035787
0.174106
0.150263
0.00794154
-0.117912
-0.0920989
0.0447633
0.0378849
-0.0371047
0.00907614
-0.0263547
-0.0890442
-0.159795
-0.168325
-0.340751
-0.518754
-0.259642
-0.0237404
-0.0163908
-0.310418
-0.454584
-0.404385
-0.383938
-0.368369
-0.355413
-0.315119
-0.234114
-0.134831
0.0409339
-0.06669
-0.1827
-0.0736138
0.0352142
0.0734463
0.0363071
-0.0421555
-0.0561085
-0.000915334
0.142391
0.157838
0.0478538
0.00583479
-0.0168806
-0.0567899
-0.0482844
-0.0766208
-0.366568
-0.381064
-0.185989
0.13933
0.114806
-0.398161
-0.698372
-0.496516
-0.450076
-0.425578
-0.309025
-0.310158
-0.31607
-0.0605638
0.23927
0.244363
-0.0191297
-0.213138
-0.112782
-0.0901342
-0.138804
-0.0922224
0.0273596
0.142796
0.1569
0.145362
0.128497
0.0379976
-0.0276097
-0.185672
-0.28922
-0.327237
-0.259748
-0.424684
-0.269519
0.111195
-0.0159169
-0.349082
-0.423859
-0.4416
-0.507098
-0.545154
-0.555894
-0.410618
-0.165681
0.0153392
0.126693
0.0614293
-0.104307
-0.144003
-0.115968
-0.0559448
-0.0770435
-0.090446
-0.0394931
0.11812
0.21592
0.162857
0.14914
0.141737
-0.0644854
-0.307768
-0.2349
-0.155752
)
;

boundaryField
{
    wall
    {
        type            zeroGradient;
    }
    outlet
    {
        type            cyclic;
    }
    inlet
    {
        type            cyclic;
    }
    procBoundary2to1
    {
        type            processor;
        value           nonuniform List<scalar> 
256
(
-0.291958
-0.493103
-0.339794
-0.212777
-0.43323
-0.505184
-0.455143
-0.215132
-0.233635
-0.504464
-0.388479
-0.260489
-0.419913
-0.312797
0.0696851
0.107339
-0.0541592
-0.1731
0.132546
0.292488
0.144863
0.00324714
-0.154742
-0.217681
-0.0555968
0.0850865
0.0709135
0.0665807
0.0500682
0.0948293
0.121412
-0.0398252
-0.287485
-0.470531
-0.305561
-0.221358
-0.408022
-0.450363
-0.466887
-0.273299
-0.297959
-0.534913
-0.468825
-0.222867
-0.222871
-0.232302
-0.048628
0.0451046
-0.103665
-0.154931
0.140134
0.228755
0.0811547
0.0276942
-0.0742914
-0.174241
-0.0224685
0.139535
0.107759
0.0641149
0.0758322
0.0670601
-0.0165731
-0.120288
-0.348452
-0.419576
-0.178815
-0.196087
-0.335651
-0.308098
-0.36259
-0.262994
-0.353609
-0.632427
-0.488584
-0.279025
-0.278143
-0.244814
-0.0335642
0.0588703
-0.0167792
-0.00494973
0.0289164
0.0103953
0.0267497
0.132529
0.077496
-0.029414
-0.0344163
0.128839
0.101694
0.00200766
0.0472008
0.0205194
-0.0857305
-0.188263
-0.410336
-0.456709
-0.13988
-0.141514
-0.242824
-0.268406
-0.274397
-0.213378
-0.36451
-0.661009
-0.710187
-0.48348
-0.154349
-0.0798601
-0.0149686
0.0337708
-0.000813416
-0.0157105
-0.0130821
0.0923704
0.187941
0.124901
-0.00704126
-0.0446467
0.0265156
0.127999
0.0905074
0.0192527
0.0714427
0.0808462
-0.104133
-0.228631
-0.357555
-0.212371
-0.119429
-0.212572
-0.335902
-0.359406
-0.375874
-0.355551
-0.455322
-0.545213
-0.461538
-0.335555
-0.234682
-0.128456
-0.0398402
-0.004704
-0.0430534
0.0281695
0.129177
0.12881
0.0294749
-0.0589544
-0.0756079
-0.0549125
0.03959
0.0994548
0.162567
0.0689589
-0.0831046
-0.0956191
-0.131827
-0.265335
-0.399415
-0.299474
-0.227652
-0.0593115
0.00182886
-0.343262
-0.665975
-0.687607
-0.471387
-0.378151
-0.329483
-0.323558
-0.336844
-0.172202
0.10639
0.081051
-0.0783805
0.0111569
-0.0473148
-0.0691621
0.0527427
0.0756625
-0.0240279
-0.0683946
0.0846763
0.217004
0.217653
0.0656862
-0.106998
-0.184865
-0.159721
-0.252558
-0.380291
-0.373224
-0.165249
0.108261
0.089478
-0.483702
-0.876436
-0.591526
-0.418254
-0.442218
-0.400888
-0.332435
-0.377939
-0.263196
0.0240652
0.0731672
-0.0716605
-0.0664
0.0190464
0.0121139
-0.00562863
-0.0174448
0.00665226
-0.0192975
0.0488
0.220877
0.243029
0.0765745
-0.148207
-0.237886
-0.0655122
-0.0596399
-0.407804
-0.496578
-0.221629
0.00685819
-0.0241859
-0.371732
-0.603594
-0.461928
-0.414498
-0.446211
-0.362318
-0.252052
-0.25672
-0.276484
-0.0851034
0.0708754
-0.011937
-0.095486
-0.0590342
-0.115697
-0.187307
-0.0952254
0.119973
0.185101
0.151982
0.20616
0.315678
0.127579
-0.177566
-0.190856
-0.13294
-0.160421
)
;
    }
    procBoundary2to3
    {
        type            processor;
        value           nonuniform List<scalar> 
256
(
-0.16977
-0.0202605
-0.311789
-0.583401
-0.316665
-0.110246
-0.311452
-0.712692
-0.660189
-0.360985
-0.184065
-0.199229
-0.346445
-0.4586
-0.279386
-0.0886344
0.0594213
0.151306
0.130869
0.0525958
0.0702084
0.207824
0.161632
0.0217404
-0.01153
0.0794276
0.0347256
-0.0779538
0.00963303
0.0277687
-0.238141
-0.375634
-0.200454
-0.142403
-0.307194
-0.422099
-0.381324
-0.34335
-0.311814
-0.572861
-0.658583
-0.385519
-0.259236
-0.317748
-0.218115
-0.240274
-0.250682
-0.0477455
0.120577
0.163612
0.0767902
0.0368014
0.142774
0.292997
0.162425
0.0351093
0.0618912
0.062446
-0.0142359
-0.0345889
0.0317812
-0.0830804
-0.233763
-0.275683
-0.162466
-0.103074
-0.180358
-0.212832
-0.286564
-0.333662
-0.327782
-0.465937
-0.602656
-0.450953
-0.323707
-0.27722
-0.231411
-0.31643
-0.258082
-0.0195704
0.104354
-0.00717988
-0.104156
0.035745
0.0725508
0.165385
0.166462
0.0465536
0.0120376
0.0621746
-0.00062658
-0.0563938
0.0198589
-0.127867
-0.29549
-0.255864
-0.701782
-0.249038
-0.154212
-0.235516
-0.254539
-0.317662
-0.280747
-0.364326
-0.423496
-0.510501
-0.402118
-0.214707
-0.23949
-0.326012
-0.120457
0.110608
0.112392
-0.08804
-0.125337
0.0867862
0.199788
0.226589
0.130694
-0.0498325
0.00179919
0.16016
0.0811525
-0.0594399
-0.0631283
0.115694
-0.0970451
-0.56254
-0.20212
-0.161683
-0.212626
-0.168959
-0.158224
-0.282172
-0.363098
-0.47248
-0.523655
-0.497242
-0.357058
-0.305016
-0.260996
-0.23482
-0.0469086
0.0204026
-0.0851207
-0.205005
-0.0198316
0.108692
0.115245
0.108498
-0.00549486
0.00903477
0.110604
0.126848
0.130718
0.0721543
-0.142584
-0.270924
-0.209389
-0.219886
-0.512389
-0.221709
-0.0935716
-0.0948902
-0.117832
-0.182817
-0.248287
-0.369453
-0.719884
-0.677215
-0.221688
-0.192676
-0.274111
-0.217238
-0.0727461
-0.085932
-0.170487
-0.0995726
0.039181
0.0917079
0.0636534
-0.0130787
-0.122072
0.0153584
0.300343
0.229478
-0.013559
-0.0266373
-0.0235652
-0.0848857
-0.215856
-0.475214
-0.302345
-0.210046
-0.239748
-0.153514
-0.136762
-0.320907
-0.374058
-0.313524
-0.479082
-0.534861
-0.369934
-0.346837
-0.370493
-0.201237
0.0222776
0.00719999
-0.100556
-0.179635
-0.15502
-0.0927323
0.0818157
0.119909
0.0341069
0.0456354
0.134199
0.0744075
-0.0959241
-0.090296
-0.0583289
-0.0825533
-0.0846335
-0.246649
-0.324515
-0.306322
-0.161481
-0.0345882
-0.117814
-0.311835
-0.36639
-0.336788
-0.481365
-0.541195
-0.448771
-0.361003
-0.254132
-0.0729619
-0.0471403
-0.111985
-0.0617303
-0.0601088
-0.156651
-0.00159424
0.104003
0.00689288
-0.138386
-0.0709938
0.08032
0.0480221
-0.0743259
-0.0293863
0.0111603
-0.0181371
-0.076286
-0.161566
)
;
    }
}


// ************************************************************************* //
