/*--------------------------------*- C++ -*----------------------------------*\
| =========                 |                                                 |
| \\      /  F ield         | OpenFOAM: The Open Source CFD Toolbox           |
|  \\    /   O peration     | Version:  2506                                  |
|   \\  /    A nd           | Website:  www.openfoam.com                      |
|    \\/     M anipulation  |                                                 |
\*---------------------------------------------------------------------------*/
FoamFile
{
    version     2.0;
    format      ascii;
    arch        "LSB;label=32;scalar=64";
    class       surfaceScalarField;
    location    "0.01";
    object      phi;
}
// * * * * * * * * * * * * * * * * * * * * * * * * * * * * * * * * * * * * * //

dimensions      [0 3 -1 0 0 0 0];

oriented        oriented;

internalField   nonuniform List<scalar> 
1200
(
0.00154502
-1.88538e-06
9.50529e-06
0.00154269
-2.75149e-07
8.16375e-07
0.00154093
4.51779e-06
-5.59972e-06
0.00154288
2.95063e-06
-2.09393e-06
0.00154464
8.00343e-07
2.16305e-06
0.00154658
2.40718e-07
1.92882e-06
0.00154899
-8.60013e-07
-1.178e-05
0.00154915
-1.54979e-06
-1.17922e-05
0.00154219
-1.35658e-06
-2.07838e-06
0.00154147
-5.75315e-07
3.37514e-06
0.00154048
3.88049e-07
4.83064e-06
0.00153757
1.59665e-06
7.24119e-06
0.00153744
-2.48659e-08
1.80761e-06
0.00153942
-5.89915e-07
-3.48018e-06
0.00154235
1.04501e-06
-2.99053e-06
0.0015465
-5.83628e-08
-1.00465e-06
0.00154625
-2.92962e-07
7.9874e-07
0.00154111
1.4518e-06
-4.98202e-07
0.00153898
4.62362e-07
-3.3593e-06
0.00153752
2.01003e-07
-3.05855e-06
0.00153594
1.1601e-07
-7.38559e-08
0.0015354
-3.50372e-07
2.36358e-06
0.00153419
-8.97139e-07
3.92682e-06
0.00153484
-2.19792e-06
-9.5078e-07
0.00153728
-3.17058e-06
-3.20076e-06
0.00154127
-2.86306e-06
-8.60483e-07
0.00154395
-2.68154e-06
1.22938e-06
0.0015456
-4.34518e-07
-5.11015e-07
0.00154606
9.11717e-07
-1.69785e-06
0.00154654
-8.9062e-09
-2.72191e-06
0.00154855
-3.98717e-07
-7.12211e-07
-1.13428e-06
8.25378e-06
0.00156631
-2.12372e-06
4.18813e-06
0.00156152
1.2197e-06
8.28097e-07
0.00156064
4.16302e-06
-2.12452e-07
0.00156327
4.06553e-06
-8.43539e-08
0.00157291
4.03267e-08
-4.28798e-07
0.00158202
-1.19124e-06
-2.38936e-06
0.00158079
-6.88391e-07
-4.98384e-06
0.00157584
-1.76273e-06
-3.74616e-06
0.0015692
-2.14343e-06
1.02316e-06
0.0015721
-3.62223e-06
2.07187e-06
0.00157745
-1.32325e-06
2.94466e-06
0.0015783
2.38304e-06
4.62367e-06
0.00157422
2.74305e-06
2.62754e-06
0.00157084
2.49493e-06
-1.54096e-07
0.00157229
2.30238e-06
-1.90801e-06
0.00157377
-3.61541e-07
-1.09602e-06
0.0015727
-7.09371e-07
1.32904e-07
0.00157237
5.85986e-07
-2.34782e-06
0.00157371
-1.0467e-07
-3.46567e-06
0.00157502
-1.91112e-06
-4.00232e-07
0.00157499
-3.00992e-06
6.69776e-07
0.00157264
-1.55288e-06
6.34608e-07
0.00156732
7.55426e-07
3.39002e-06
0.00156442
7.37086e-08
6.03618e-07
0.00156664
-3.07204e-06
-1.90661e-06
0.00156978
-3.09933e-06
-6.88461e-08
0.00156931
-1.47715e-06
6.06625e-07
0.0015704
7.64797e-07
-2.44644e-06
0.00157351
4.52491e-07
-1.19168e-06
0.00157481
-8.17378e-07
1.2448e-06
0.00157316
-1.76867e-06
4.51768e-06
-3.37948e-06
5.75135e-06
0.00156276
1.67204e-07
3.61384e-06
0.00156168
1.1117e-06
1.01262e-06
0.00156234
2.74586e-06
2.3496e-06
0.0015684
2.2575e-06
7.75554e-08
0.00157905
-1.29282e-06
-1.9066e-06
0.00158703
-1.73051e-06
-2.58831e-06
0.00158442
-1.41656e-08
-3.50763e-06
0.0015762
3.28617e-07
-2.48284e-06
0.00156819
-1.9734e-06
9.00225e-08
0.0015675
-5.82182e-06
2.03841e-06
0.00156532
-7.40931e-07
2.278e-06
0.00156341
4.4608e-06
1.70016e-06
0.00156633
2.52821e-06
-1.55881e-07
0.00157258
-1.8287e-06
-1.88905e-06
0.00157547
2.29023e-07
-1.91457e-06
0.00156889
2.89815e-06
8.99783e-07
0.00156364
2.32621e-06
-5.0198e-07
0.00156768
-1.35084e-07
-4.07761e-06
0.00157213
-4.63174e-07
-3.21508e-06
0.00157325
-1.6357e-07
-3.47082e-06
0.00157207
-9.97381e-07
-3.47896e-06
0.00157146
-2.12136e-06
4.03485e-07
0.00156736
1.14519e-06
3.96782e-06
0.00156157
2.14307e-06
3.83951e-06
0.00155862
-1.13997e-06
-2.87965e-07
0.00155731
-1.3833e-06
-1.38583e-07
0.00156166
-1.48403e-06
-1.83616e-06
0.00156552
-8.78973e-08
-2.96808e-06
0.00156576
-1.40108e-07
-1.63639e-06
0.00156799
-3.99858e-06
1.05755e-06
0.00156975
-5.59999e-06
4.5181e-06
-4.49175e-06
6.49255e-06
0.00157659
-1.79169e-06
3.3391e-06
0.00157591
1.4405e-06
6.00149e-07
0.00157626
3.52664e-06
-6.63539e-07
0.001573
5.01705e-06
1.10228e-06
0.00157209
3.86486e-06
2.48261e-07
0.00157953
-2.23236e-07
-4.26696e-06
0.00158651
-5.23269e-07
-5.21937e-06
0.00158625
2.02599e-06
-3.0652e-06
0.00157741
1.00942e-06
7.6069e-07
0.00156858
-2.52836e-06
3.22765e-06
0.00156876
-2.49351e-06
4.15508e-06
0.00157158
1.73149e-07
5.06966e-06
0.00157272
1.05769e-07
4.56193e-06
0.00156875
1.95348e-06
1.63773e-06
0.00156756
1.8007e-06
-3.94223e-07
0.00156805
1.83365e-06
-1.32832e-06
0.00156714
2.01525e-06
-9.6255e-07
0.00156953
-7.53911e-07
-2.47065e-06
0.00157372
-3.13082e-06
-2.46383e-06
0.00157584
-2.19278e-06
-2.40045e-06
0.00157599
-1.87518e-06
-1.12647e-06
0.00157442
-2.42412e-06
1.50027e-06
0.00157406
-8.7434e-07
2.38227e-06
0.00157388
1.9466e-06
-4.39213e-07
0.00157329
1.37885e-06
-2.00664e-06
0.00157313
9.90058e-07
-2.47854e-06
0.00157334
2.60225e-07
-2.69745e-06
0.00157549
-5.9452e-07
-3.37073e-06
0.00157543
-7.57501e-07
-2.19803e-07
0.00157291
-2.12702e-06
1.96747e-06
0.00157495
-6.36677e-06
2.53373e-06
-6.75452e-06
4.73044e-06
0.00156684
-5.6938e-06
3.73277e-06
0.00156689
-1.14005e-06
1.88834e-06
0.00156654
4.18853e-06
1.74207e-06
0.00156682
3.58772e-06
2.65779e-06
0.00156713
3.58912e-06
5.15231e-07
0.0015713
-8.2523e-07
-1.92444e-06
0.00157702
-1.65259e-06
-4.15151e-06
0.00158053
2.24023e-06
-3.75571e-06
0.00157333
5.92774e-06
2.34131e-07
0.0015655
3.37981e-06
-1.77325e-07
0.00157056
-3.48731e-06
-2.14275e-06
0.00157558
-4.15531e-06
1.74713e-07
0.00157141
-1.52316e-06
3.90976e-06
0.00156715
3.26826e-06
1.85747e-06
0.0015664
2.0694e-06
8.21207e-07
0.00156574
1.10075e-06
-9.66468e-07
0.00156692
1.46121e-06
-3.98593e-06
0.00156858
1.39112e-06
-3.32042e-06
0.00157212
-1.1642e-06
-2.59934e-06
0.0015759
-2.09044e-06
-2.08782e-06
0.00157521
-1.17806e-06
-4.47385e-08
0.00156706
1.31132e-06
8.38231e-07
0.00156174
2.55356e-06
4.05086e-07
0.00156465
7.40831e-07
-1.10732e-06
0.00157012
-8.33418e-07
-3.6137e-06
0.00157001
9.84166e-07
-1.79166e-06
0.00156803
1.89542e-06
-3.2369e-07
0.00156718
6.78417e-07
5.99392e-07
0.00156563
-4.53046e-07
-1.78775e-06
0.00156692
-2.1158e-06
-8.87877e-07
0.00156816
-2.4071e-06
2.20319e-06
-3.65304e-06
4.44222e-06
0.001563
-7.33926e-06
4.7774e-06
0.00156295
-4.87984e-06
5.46362e-06
0.00156756
8.95226e-07
7.39601e-07
0.0015715
2.70637e-06
-2.60889e-06
0.00156986
4.83667e-06
-5.00407e-07
0.00156393
1.59056e-06
2.1065e-06
0.00156047
-1.74278e-06
3.38219e-06
0.00156223
4.37578e-07
1.60768e-06
0.00156745
3.06967e-06
-7.7935e-07
0.00157081
9.81373e-07
-2.78773e-06
0.00157055
-1.93111e-06
-2.86997e-06
0.0015682
-2.92344e-06
4.72305e-07
0.00156543
-7.64478e-07
1.34902e-06
0.00156722
1.69766e-06
-1.02802e-06
0.00156698
2.59198e-06
-1.05393e-06
0.00156488
-1.20956e-07
5.92757e-07
0.00156868
-3.217e-06
-1.10031e-06
0.00157423
-5.28966e-07
-3.06789e-07
0.00157301
1.49408e-06
3.39761e-07
0.00156999
-1.88728e-06
1.63673e-07
0.00156817
-2.53206e-06
1.1997e-06
0.00156625
2.60655e-07
6.83745e-07
0.00156506
2.09226e-06
2.33766e-07
0.00156472
1.93892e-07
2.80492e-07
0.00156577
-1.37793e-06
-3.73985e-07
0.00156861
-1.10743e-06
-1.28757e-06
0.00157232
-5.15926e-07
-1.73643e-06
0.00157375
1.07259e-06
-2.44772e-06
0.00157235
1.65171e-06
-2.84061e-06
0.0015672
2.55151e-06
-7.84525e-07
0.00156545
2.39471e-06
3.82449e-08
-1.49722e-06
1.29899e-06
0.00156593
-4.13418e-06
4.65726e-06
0.00156335
-1.32181e-06
2.00354e-06
0.00156609
1.58898e-06
-2.33812e-06
0.0015703
8.61254e-07
-1.601e-06
0.00157577
1.59136e-06
1.01686e-06
0.00157197
-4.07959e-07
6.00398e-06
0.00156481
-1.92254e-06
7.02896e-06
0.00156523
-8.87885e-07
2.13051e-06
0.00156806
1.36131e-06
1.27188e-06
0.00156788
-7.19726e-07
-1.82693e-08
0.00157065
-3.87212e-06
-5.77899e-07
0.00157241
-1.9806e-07
-3.22709e-06
0.00157267
7.0217e-07
-2.44779e-06
0.00157196
4.2983e-07
1.60347e-06
0.00157142
1.62837e-06
1.36787e-06
0.00156738
1.40733e-06
-1.53859e-06
0.00156068
1.42939e-06
-1.99701e-06
0.00155997
1.06199e-06
-1.45345e-06
0.00156334
1.48044e-06
-2.37513e-06
0.00156411
-9.5375e-07
-1.1377e-06
0.00156479
-3.78444e-06
4.41338e-06
0.00156636
-1.35897e-06
4.60913e-06
0.00156903
5.80623e-07
3.28073e-06
0.00157152
-1.74995e-06
-8.28174e-07
0.0015724
-4.19012e-07
-3.81532e-06
0.00157264
-5.35421e-07
-1.70691e-06
0.00157348
-1.69731e-06
-1.29461e-06
0.00157494
-9.43753e-07
-5.22964e-08
0.0015743
-2.05412e-07
4.2619e-06
0.00157527
-6.30882e-07
2.4246e-06
0.00157724
1.70616e-06
-4.36519e-06
-3.20842e-07
-1.0462e-06
0.00153666
3.62371e-07
0.00153839
-1.57118e-06
0.00154306
-2.32762e-06
0.00154648
-1.06893e-06
0.0015502
1.21944e-06
0.00154883
3.66213e-06
0.00154231
3.7779e-06
0.0015417
1.06433e-06
0.00154675
-1.82721e-06
0.00154272
7.96914e-07
0.00153616
2.24678e-06
0.00154001
-9.73752e-07
0.00154161
-1.96517e-07
0.00154093
-1.56999e-07
0.00154459
-4.3629e-06
0.00154682
-3.6001e-06
0.00154493
2.1873e-06
0.00154477
2.32474e-06
0.00154829
-9.69363e-07
0.0015464
1.39535e-06
0.00154159
2.11992e-06
0.00154213
-1.91932e-06
0.00154469
-2.05278e-06
0.00154221
-1.02312e-06
0.00154053
-1.19471e-06
0.00154116
-2.60968e-06
0.00154262
-4.54432e-06
0.00154186
-1.62621e-06
0.00154079
3.29358e-06
0.0015423
3.27077e-06
0.00154293
1.88577e-06
1.74163e-06
0.00154856
-3.10838e-06
0.00154836
-1.16158e-06
0.00153798
4.39917e-06
0.00153496
2.24711e-06
0.00154196
-1.82582e-06
0.0015478
-3.74123e-07
0.00154468
-5.66072e-07
0.00154048
-1.61399e-06
0.00153676
-2.31646e-06
0.00153998
-2.78642e-06
0.00154097
-1.41798e-06
0.00154031
7.76283e-07
0.00153754
1.07232e-06
0.00153713
-2.16121e-06
0.00153962
-2.60843e-06
0.00153893
6.87287e-07
0.00153947
5.22862e-07
0.00154345
-2.46428e-06
0.00154316
-7.36196e-07
0.00154146
1.70812e-06
0.00154105
3.53893e-06
0.0015417
2.50378e-06
0.00154116
1.58712e-06
0.00154138
-8.25413e-07
0.00154261
-1.05377e-06
0.00154351
1.01517e-06
0.0015457
4.40386e-07
0.00154568
-6.13308e-07
0.00154322
-3.25074e-07
0.00153796
-6.63813e-07
0.00153305
1.02621e-08
-1.48281e-06
0.00157715
-2.30754e-06
0.00157712
-2.65395e-06
0.00158031
2.10555e-06
0.00157896
4.65161e-06
0.00157855
7.37164e-07
0.00158117
3.79661e-07
0.00157859
3.00389e-06
0.00157516
8.23832e-07
0.00157436
-3.27412e-06
0.0015737
-3.18522e-06
0.00157095
-1.32653e-07
0.00156938
6.3158e-07
0.00156817
8.51761e-07
0.00156676
-1.15029e-06
0.00156478
-2.41262e-06
0.00156645
-7.81301e-07
0.00156837
2.69474e-07
0.00156322
1.66561e-06
0.00155937
1.37171e-06
0.00156334
-1.18826e-06
0.00157074
-1.11761e-06
0.00157518
-1.76549e-07
0.00157628
2.16652e-06
0.00157355
2.74899e-06
0.00157196
8.33832e-07
0.00157273
1.49852e-06
0.00157099
1.80868e-06
0.00157067
-1.42298e-06
0.00157236
-2.21116e-06
0.00157335
-1.81386e-06
0.00157666
-2.33957e-06
-1.62159e-06
0.00156606
9.48713e-07
0.00156455
-1.17133e-06
0.00157518
5.78592e-08
0.0015816
3.7112e-06
0.00158166
1.77107e-06
0.00158127
2.55227e-07
0.00158297
1.4023e-06
0.00158199
1.2282e-06
0.00157629
-3.85456e-06
0.00157247
-4.22727e-06
0.00157175
6.93449e-07
0.00156982
2.91479e-06
0.00156832
2.1974e-06
0.00156867
-3.21509e-07
0.00156834
-8.62153e-07
0.00156968
-9.80049e-08
0.00156805
9.04163e-07
0.00156478
1.63728e-06
0.00156703
-8.80222e-07
0.00156783
-2.0042e-06
0.00156492
-1.48343e-06
0.00156567
-1.75194e-06
0.00157023
-2.7836e-07
0.00157371
2.30169e-06
0.00157225
1.81521e-06
0.00157407
-7.15532e-07
0.00157503
-2.32743e-07
0.00157284
-4.51091e-07
0.00157108
-3.63137e-07
0.00156933
-2.15443e-07
0.0015697
-1.41519e-06
-7.48924e-08
0.00157541
-3.21253e-06
0.00157594
-1.41703e-06
0.00157521
6.6859e-07
0.00157606
4.18299e-06
0.00157721
1.62163e-06
0.00157706
-2.55643e-06
0.00157923
-2.27373e-07
0.00157923
3.39943e-06
0.0015707
3.04417e-06
0.00156699
-6.4878e-07
0.00157132
-3.10661e-06
0.00157561
-1.50165e-06
0.00157614
1.17715e-06
0.00157287
1.76825e-06
0.00156899
2.06109e-06
0.00156864
2.3352e-07
0.00157159
-1.63865e-06
0.00157345
-1.82127e-06
0.00157571
-3.86197e-06
0.00157767
-3.28288e-06
0.00157709
-5.69448e-07
0.001575
1.91938e-06
0.00157377
3.06547e-06
0.00157396
2.20743e-06
0.00157294
1.04618e-06
0.00157345
-1.37758e-06
0.00157257
-4.22682e-07
0.00157001
-1.45523e-07
0.0015705
-3.53033e-07
0.00157025
1.78085e-06
0.00156728
2.52215e-06
-9.99959e-07
0.00157412
-2.8145e-06
0.00157096
1.80945e-06
0.00156906
2.29088e-06
0.00156992
5.81928e-06
0.00157132
1.29724e-06
0.00157073
-3.2707e-06
0.00157282
-1.2222e-06
0.00157662
1.49985e-06
0.00157645
2.31826e-06
0.00157145
1.49031e-06
0.00156918
-2.16044e-06
0.00157072
-3.12044e-06
0.0015702
8.91765e-07
0.00156387
6.29692e-06
0.00156222
4.0071e-06
0.00156655
-2.51862e-06
0.0015673
-3.95433e-06
0.00156986
-4.92489e-06
0.00156967
-3.62887e-06
0.00156937
-2.417e-06
0.00157046
1.05512e-06
0.00157147
3.29823e-06
0.00157199
3.4069e-06
0.00157229
1.85071e-06
0.00157088
3.6249e-07
0.00157044
-2.00044e-06
0.0015727
-1.34756e-06
0.00157555
-1.88723e-06
0.00157545
-2.8879e-06
0.00157337
-1.3392e-06
0.00157378
-9.21246e-07
-2.64714e-06
0.00156003
-1.51486e-06
0.0015652
4.19758e-07
0.0015665
3.60119e-06
0.001568
4.84093e-06
0.00156819
-3.80686e-07
0.00156694
-2.4296e-06
0.0015736
-1.22788e-06
0.00158197
-4.09137e-07
0.00158119
-1.00445e-07
0.00157442
2.19339e-07
0.00157053
-1.91165e-06
0.00156983
-3.40081e-06
0.00157197
-1.66632e-06
0.00157341
5.96609e-06
0.00157395
5.80782e-06
0.00157554
-3.50965e-06
0.00157401
-4.01971e-06
0.00157066
-1.87962e-06
0.00157085
-2.9572e-06
0.00157131
-3.45551e-06
0.00157204
6.62571e-07
0.00157264
2.9177e-06
0.00157225
1.84066e-06
0.00157194
-3.65298e-07
0.00157018
-1.07204e-07
0.00156523
4.86184e-07
0.00156528
-1.31394e-06
0.00156557
-2.35694e-06
0.00156672
-3.80416e-06
0.00157078
-2.89063e-06
0.0015702
-3.53215e-07
-2.07382e-07
0.00156331
6.98928e-08
0.00156353
1.41725e-06
0.00156514
3.30402e-06
0.00156847
3.20438e-06
0.00156496
1.60047e-06
0.00156657
-5.86393e-07
0.00157442
-2.72431e-06
0.00157891
-2.62706e-06
0.00158087
-1.68466e-06
0.00158302
-1.10501e-06
0.00158088
6.29983e-07
0.00157468
1.351e-06
0.00157311
-4.09705e-07
0.00158035
9.66031e-07
0.00158335
4.49246e-06
0.00157197
4.38123e-06
0.00156063
2.4195e-06
0.00155713
1.39415e-07
0.0015538
-6.57069e-07
0.00155401
-2.97976e-06
0.0015661
-6.52796e-06
0.0015767
-1.82218e-06
0.00157982
2.16841e-06
0.00157655
1.29041e-06
0.00157348
3.61231e-07
0.0015734
-3.55819e-08
0.00157131
-7.23455e-07
0.00157005
-2.53409e-06
0.00157003
-2.71075e-06
0.0015701
-1.65703e-06
0.00156937
-2.56826e-06
-1.25508e-06
0.00153789
0.00153706
0.0015424
0.00154656
0.00154801
0.00154667
0.00154407
0.0015421
0.00154056
0.00154091
0.00154314
0.00154486
0.00154582
0.0015482
0.00154884
0.0015468
0.00154597
0.0015455
0.00154538
0.0015445
0.00154081
0.00153898
0.00154059
0.00154211
0.00154198
0.00154143
0.00153756
0.0015338
0.00153456
0.0015383
0.00154084
)
;

boundaryField
{
    wall
    {
        type            calculated;
        value           uniform 0;
    }
    outlet
    {
        type            cyclic;
        value           nonuniform List<scalar> 
16
(
0.00154789
0.00157093
0.00156746
0.00157699
0.0015671
0.00156548
0.00157322
0.00154067
0.00153834
0.0015785
0.00157164
0.00157009
0.00157433
0.00156323
0.00156648
0.00154104
)
;
    }
    inlet
    {
        type            cyclic;
        value           nonuniform List<scalar> 
16
(
-0.00154789
-0.00157093
-0.00156746
-0.00157699
-0.0015671
-0.00156548
-0.00157322
-0.00154067
-0.00153834
-0.0015785
-0.00157164
-0.00157009
-0.00157433
-0.00156323
-0.00156648
-0.00154104
)
;
    }
    procBoundary2to1
    {
        type            processor;
        value           nonuniform List<scalar> 
256
(
-4.75623e-06
1.78803e-06
2.8497e-06
-2.8102e-06
-4.72269e-06
-4.10837e-06
1.02329e-05
1.3178e-05
1.03908e-05
-2.07516e-06
-4.23251e-06
-5.9216e-06
-1.65212e-06
2.08293e-06
-9.80978e-07
-3.08886e-06
-2.52292e-07
4.18502e-06
5.02471e-06
4.31791e-06
1.53502e-06
-1.47307e-06
-1.81737e-06
2.49865e-06
3.93607e-06
-2.6598e-07
-1.22939e-06
-7.0581e-07
3.28944e-07
2.24522e-06
-8.99488e-07
-6.45423e-06
6.66589e-07
2.47436e-06
1.44615e-06
-3.66063e-06
-8.45354e-06
-5.29153e-06
6.05027e-06
8.90322e-06
6.40172e-06
-1.9218e-06
-6.58277e-06
-6.26053e-06
-1.31313e-06
4.4212e-07
-7.89468e-07
-8.90494e-08
1.35654e-06
3.54632e-06
2.68825e-06
1.20716e-06
2.48502e-06
2.91289e-06
2.79639e-07
2.94431e-08
-4.20399e-07
-2.83248e-06
-1.34184e-06
1.5632e-07
-1.4594e-06
-1.7314e-06
-1.50227e-06
-1.27296e-06
-1.20347e-06
1.75131e-07
-1.60015e-06
-4.32288e-06
-7.411e-06
-4.8557e-06
5.44214e-06
8.61787e-06
7.74257e-06
8.5767e-07
-6.82069e-07
-1.87026e-06
-2.5489e-06
-3.6478e-08
1.10168e-06
2.41707e-06
2.71563e-06
7.63992e-07
-8.76601e-07
5.93952e-07
2.65387e-06
7.73119e-07
-2.6064e-07
-1.16993e-07
1.30141e-06
-2.65503e-07
-2.5036e-06
-3.98439e-08
1.98434e-06
-9.92976e-08
-2.45327e-06
-3.08335e-06
-9.76726e-07
-2.52589e-07
-4.63152e-07
-6.03306e-07
-4.49968e-06
-4.68011e-06
-1.25122e-06
1.63161e-06
5.0988e-06
2.30896e-06
-2.58756e-06
-3.60091e-06
-3.27506e-06
-1.45536e-06
8.37388e-09
1.90653e-06
2.18346e-06
7.02533e-07
9.38178e-07
2.3099e-06
1.8528e-06
3.76856e-07
-4.35861e-09
8.12831e-07
8.549e-08
2.60432e-07
7.38939e-07
1.73314e-06
8.92185e-07
-1.31847e-06
-3.80009e-06
-4.51288e-06
4.36607e-07
6.32762e-07
-2.05139e-06
-1.50835e-06
-5.51065e-07
-1.63794e-06
-4.44431e-07
3.25202e-08
2.05017e-06
2.10248e-06
-1.92501e-06
-8.71354e-07
1.88873e-06
1.08892e-06
-3.33751e-07
2.35479e-06
3.36419e-06
-4.87076e-07
-2.90666e-06
-1.8002e-06
4.61459e-08
3.57007e-06
1.49239e-06
-6.00568e-07
3.52945e-07
1.91255e-06
6.67044e-07
-1.02527e-06
3.03197e-06
-4.12272e-07
-7.40345e-06
-6.48302e-06
-6.46151e-07
-1.67184e-06
-2.06394e-06
-4.46411e-07
8.97788e-07
1.40254e-06
1.6803e-07
-1.56221e-06
-1.58301e-06
1.82154e-06
1.57466e-06
6.43223e-07
6.67227e-07
8.10245e-07
7.69456e-07
2.72725e-06
1.9846e-06
-3.32404e-06
-1.78593e-06
2.6555e-06
1.97367e-06
2.28577e-06
1.41893e-06
6.08788e-07
-1.28336e-07
5.40171e-07
4.36118e-07
6.1888e-07
2.14029e-06
1.26455e-06
-3.08507e-06
-3.49324e-06
-5.64765e-07
-2.98135e-06
-1.09643e-06
-7.69982e-07
-3.23758e-06
-2.04987e-07
3.13348e-07
-1.23128e-06
-2.38694e-06
1.89149e-06
-2.44388e-07
-1.25741e-06
7.17482e-07
3.70176e-07
1.36087e-07
4.05261e-06
4.05601e-06
5.69588e-07
-9.82006e-07
-5.68488e-07
-3.83874e-06
-4.55651e-06
-4.44161e-06
2.78951e-07
1.98335e-06
8.93905e-07
1.63615e-06
6.01811e-07
-1.76139e-06
-2.08645e-07
3.08059e-06
3.88527e-06
-4.8221e-07
-1.48855e-06
-7.44647e-07
-1.49381e-06
-3.34476e-06
-2.70859e-06
8.27795e-07
-1.34601e-06
-1.86114e-06
2.50822e-06
4.46938e-07
-3.07206e-06
-7.03649e-07
1.27026e-06
2.32921e-06
2.77018e-06
1.1369e-06
-1.10204e-06
-1.07414e-06
-4.56539e-07
-1.09429e-06
1.7083e-08
7.93914e-08
1.75514e-06
2.44794e-06
1.4493e-06
1.38345e-06
1.44358e-06
-2.4313e-06
-5.40638e-06
-8.09377e-07
1.95042e-07
)
;
    }
    procBoundary2to3
    {
        type            processor;
        value           nonuniform List<scalar> 
256
(
2.39604e-06
2.17717e-06
3.80921e-07
-1.32001e-06
-3.00692e-06
-3.53665e-06
-8.09757e-06
-5.98373e-06
3.9671e-06
2.93828e-06
5.25672e-06
7.12741e-06
3.50227e-06
-9.05289e-07
-2.8769e-06
-1.00025e-06
-2.68309e-07
-2.01109e-06
-2.33498e-06
-3.06066e-06
-3.20003e-06
-7.9916e-07
2.88794e-06
-3.48352e-07
-3.37428e-06
-2.77948e-06
-1.40467e-06
1.29052e-07
1.08042e-06
3.20798e-06
4.18549e-06
4.44379e-06
4.73059e-06
2.3564e-06
-1.11325e-06
-1.13444e-06
-2.58342e-06
-5.76725e-06
-5.97259e-06
-2.74732e-06
2.77624e-06
3.13197e-06
4.41295e-06
6.33258e-06
4.05654e-06
2.50726e-07
-1.22975e-07
-1.30548e-06
-1.52423e-06
-1.3373e-06
-1.71794e-06
-1.47452e-06
-2.07071e-06
-1.129e-06
1.71321e-06
-2.39828e-07
-2.20655e-06
-1.32412e-06
9.84977e-07
-1.3223e-06
-9.98038e-07
1.40452e-06
3.56056e-06
4.05262e-06
5.93045e-06
1.04144e-06
-6.2299e-06
-5.40257e-06
-2.99851e-06
-2.07566e-06
-3.60487e-06
-1.90694e-06
6.37241e-06
6.89839e-06
2.16902e-06
1.34779e-06
-6.03449e-09
-3.0673e-06
-3.13126e-06
-1.12273e-06
4.96761e-07
-7.83924e-07
-3.21601e-06
-3.45489e-06
-1.96977e-07
1.22961e-06
1.84971e-06
8.04055e-07
1.97189e-07
2.4682e-07
-7.53116e-07
-1.74562e-06
-1.72376e-06
1.20307e-06
3.22991e-06
3.0075e-06
2.18084e-06
3.17934e-07
-5.39802e-07
-2.18397e-07
-7.6126e-07
-1.30022e-06
-5.76522e-06
-5.23287e-06
2.39431e-06
3.35401e-06
3.62435e-06
5.20447e-06
5.04963e-06
2.81442e-06
5.61994e-07
-1.30785e-06
-1.37345e-06
-8.71897e-07
-1.73635e-06
-3.08757e-06
-1.45153e-06
-8.91051e-08
2.72937e-07
-5.38054e-07
-2.13662e-07
-2.33249e-06
-1.62767e-06
-1.11525e-06
-7.13976e-07
2.20706e-07
1.56822e-06
2.83822e-06
3.54934e-06
1.8212e-06
2.02123e-06
1.57472e-07
-5.56603e-07
-6.22946e-07
-5.25001e-06
-5.65082e-06
1.12641e-06
2.68655e-06
-8.17586e-07
2.48678e-07
4.71631e-06
3.66063e-06
5.20835e-07
-2.53977e-06
-2.42444e-06
-2.77744e-06
-2.64304e-06
-2.64905e-06
-2.76471e-06
-1.54801e-06
-4.56058e-07
-1.04594e-06
-1.52784e-06
-7.27608e-07
-1.65593e-06
-5.11996e-07
8.54707e-07
4.3068e-06
5.23323e-06
5.54261e-06
6.67986e-06
1.68389e-06
-1.87736e-06
-3.12927e-06
9.92908e-07
2.51024e-06
-3.26773e-06
-4.85881e-06
2.42199e-06
5.24825e-06
7.73262e-07
1.45261e-06
1.76496e-06
-2.13381e-06
-3.39487e-06
-8.23393e-09
4.96618e-07
-5.16647e-09
-5.15847e-07
7.4461e-07
8.53664e-07
4.71763e-07
2.19019e-06
2.80579e-06
1.85228e-06
1.17559e-06
-1.81497e-06
-2.27298e-06
-3.07322e-06
-3.28981e-06
4.20703e-08
5.83611e-06
6.2401e-06
7.82169e-07
-3.64603e-06
-3.2923e-06
2.542e-06
2.54974e-06
6.80375e-07
-1.48145e-07
8.93353e-07
-8.44046e-07
-9.75535e-07
-1.77423e-06
-2.14166e-06
-6.33615e-07
-3.15079e-07
1.94827e-06
2.90831e-06
2.15354e-08
-1.34242e-06
-1.82169e-06
-4.84153e-07
-1.25191e-06
-1.73137e-07
7.84911e-07
-1.20749e-06
-1.10839e-06
2.09022e-07
1.38607e-06
3.18568e-06
1.11586e-06
-1.41729e-06
2.89614e-06
3.57818e-06
6.75625e-07
-4.36055e-06
-2.02245e-06
1.36897e-06
4.41473e-06
3.64855e-06
4.08112e-07
-1.96529e-06
-6.61469e-07
6.43551e-07
-1.34348e-06
-1.55933e-06
-1.57493e-06
-5.136e-07
2.82298e-06
5.43624e-06
2.93466e-06
-1.4993e-06
-7.08095e-07
-7.19687e-07
-1.90588e-06
-1.50055e-06
-1.2477e-06
-7.11809e-07
-2.09189e-06
-1.39632e-06
-3.95978e-07
-1.79686e-07
-2.13172e-06
-3.21585e-06
2.85493e-07
)
;
    }
}


// ************************************************************************* //
