/*--------------------------------*- C++ -*----------------------------------*\
| =========                 |                                                 |
| \\      /  F ield         | OpenFOAM: The Open Source CFD Toolbox           |
|  \\    /   O peration     | Version:  2506                                  |
|   \\  /    A nd           | Website:  www.openfoam.com                      |
|    \\/     M anipulation  |                                                 |
\*---------------------------------------------------------------------------*/
FoamFile
{
    version     2.0;
    format      ascii;
    arch        "LSB;label=32;scalar=64";
    class       volVectorField;
    location    "0.01";
    object      Us;
}
// * * * * * * * * * * * * * * * * * * * * * * * * * * * * * * * * * * * * * //

dimensions      [0 1 -1 0 0 0 0];

internalField   uniform (0 0 0);

boundaryField
{
    wall
    {
        type            zeroGradient;
    }
    outlet
    {
        type            cyclic;
    }
    inlet
    {
        type            cyclic;
    }
    procBoundary2to1
    {
        type            processor;
        value           uniform (0 0 0);
    }
    procBoundary2to3
    {
        type            processor;
        value           nonuniform List<vector> 
256
(
(0 0 0)
(0.163035 -3.33862e-05 -0.0910951)
(0.247993 -0.000234944 -0.0271713)
(0 0 0)
(0 0 0)
(0 0 0)
(0 0 0)
(0 0 0)
(0 0 0)
(0 0 0)
(0 0 0)
(0 0 0)
(0 0 0)
(0 0 0)
(0 0 0)
(0 0 0)
(0.169873 -0.000273818 -0.123157)
(0 0 0)
(0 0 0)
(0 0 0)
(0 0 0)
(0 0 0)
(0 0 0)
(0 0 0)
(0 0 0)
(0.534586 -0.00210556 -0.0303245)
(0 0 0)
(0 0 0)
(0 0 0)
(0 0 0)
(0 0 0)
(0 0 0)
(0 0 0)
(0 0 0)
(0 0 0)
(0 0 0)
(0 0 0)
(0 0 0)
(0 0 0)
(0 0 0)
(0 0 0)
(0 0 0)
(0 0 0)
(0 0 0)
(0 0 0)
(0.535587 0.000926153 -0.0781236)
(0 0 0)
(0 0 0)
(0 0 0)
(0 0 0)
(0 0 0)
(0 0 0)
(0 0 0)
(0 0 0)
(0 0 0)
(0 0 0)
(0 0 0)
(0 0 0)
(0 0 0)
(0 0 0)
(0.529977 0.0013135 -0.0877551)
(0 0 0)
(0 0 0)
(0 0 0)
(0 0 0)
(0 0 0)
(0.541959 -0.00126472 -0.0688318)
(0 0 0)
(0.530861 -0.00147169 -0.114439)
(0.520633 -0.00152241 -0.137309)
(0 0 0)
(0 0 0)
(0 0 0)
(0 0 0)
(0 0 0)
(0 0 0)
(0 0 0)
(0 0 0)
(0.505329 0.000309656 -0.0823279)
(0 0 0)
(0 0 0)
(0.538101 -0.00105922 -0.0682151)
(0 0 0)
(0 0 0)
(0 0 0)
(0 0 0)
(0 0 0)
(0 0 0)
(0 0 0)
(0 0 0)
(0 0 0)
(0 0 0)
(0 0 0)
(0 0 0)
(0 0 0)
(0 0 0)
(0 0 0)
(0 0 0)
(0.54515 -0.000522634 -0.0717315)
(0 0 0)
(0 0 0)
(0 0 0)
(0 0 0)
(0 0 0)
(0 0 0)
(0.534037 -0.000369071 -0.12541)
(0 0 0)
(0 0 0)
(0.530725 0.00175504 -0.106959)
(0 0 0)
(0 0 0)
(0 0 0)
(0 0 0)
(0 0 0)
(0 0 0)
(0.535202 -0.00129921 -0.0717111)
(0 0 0)
(0 0 0)
(0.537418 -0.000700306 -0.0826914)
(0 0 0)
(0 0 0)
(0.534175 0.000542257 -0.129185)
(0 0 0)
(0 0 0)
(0 0 0)
(0.53922 0.00176221 -0.0194157)
(0 0 0)
(0 0 0)
(0 0 0)
(0 0 0)
(0 0 0)
(0 0 0)
(0.527419 -0.00501008 -0.0872859)
(0.523793 -0.00237041 -0.109947)
(0 0 0)
(0 0 0)
(0 0 0)
(0 0 0)
(0 0 0)
(0 0 0)
(0 0 0)
(0 0 0)
(0 0 0)
(0 0 0)
(0 0 0)
(0.533718 0.000428619 0.0103962)
(4.1987e-16 -3.87632e-19 -2.49563e-17)
(0.536647 -0.000424648 -0.0182453)
(0 0 0)
(0.536737 -0.000199798 -0.0977586)
(0.53749 -0.00199542 -0.0982322)
(0 0 0)
(0 0 0)
(0 0 0)
(0 0 0)
(0 0 0)
(0 0 0)
(0 0 0)
(0 0 0)
(0 0 0)
(0 0 0)
(0 0 0)
(0.542098 -0.000277438 0.00168827)
(0 0 0)
(0 0 0)
(0.523793 -0.00237041 -0.109947)
(0.529205 -0.0010557 -0.102757)
(0 0 0)
(0.532936 0.00286896 -0.148677)
(0 0 0)
(0 0 0)
(0 0 0)
(0.534408 0.000302931 -0.108611)
(0 0 0)
(0 0 0)
(0.531611 -0.00374247 -0.112918)
(0 0 0)
(0 0 0)
(0.534414 0.00194199 -0.084266)
(0 0 0)
(0 0 0)
(0 0 0)
(0 0 0)
(0 0 0)
(0.544836 -0.00238497 -0.0666615)
(0 0 0)
(0 0 0)
(0 0 0)
(0 0 0)
(0 0 0)
(0 0 0)
(0.543758 0.00241378 -0.105279)
(0 0 0)
(0 0 0)
(0 0 0)
(0 0 0)
(0 0 0)
(0 0 0)
(0 0 0)
(0 0 0)
(0 0 0)
(0 0 0)
(0 0 0)
(0 0 0)
(0 0 0)
(0.527603 0.000421005 -0.0767402)
(0.52677 -0.00148233 -0.0376241)
(0 0 0)
(0 0 0)
(0 0 0)
(0 0 0)
(0 0 0)
(0 0 0)
(0 0 0)
(0 0 0)
(0 0 0)
(0 0 0)
(0 0 0)
(0 0 0)
(0 0 0)
(0 0 0)
(0 0 0)
(0 0 0)
(0 0 0)
(0 0 0)
(0 0 0)
(0 0 0)
(0.509053 -0.00275086 -0.140999)
(0 0 0)
(0 0 0)
(0 0 0)
(0 0 0)
(0 0 0)
(0 0 0)
(0 0 0)
(0 0 0)
(0.378141 0.00172453 -0.0426695)
(0 0 0)
(0 0 0)
(0 0 0)
(0 0 0)
(0 0 0)
(0 0 0)
(0 0 0)
(0 0 0)
(0 0 0)
(0 0 0)
(0 0 0)
(0 0 0)
(0.0323444 -0.000118208 -0.0466209)
(0 0 0)
(0 0 0)
(0.248537 0.000382639 -0.074429)
(0 0 0)
(0 0 0)
(0 0 0)
)
;
    }
}


// ************************************************************************* //
