/*--------------------------------*- C++ -*----------------------------------*\
| =========                 |                                                 |
| \\      /  F ield         | OpenFOAM: The Open Source CFD Toolbox           |
|  \\    /   O peration     | Version:  2506                                  |
|   \\  /    A nd           | Website:  www.openfoam.com                      |
|    \\/     M anipulation  |                                                 |
\*---------------------------------------------------------------------------*/
FoamFile
{
    version     2.0;
    format      ascii;
    arch        "LSB;label=32;scalar=64";
    class       surfaceScalarField;
    location    "0.008";
    object      phi;
}
// * * * * * * * * * * * * * * * * * * * * * * * * * * * * * * * * * * * * * //

dimensions      [0 3 -1 0 0 0 0];

oriented        oriented;

internalField   nonuniform List<scalar> 
1200
(
0.00150055
2.35653e-06
7.60217e-07
0.00149995
-1.65278e-07
7.70286e-07
0.00150326
-1.6232e-06
-1.68931e-06
0.00150941
-2.29417e-06
-3.86017e-06
0.00151031
-2.28047e-07
-6.69476e-07
0.00149659
6.85407e-06
6.86559e-06
0.00149007
2.93845e-06
3.58812e-06
0.00149852
-2.5975e-06
-5.85604e-06
0.00149634
1.42848e-06
7.51843e-07
0.00149248
1.03331e-06
2.82711e-06
0.00149972
-3.10312e-06
-4.134e-06
0.00150602
4.61233e-07
-6.76652e-06
0.00150146
7.19627e-07
3.84525e-06
0.00149519
-1.20431e-07
6.39077e-06
0.00149737
3.9613e-07
-2.58333e-06
0.00150191
2.52533e-07
-4.78578e-06
0.00150379
1.08583e-06
-2.97192e-06
0.00150213
2.84297e-07
1.37923e-06
0.0014965
-1.32286e-07
5.75755e-06
0.00149346
5.36339e-07
2.51115e-06
0.00149698
3.9755e-07
-3.92385e-06
0.0015018
-6.86781e-08
-4.75247e-06
0.00150452
-1.65e-06
-1.0679e-06
0.00150853
-2.06777e-06
-1.93709e-06
0.00151486
1.40797e-06
-7.74433e-06
0.00151531
3.35018e-06
-3.79339e-06
0.00150047
3.46286e-06
1.13698e-05
0.00149728
-4.92769e-07
3.68378e-06
0.00150316
-4.46079e-06
-1.41893e-06
0.00150639
-2.90627e-06
-3.21341e-07
0.00150403
-6.78215e-07
3.03394e-06
4.10956e-06
2.46591e-06
0.0015282
-1.36905e-06
1.94132e-06
0.00152111
3.37934e-06
3.5446e-06
0.0015175
2.06389e-06
-8.37198e-08
0.00151579
1.99911e-06
-2.5812e-06
0.0015144
2.51193e-06
-1.35108e-06
0.00151527
3.16301e-06
2.82594e-06
0.00151474
1.27836e-06
2.18865e-06
0.00152202
-5.68664e-06
-4.18871e-06
0.00152882
-3.45187e-06
-1.92259e-06
0.00152603
2.24387e-06
1.57935e-06
0.00151874
3.81463e-06
3.67596e-07
0.00152054
5.21362e-07
-1.85777e-06
0.0015202
-2.14187e-06
3.20679e-06
0.00151607
-5.22328e-07
4.52875e-06
0.0015174
5.67435e-07
-1.50518e-06
0.00151806
1.49241e-06
-1.89916e-06
0.00152314
-4.6e-07
-3.53373e-06
0.00153053
-3.75569e-06
-3.34368e-06
0.00152608
1.97022e-06
2.3395e-06
0.001514
5.30917e-06
7.3115e-06
0.00151525
-5.28447e-07
-3.282e-07
0.00152826
-7.77294e-06
-5.30211e-06
0.00153495
-7.32321e-06
-1.02135e-06
0.0015359
-2.60091e-06
-4.07812e-07
0.00153947
3.86537e-06
-6.03157e-06
0.00154238
4.73842e-06
-4.30183e-06
0.00153921
1.49612e-06
5.13559e-06
0.00153645
6.09713e-07
1.66604e-06
0.00152768
2.55744e-06
1.75179e-06
0.00151712
3.9021e-06
3.74751e-06
0.00151742
-3.16066e-06
2.18284e-06
-3.70757e-06
-1.17436e-06
0.00153347
-8.8448e-06
-3.00586e-06
0.00153214
1.0832e-06
3.63012e-06
0.00152776
4.24429e-06
2.19826e-06
0.00152191
7.96634e-06
-1.11461e-07
0.00151631
7.05392e-06
1.05163e-06
0.00151286
2.42215e-06
4.19363e-06
0.00151636
-4.10945e-06
1.88619e-06
0.00152657
-1.1004e-05
-4.89438e-06
0.00153034
-4.81898e-06
-2.39945e-06
0.001525
7.51358e-06
6.4741e-08
0.00152632
5.60309e-06
-3.10477e-06
0.00153001
-5.75183e-07
-2.59362e-06
0.00152763
-4.97447e-07
7.39356e-07
0.00151978
3.68088e-06
3.64535e-06
0.00151849
2.16942e-06
-3.1074e-07
0.00152108
-6.23348e-07
-4.72079e-07
0.00152655
-3.84308e-06
-2.08814e-06
0.00152757
-3.8665e-06
-9.07455e-07
0.00152194
5.43116e-06
2.15989e-06
0.00152487
4.05397e-06
-1.67225e-06
0.00153019
-3.36076e-06
-2.48613e-06
0.00153003
-4.85493e-06
-2.7578e-06
0.00152366
-3.07634e-06
2.12771e-06
0.00152254
-3.04528e-06
1.55976e-06
0.00153613
-2.93444e-06
-6.79481e-06
0.00154592
1.46863e-06
-6.51215e-06
0.00154386
4.08131e-07
3.14861e-06
0.00153419
7.08417e-06
3.18932e-06
0.00152367
1.02684e-05
2.81072e-06
0.00151385
1.03596e-05
3.36459e-06
0.00151291
-4.43917e-06
2.21515e-06
-1.169e-05
-2.09851e-06
0.00152567
-9.9245e-06
9.64135e-07
0.00152365
2.29333e-06
8.07981e-07
0.00151983
7.51984e-06
5.42282e-07
0.00151379
9.35094e-06
4.65216e-06
0.0015029
1.28701e-05
5.07797e-06
0.00150552
-1.39424e-06
1.19017e-06
0.00151946
-1.19192e-05
-6.12683e-06
0.00151995
-6.13557e-06
-5.36045e-06
0.00151419
2.89797e-06
-1.95187e-06
0.00151787
2.51086e-06
1.32409e-06
0.00152187
2.81058e-06
-1.20629e-06
0.001523
-2.49586e-06
7.87213e-07
0.00151994
-2.28857e-06
4.8484e-06
0.00152105
1.06672e-06
1.51032e-06
0.00152117
1.14123e-06
9.02725e-07
0.00151978
-1.34359e-07
9.03151e-07
0.001517
-3.27482e-07
-7.35936e-07
0.00151661
-8.36012e-07
-2.64338e-06
0.00152126
-5.77163e-07
1.36094e-06
0.0015219
1.1705e-06
2.24173e-06
0.00151921
-1.68305e-06
1.01495e-06
0.00152351
-6.69939e-06
-2.45254e-06
0.00152397
-4.23464e-06
6.89642e-07
0.00152353
-3.09689e-06
4.91589e-07
0.00152911
-4.88338e-06
-3.62802e-06
0.00153279
-6.1787e-07
-1.58951e-06
0.00152875
2.87515e-06
1.56699e-06
0.00152679
6.36093e-06
2.68453e-06
0.00152809
8.03355e-06
9.34069e-07
0.0015251
1.06644e-05
2.68966e-06
0.00152108
-1.66008e-06
1.24232e-06
-1.49463e-05
-1.21651e-06
0.00150949
-3.46949e-06
2.6834e-06
0.00150974
3.06607e-06
-1.02508e-06
0.00151784
1.46975e-08
-5.94272e-07
0.00152294
8.96256e-08
4.16365e-06
0.00153057
1.23089e-06
4.01443e-06
0.00152992
-2.41327e-06
1.66281e-06
0.00152679
-6.56173e-06
-2.22808e-06
0.00152707
-5.78535e-06
-6.2812e-07
0.00152556
6.88333e-06
-2.47491e-06
0.00152467
6.86686e-06
-3.46159e-06
0.00152971
3.64392e-06
-5.88068e-06
0.00152844
-3.09482e-06
1.86875e-06
0.00152495
-3.46952e-06
4.67784e-06
0.00152628
6.07524e-07
-8.73153e-07
0.00152648
1.75591e-06
-8.16108e-07
0.0015234
1.47703e-06
1.47149e-06
0.00152195
-3.66059e-07
1.48267e-06
0.00152583
-4.07562e-06
-6.36354e-07
0.00152633
-5.60434e-07
-5.2228e-07
0.00152471
5.08067e-07
2.28824e-06
0.00152546
-2.58958e-06
1.53624e-07
0.00152724
-4.39873e-06
-4.07457e-06
0.00152524
-2.59937e-06
3.58221e-07
0.00152056
-2.42836e-07
1.82745e-06
0.00151638
-7.52161e-08
-6.24547e-07
0.00151477
3.14113e-06
-2.14764e-06
0.0015153
2.44633e-06
-1.05025e-07
0.00152254
-7.66237e-07
-1.12162e-07
0.00152771
4.34315e-06
-1.47853e-06
0.00152782
8.9461e-06
1.61114e-06
0.00152498
-1.54791e-06
2.71897e-06
-1.22317e-05
3.63917e-06
0.00152268
-7.41827e-06
-9.58699e-07
0.00152957
4.49101e-06
-8.31962e-06
0.00153047
1.20148e-06
-2.08669e-06
0.00152815
-2.54507e-06
4.95618e-06
0.00152796
-1.80517e-06
3.23019e-06
0.00152357
-6.87785e-07
2.66671e-06
0.00151773
-4.45308e-07
-2.84507e-07
0.00151433
-1.86204e-06
-5.1723e-07
0.00152174
2.21879e-06
-2.74968e-06
0.00152774
3.81731e-06
-2.94524e-06
0.00153248
1.48199e-06
-2.58557e-06
0.00152892
-1.98009e-06
2.4545e-06
0.00152236
-2.34843e-06
5.43149e-06
0.00152214
1.9868e-06
-1.16035e-06
0.00152006
3.36038e-06
4.80746e-07
0.00152479
-3.5991e-06
3.4463e-07
0.00153028
-3.99695e-06
-1.85766e-06
0.00152407
7.88156e-07
1.34612e-06
0.00151877
1.72027e-06
3.01601e-06
0.001525
-6.06116e-06
3.39057e-07
0.00153115
-5.00682e-06
-3.73221e-06
0.00153427
-2.92877e-06
-4.58491e-06
0.0015304
-3.79415e-07
1.64737e-06
0.00152187
3.32037e-06
4.97045e-06
0.00152063
4.24052e-07
7.40259e-07
0.00152546
1.38707e-06
-3.07715e-06
0.00152196
5.58674e-06
3.56558e-07
0.001518
1.86508e-06
1.33329e-06
0.00152273
1.21503e-06
-1.60344e-06
0.00153037
2.65978e-06
-1.35955e-06
0.00152461
2.92682e-06
1.28867e-06
-7.81125e-06
2.41747e-06
0.0015235
-1.78456e-06
-3.31238e-06
0.00152407
6.23357e-06
-2.30997e-06
0.00151821
2.5626e-06
4.49682e-06
0.00151751
-6.18586e-06
4.34424e-06
0.00152346
-3.91426e-06
-3.84966e-06
0.00152515
1.89192e-06
-4.26935e-06
0.00152295
2.14188e-06
-3.85807e-07
0.00152183
-2.48209e-06
1.7388e-06
0.00152849
-3.03018e-06
-1.41089e-06
0.00153307
2.94214e-06
-3.70243e-06
0.00153395
3.01038e-06
-2.40321e-06
0.00152867
-1.81727e-07
3.47773e-06
0.00152251
-1.07593e-06
4.89129e-06
0.00152562
7.7752e-07
-1.90536e-06
0.00153035
2.16743e-06
-3.53332e-06
0.00152697
-1.79509e-06
1.57602e-06
0.0015225
-2.64794e-06
3.11425e-06
0.00151918
1.12293e-06
2.98845e-06
0.00151802
6.5011e-07
2.22719e-06
0.00151986
-7.86854e-06
-2.99873e-08
0.00152278
-3.89839e-06
-4.02977e-06
0.00152482
4.12854e-07
-5.37671e-06
0.00151818
2.73347e-06
3.52283e-06
0.00151078
5.58586e-06
5.13224e-06
0.00150913
2.88153e-06
-8.06418e-07
0.00151478
-1.83727e-06
-2.42243e-06
0.00151807
2.51858e-06
-2.2094e-07
0.00151727
2.49099e-06
1.69254e-07
0.00152301
-3.69538e-06
-8.27351e-07
0.00152774
-1.31815e-06
-7.55618e-07
0.00152803
4.71441e-06
-2.07487e-06
-2.89013e-06
-2.70982e-06
0.00150306
-3.07635e-06
0.00151254
-3.24489e-06
0.00150724
7.86468e-06
0.00149548
5.57317e-06
0.00149625
-4.68274e-06
0.00150289
-4.74916e-06
0.00150462
4.07363e-07
0.00149617
5.96744e-06
0.00149124
1.90469e-06
0.00150226
-8.08171e-06
0.00150872
-3.44304e-06
0.00150337
5.16879e-06
0.00149681
5.48195e-06
0.00149941
-1.82456e-06
0.00150578
-4.19723e-06
0.00150294
1.03788e-06
0.00149842
1.87918e-06
0.00149847
1.07135e-06
0.00149679
2.32852e-06
0.0014861
2.82426e-06
0.00148268
-4.81798e-07
0.00149067
-7.57562e-06
0.0014945
-1.09733e-06
0.0014948
5.28205e-06
0.00149576
1.92622e-06
0.00149485
-9.29275e-07
0.00149792
-5.51516e-07
0.0014992
1.21219e-06
0.00149601
-5.09303e-07
0.00149473
-3.4764e-08
0.00150165
-2.20444e-06
-3.01332e-06
0.00152158
2.48695e-06
0.00151985
-5.24039e-07
0.00151973
-1.11838e-06
0.00151739
4.49378e-07
0.00151255
2.25927e-06
0.00150757
1.93495e-06
0.00150543
5.16168e-07
0.00150515
-3.06377e-06
0.00150954
-2.46871e-06
0.00151822
-1.11109e-06
0.00152465
-4.2382e-07
0.00151936
-1.19962e-07
0.00151637
2.83065e-08
0.00151805
-1.11479e-06
0.00151728
1.28383e-06
0.00151429
2.30103e-06
0.00151155
2.42925e-06
0.00151471
-3.28518e-06
0.00152223
-3.10988e-06
0.00152499
-3.42822e-07
0.00152102
2.71686e-06
0.00151989
2.6803e-06
0.00152374
-3.21636e-08
0.0015293
-4.64608e-06
0.0015204
2.88918e-06
0.00151052
7.45395e-06
0.0015179
1.11537e-06
0.00152459
-2.70747e-06
0.00152764
-2.60329e-06
0.00152184
-5.39536e-07
0.00152031
-2.13032e-06
-8.13275e-07
0.00155797
-2.60206e-06
0.00155372
9.23158e-07
0.00155005
2.41922e-06
0.00154474
4.81485e-06
0.00153648
6.28033e-06
0.00152928
4.40289e-06
0.00153088
-8.49358e-07
0.00153351
-5.7303e-06
0.00153646
-3.92182e-06
0.00154439
-4.50855e-06
0.00155298
-1.97279e-06
0.0015519
1.76864e-07
0.00154826
1.15713e-06
0.00154718
9.04643e-07
0.00154843
4.5253e-07
0.00154873
2.04004e-06
0.00154836
1.26054e-06
0.00154046
-3.9907e-07
0.00153936
-8.94331e-07
0.00154695
-2.16062e-06
0.00154882
1.26303e-06
0.00154512
4.68637e-06
0.00155384
-3.81756e-06
0.00155918
-5.51062e-06
0.0015518
4.60356e-06
0.00154846
5.90924e-06
0.00155445
-1.75318e-06
0.00155603
-2.07757e-06
0.00155213
2.28106e-06
0.00154323
3.96433e-06
0.00154149
-3.6457e-06
-4.22478e-06
0.00154964
-6.99235e-06
0.00155319
2.78321e-07
0.00154907
7.32384e-06
0.00153832
1.14992e-05
0.00153097
7.23032e-06
0.00153364
-3.31362e-06
0.00154457
-1.24816e-05
0.00155269
-1.41761e-05
0.00155599
-4.66277e-06
0.00154396
7.32555e-06
0.00153212
8.31376e-06
0.00153613
9.94982e-07
0.0015375
9.18001e-07
0.00153126
2.24134e-06
0.00152916
6.76094e-07
0.00153375
-1.79695e-06
0.00154075
-5.62451e-06
0.001546
-4.9536e-06
0.00154687
1.98561e-06
0.00154086
4.1108e-06
0.0015421
3.83319e-07
0.00155566
-4.34916e-06
0.00156066
-3.97714e-06
0.00156141
-1.58951e-06
0.00156392
1.77378e-06
0.00156354
1.60205e-06
0.00156156
-2.52989e-06
0.00155355
5.02824e-06
0.00154525
9.37825e-06
0.0015354
9.95337e-06
0.00153421
-4.03971e-06
-1.1177e-05
0.00154696
-4.74301e-06
0.00154345
1.84417e-06
0.00154235
6.20915e-06
0.00154423
1.02748e-05
0.0015479
4.41983e-06
0.00154393
-3.70451e-06
0.00153544
-1.01211e-05
0.00152413
-6.77598e-06
0.00150856
7.80686e-06
0.00151337
4.28227e-06
0.00152205
8.53613e-07
0.00152417
-1.53218e-07
0.00152925
4.55515e-07
0.00153596
-1.89924e-06
0.00153866
-3.05997e-06
0.00153808
-3.09054e-06
0.00153216
-7.92777e-07
0.00152334
1.68312e-06
0.00152813
-6.55236e-07
0.00154054
-2.55033e-06
0.00155067
-5.22787e-06
0.00155358
-7.1513e-06
0.00155117
-8.37065e-07
0.00154963
1.96311e-06
0.00155033
6.15631e-07
0.00155067
-9.24311e-07
0.00154589
1.74026e-07
0.00154863
4.14003e-06
0.00155165
7.19846e-06
0.00154807
1.18247e-05
0.00154376
5.51553e-08
-1.20886e-05
0.00154244
-2.319e-06
0.00154241
3.77885e-06
0.00154374
5.40262e-06
0.00154396
7.88324e-06
0.00154772
-5.1621e-07
0.00155127
-1.03999e-05
0.00154685
-1.20288e-05
0.00154541
-6.76719e-06
0.00154869
7.08045e-06
0.00154415
9.38207e-06
0.00153354
3.13857e-06
0.00153604
-2.48935e-06
0.00154802
-4.26142e-06
0.00155224
-2.46294e-06
0.00155011
-1.60891e-06
0.00154666
-2.73444e-06
0.00154581
-1.92993e-06
0.00154735
1.70587e-06
0.00154965
3.04206e-06
0.001553
-2.23951e-06
0.00155504
-6.60604e-06
0.00155138
-5.10353e-06
0.00154605
4.77085e-06
0.00154434
5.94768e-06
0.0015452
7.24947e-07
0.00154092
9.42087e-07
0.00153651
2.12174e-06
0.00154335
-8.69446e-07
0.00155014
2.45003e-06
0.00155005
8.26889e-06
0.00154533
-2.90475e-08
-8.35201e-06
0.00157163
-6.38716e-06
0.00155965
8.98071e-06
0.00154909
8.34397e-06
0.00154683
5.71161e-06
0.00155388
-4.0972e-06
0.00155501
-7.48182e-06
0.00154569
-5.17539e-06
0.00153752
-9.44577e-07
0.00154004
4.55083e-06
0.00154373
4.84783e-06
0.00154354
-2.52557e-07
0.00154586
-2.36643e-06
0.00154669
-2.86906e-07
0.00154176
6.03268e-08
0.00154415
-2.66429e-06
0.0015481
-3.33989e-06
0.00154416
9.23267e-07
0.00154654
2.28479e-06
0.00155332
1.25481e-06
0.00155207
-1.86517e-06
0.00154556
-6.48024e-06
0.00154676
-7.51696e-06
0.00155347
8.11897e-07
0.00155434
6.32881e-06
0.00155377
7.01204e-07
0.00154891
4.72292e-06
0.00154474
6.05336e-06
0.0015419
2.8761e-06
0.00154416
9.46583e-07
0.00155537
-1.96062e-07
0.00155973
-1.16497e-07
-9.10649e-06
0.00155439
-7.78058e-06
0.00155852
5.30005e-06
0.00155657
1.02327e-05
0.00155368
8.36801e-06
0.00154933
-3.67201e-06
0.00154122
-6.54197e-06
0.00153304
-4.16237e-06
0.00153126
-5.65863e-07
0.00153683
4.97831e-07
0.00154027
2.09794e-06
0.0015397
-3.82827e-07
0.00154185
-1.31209e-06
0.00154319
4.74208e-08
0.0015378
3.55755e-07
0.00153435
-1.7758e-06
0.00153875
-2.34463e-06
0.00154486
3.12537e-07
0.00154836
2.46527e-06
0.00155188
-2.61472e-07
0.00154933
-1.88286e-06
0.00153906
-2.69717e-06
0.00152902
-1.39404e-06
0.00153517
5.29504e-07
0.00154038
6.66951e-06
0.00153561
3.4743e-06
0.00153716
1.9477e-07
0.00153799
3.40506e-06
0.00153683
2.80088e-06
0.00154424
-4.21318e-06
0.0015483
-1.37777e-06
0.00154954
5.08315e-07
-8.6722e-06
0.00151136
0.00151883
0.00153822
0.00154941
0.00153676
0.00151547
0.00150584
0.0015098
0.00151621
0.00151437
0.0015111
0.00151284
0.00151665
0.00151452
0.00150881
0.00150914
0.00151439
0.00151928
0.00152489
0.00152659
0.00151771
0.0015036
0.00150568
0.00152292
0.00152888
0.00152716
0.00152852
0.00152929
0.00152332
0.00152423
0.00152893
)
;

boundaryField
{
    wall
    {
        type            calculated;
        value           uniform 0;
    }
    outlet
    {
        type            cyclic;
        value           nonuniform List<scalar> 
16
(
0.00149746
0.00152641
0.00152299
0.00152555
0.00151863
0.00151777
0.00152582
0.00150177
0.00152279
0.00154853
0.00154519
0.00154852
0.00154114
0.0015645
0.00155142
0.00152084
)
;
    }
    inlet
    {
        type            cyclic;
        value           nonuniform List<scalar> 
16
(
-0.00149746
-0.00152641
-0.00152299
-0.00152555
-0.00151863
-0.00151777
-0.00152582
-0.00150177
-0.00152279
-0.00154853
-0.00154519
-0.00154852
-0.00154114
-0.0015645
-0.00155142
-0.00152084
)
;
    }
    procBoundary0to1
    {
        type            processor;
        value           nonuniform List<scalar> 
256
(
-5.18058e-07
3.02377e-06
-4.48842e-07
-1.97002e-06
1.91234e-06
9.90633e-06
5.21541e-06
-2.50929e-06
-1.16946e-06
-4.74161e-06
-1.01492e-05
-1.35347e-06
6.81144e-06
5.82628e-06
-3.10006e-06
-4.10081e-06
-2.66162e-06
1.50624e-06
1.34567e-06
9.54731e-08
-2.66371e-06
-6.30884e-06
-4.88868e-06
-2.84726e-06
-1.73471e-06
-1.36149e-06
2.86768e-06
-2.9833e-07
-1.86171e-06
6.02127e-06
6.68472e-06
8.05117e-07
-2.41968e-06
6.35433e-06
4.5775e-08
-1.63255e-06
2.8842e-06
7.56308e-06
1.94604e-06
-4.14721e-06
-3.42209e-06
-2.95543e-06
-6.66825e-06
-1.07246e-06
5.71523e-06
3.58315e-06
-1.91927e-06
-1.93519e-06
-2.0012e-06
1.67162e-06
1.2275e-06
1.54116e-06
-7.4483e-07
-3.615e-06
-5.94837e-06
-4.88661e-06
-3.67243e-07
5.84594e-07
2.01572e-06
-5.42747e-07
7.59986e-07
8.14442e-06
5.44351e-06
-4.79985e-06
-3.07045e-06
7.23994e-07
1.4175e-06
3.95144e-06
7.44789e-06
9.24184e-06
2.59084e-06
-4.56845e-06
-4.95809e-06
2.58083e-07
-1.55287e-06
-7.419e-06
-3.9029e-07
8.54881e-06
1.56907e-06
-1.22474e-06
-2.20954e-06
-1.60338e-06
-1.58699e-06
-1.93191e-06
-2.84554e-06
-7.28142e-06
-2.71887e-06
-3.11354e-06
-6.46617e-06
-1.82489e-06
5.90161e-06
4.0963e-06
4.01105e-06
7.22437e-06
3.80217e-06
-6.1249e-06
2.69884e-07
2.74843e-06
2.75724e-06
3.99718e-06
4.22674e-06
5.54949e-06
7.37181e-10
-1.45496e-06
1.15094e-06
-4.40933e-07
-2.42635e-06
-1.81965e-07
2.22875e-07
-1.05707e-06
1.9453e-06
2.77135e-06
3.54654e-07
-4.65061e-07
-7.80561e-07
-3.50977e-06
-3.50142e-06
-2.56562e-06
-4.32387e-08
-1.51837e-06
-3.16832e-06
5.9889e-07
3.64126e-06
8.29733e-07
1.01091e-07
4.38917e-06
1.4666e-06
-5.06472e-06
-1.04003e-06
-2.92617e-06
-1.12033e-06
6.33847e-06
5.18809e-06
4.81073e-06
4.09815e-06
8.01796e-07
-5.03115e-06
-4.01686e-06
2.43924e-06
1.71293e-06
-2.5867e-06
-4.53742e-06
-1.2995e-07
4.55865e-06
3.47203e-06
-2.19954e-06
-6.5219e-06
-1.37198e-06
-5.06908e-07
-2.46091e-06
8.4817e-08
-4.48589e-07
-1.59602e-06
2.63385e-07
2.35961e-06
-1.93779e-06
-3.52113e-06
5.25547e-06
7.51954e-06
4.09228e-06
-4.01854e-06
-1.54039e-06
5.52561e-06
9.38778e-06
-2.31403e-07
-1.38626e-06
2.18579e-06
1.83323e-06
-2.74068e-06
-2.10712e-06
1.00177e-06
5.43806e-09
6.29565e-07
1.24803e-06
-8.58371e-07
-2.99334e-06
-7.74953e-07
-1.61229e-06
-1.97676e-06
1.21519e-06
2.65336e-06
-3.3788e-06
-1.09982e-06
3.71566e-06
1.33799e-06
-2.00084e-06
5.93908e-07
4.29834e-07
-2.35423e-06
-4.10827e-06
-2.98464e-06
-1.59835e-06
-4.88647e-06
-2.76153e-06
4.5564e-06
4.57623e-06
7.57183e-08
2.90675e-06
6.78052e-06
3.13429e-06
-2.92025e-06
-4.39423e-06
-1.7005e-06
2.6897e-07
3.21996e-06
3.19066e-06
-9.80823e-07
-3.81719e-06
-2.38214e-06
-6.94055e-07
2.25274e-07
2.54233e-06
2.44867e-06
-1.4565e-06
-2.33998e-06
-4.20534e-07
1.1918e-06
5.48281e-07
1.5971e-06
1.41147e-06
-3.08093e-06
-3.63422e-06
-3.94075e-06
-5.02312e-06
-1.38079e-06
-5.40918e-06
-1.29465e-06
2.7503e-06
4.29879e-06
9.99806e-06
5.87606e-06
1.43938e-06
-4.00481e-06
-4.14271e-06
-5.62418e-07
2.11409e-06
1.72278e-06
6.6501e-07
-2.69567e-07
-1.63487e-06
-3.0581e-06
-1.3513e-06
-3.54696e-06
-7.54669e-07
5.70392e-06
5.13342e-06
-2.64361e-06
-5.28454e-06
-5.61155e-07
9.87372e-07
1.48983e-06
3.24528e-06
1.24807e-06
-2.32408e-06
-6.39487e-06
-3.59832e-06
)
;
    }
}


// ************************************************************************* //
