/*--------------------------------*- C++ -*----------------------------------*\
| =========                 |                                                 |
| \\      /  F ield         | OpenFOAM: The Open Source CFD Toolbox           |
|  \\    /   O peration     | Version:  2506                                  |
|   \\  /    A nd           | Website:  www.openfoam.com                      |
|    \\/     M anipulation  |                                                 |
\*---------------------------------------------------------------------------*/
FoamFile
{
    version     2.0;
    format      ascii;
    arch        "LSB;label=32;scalar=64";
    class       volVectorField;
    location    "0.008";
    object      U;
}
// * * * * * * * * * * * * * * * * * * * * * * * * * * * * * * * * * * * * * //

dimensions      [0 1 -1 0 0 0 0];

internalField   nonuniform List<vector> 
512
(
(9.90298 0.00668042 0.00406738)
(9.90171 0.00772289 0.0188923)
(9.8141 -0.0270608 -0.0254766)
(9.80881 -0.0204839 -0.0246381)
(9.86531 0.0115987 0.013266)
(9.85458 0.0237387 0.0291512)
(9.80904 -0.00127913 -0.00888205)
(9.77146 -0.0191348 -0.0557748)
(9.76339 0.0136732 0.00355918)
(9.8135 0.0203778 0.0283897)
(9.88068 -0.00632101 -0.0311953)
(9.88149 -0.0031352 -0.0495256)
(9.83694 0.00504343 0.0258936)
(9.83646 0.00880514 0.0470295)
(9.85986 0.00291727 -0.00181452)
(9.8475 0.00238113 -0.0100937)
(9.84162 0.00615269 -0.00998895)
(9.8378 0.00873714 0.00734963)
(9.81286 0.00208392 0.044424)
(9.85134 -0.0151217 0.0270737)
(9.90357 -0.0142969 0.00022662)
(9.85806 -0.00241287 -0.0352902)
(9.79175 -0.00209649 -0.0462384)
(9.78807 -0.000924908 -0.0520513)
(9.79672 0.0032086 -0.0819162)
(9.78847 0.00756062 -0.0595936)
(9.77461 0.0265489 0.0676863)
(9.79615 0.00282309 0.0584053)
(9.78535 -0.0260756 0.0132212)
(9.79375 -0.0270136 0.00241884)
(9.78819 -0.00335952 0.0136262)
(9.83428 0.017215 0.012425)
(10.025 0.023414 0.0148316)
(10.0434 0.00846467 0.00564829)
(10.0001 -0.00368774 -0.0127179)
(9.89001 -0.00203905 -0.0111521)
(9.88336 -0.00248328 0.00323074)
(9.98958 0.0470088 0.0143441)
(9.96705 0.0311952 0.00364677)
(9.93223 -0.0189569 -0.0378382)
(9.96701 -0.00395944 -0.0216404)
(9.99272 0.000377228 0.00331382)
(9.97909 -0.00653644 0.00219321)
(9.94841 0.00104729 -0.0188293)
(9.94815 -0.00678761 0.018929)
(9.96278 -0.0122544 0.033791)
(10.0028 0.00200136 0.00281124)
(10.0026 0.00728379 0.00118976)
(9.99259 0.00658867 -0.00591957)
(9.98732 -0.012501 -0.0153984)
(9.95111 0.00135868 0.0126522)
(9.95061 0.0267201 0.0499046)
(10.0207 0.0109912 0.0109595)
(10.0251 -0.0143875 -0.0409817)
(9.9816 -0.0331496 -0.0333942)
(9.97913 -0.0204583 -0.0337156)
(9.96335 0.0207069 -0.0650656)
(9.94768 0.0444453 -0.0517035)
(9.97882 0.0222631 0.034497)
(9.98503 -0.00241454 0.0390073)
(9.9298 -0.0197713 0.0246222)
(9.90549 -0.0133214 0.0236919)
(9.90377 -0.0231342 0.010428)
(10.0069 0.00761415 -0.000135594)
(10.026 -0.0387123 -0.0107145)
(10.0765 0.0242387 0.0088063)
(10.0381 0.0264564 0.0109048)
(9.94233 0.0229285 -0.000957176)
(9.92614 0.0179011 -0.000561406)
(9.9733 0.0104538 0.0244471)
(9.94948 -0.00991635 0.00923754)
(9.9455 -0.0522458 -0.0392574)
(9.98557 -0.0327195 -0.0286475)
(10.0232 0.025528 -0.00529358)
(9.99818 0.0364339 -0.0309192)
(9.95886 0.0130542 -0.0269987)
(9.95415 -0.00356383 0.00920057)
(9.97998 0.00305499 0.0335065)
(9.98052 0.00347765 0.0074312)
(9.98088 0.00724109 -0.00248659)
(9.98245 -0.0154974 -0.00268729)
(9.97091 -0.0260959 0.00571675)
(9.97678 0.0148282 0.0288413)
(10.0131 0.0224535 0.00965606)
(10.044 -0.0097646 -0.0171089)
(10.0252 -0.0372336 -0.016922)
(9.94859 -0.036023 0.00965151)
(9.94398 -0.0172326 0.0119775)
(9.98544 0.0122819 -0.0423914)
(9.96962 0.021484 -0.0312252)
(9.96951 0.00960782 0.00540866)
(9.97641 0.0264231 0.011948)
(9.91519 0.050165 0.00822943)
(9.89782 0.0572895 0.00561329)
(9.91208 -0.0238186 0.00717373)
(10.0297 -0.0556611 -0.00700606)
(10.0118 -0.0793408 0.0128376)
(10.0301 -0.0126937 -0.00319958)
(10.003 0.0316135 -0.00455861)
(9.95836 0.0803432 0.0221279)
(9.96501 0.0849021 0.039034)
(10.0026 0.00408403 0.0370327)
(9.94294 -0.0535444 -0.0202467)
(9.9505 -0.0500997 -0.0367981)
(10.0075 -0.0275368 -0.0263873)
(10.0608 0.02465 -0.0256405)
(10.0362 0.0267053 -0.0267966)
(9.95563 -0.0125973 0.0163927)
(9.9483 -0.0121779 0.0459301)
(9.98912 0.0271663 0.0164034)
(9.98061 0.0231506 0.00593893)
(9.90629 -0.00823709 -8.017e-05)
(9.91062 -0.0364613 0.00552728)
(9.95919 -0.0224351 -0.00320588)
(10.0055 0.0270005 -0.00482905)
(10.0109 0.0363315 0.0120224)
(10.0163 -0.0192407 0.0177833)
(10.0172 -0.0544243 0.00103376)
(9.93959 -0.0289321 0.00467552)
(9.95554 -0.0192407 0.00463525)
(9.9978 -0.0389607 -0.0176819)
(9.94849 -0.0138754 -0.00936866)
(9.94439 -0.011634 0.0010387)
(9.9681 0.0358497 0.00866851)
(9.94751 0.0891691 0.00712295)
(9.94895 0.0977582 0.00574696)
(9.93984 -0.00645784 0.00396952)
(10.0014 -0.0837027 0.00227674)
(9.97361 -0.0476986 0.0161583)
(9.98342 0.00874458 0.0119384)
(9.91713 0.0301231 0.0114573)
(9.90072 0.0430986 0.0179321)
(10.0295 0.0550475 0.00213742)
(10.0467 0.0160903 -0.0072613)
(9.95309 -0.0555669 -0.0408261)
(9.95267 -0.0567418 -0.0247448)
(10.0564 0.0473058 -0.0138918)
(10.0564 0.0524053 -0.019284)
(10.0482 0.0278161 -0.0497961)
(9.9772 -0.0180115 0.00706394)
(9.97217 -0.0209423 0.0314986)
(10.0315 -0.00292106 0.00224021)
(10.0231 -0.00443383 0.00103824)
(9.96905 -0.000449548 0.00246524)
(9.96647 0.0153858 0.0147947)
(9.99074 -0.00130479 -0.000958044)
(10.0005 -0.00573362 -0.00486574)
(10.003 -0.00352473 0.00533887)
(10.0028 -0.0219875 -0.00628206)
(9.99209 -0.030213 -0.0247179)
(9.93617 -0.0158762 0.0121366)
(9.9494 -0.0108334 0.01542)
(9.95163 -0.0140321 -0.0060151)
(9.93904 0.0126391 -0.0139421)
(9.95421 0.0329744 -0.00517859)
(10.0283 0.0128312 0.0010917)
(10.019 0.0229531 -0.00164999)
(9.95361 0.0508385 0.0105131)
(9.93693 0.00304566 0.0105311)
(9.95124 -0.0852841 0.00645488)
(10.0273 -0.0187673 0.016211)
(10.0721 0.0373419 -0.0492858)
(9.9972 -0.0131083 -0.0294017)
(9.9505 -0.0309883 0.0173179)
(9.95399 -0.0254317 0.02865)
(9.92313 -0.0385362 0.0236131)
(9.88408 -0.044657 -0.0192606)
(9.92959 -0.0265201 -0.0180856)
(10.0488 0.0342827 -0.0173404)
(10.0405 0.0300407 -0.0196976)
(10.0487 0.00668698 -0.040625)
(9.98685 -0.0251608 0.021339)
(9.98766 -0.0264235 0.0424404)
(10.0396 0.00631718 -0.00167367)
(10.0348 0.0191231 0.00175349)
(10.0016 0.010016 0.00199824)
(9.97798 -0.00804082 -0.00328464)
(9.96466 -0.0204513 0.0131562)
(9.95327 -0.00731504 0.0358979)
(9.95239 -0.0140586 0.0226337)
(9.99147 -0.0247344 -0.0323459)
(10.0049 -0.0228846 -0.0319485)
(9.96963 -0.00903297 0.00937362)
(9.96748 0.00628612 0.0251663)
(9.96455 0.003658 -0.00406755)
(9.94285 0.0184328 -0.019562)
(9.92147 0.019333 -0.00527126)
(9.95296 -0.00115221 0.00645856)
(10.0188 0.0207994 -0.0046545)
(10.0053 0.0327004 -0.00420015)
(9.92053 -0.0212878 0.024553)
(9.93144 -0.0754697 0.0439243)
(9.94844 -0.0465536 -0.00154923)
(9.94675 0.0298983 -0.00136679)
(9.88834 0.0253197 0.020445)
(9.84834 -0.0183465 0.0406847)
(9.91677 -0.0151381 -0.013747)
(9.92845 0.00924455 -0.0350921)
(9.92458 0.0181903 -0.0431799)
(9.95481 -0.00263363 -0.0296359)
(10.0597 -0.00435727 -0.00707645)
(10.0529 0.0149954 -0.017828)
(10.0519 0.0158928 -0.0370825)
(9.98913 -0.00237144 0.0225528)
(9.99266 -0.00716486 0.0421088)
(10.0399 0.0136811 -0.0119407)
(10.0387 0.0275263 -0.0282863)
(9.95778 -0.0288566 0.0133173)
(9.95422 -0.0395321 0.0258615)
(9.9969 0.0103752 0.026429)
(9.9763 0.0179153 0.0323034)
(9.93852 -0.049065 0.00501262)
(9.97748 -0.0405565 -0.0234559)
(9.99919 -0.00704624 -0.0346137)
(9.99904 0.00636991 0.00110625)
(9.99537 0.0383565 0.0159914)
(9.98841 0.0103412 -0.00616013)
(9.93867 -0.00479712 -0.0185701)
(9.91552 0.0291168 -0.00422482)
(9.98603 0.0156144 0.00357366)
(10.0366 0.00289633 0.00349654)
(10.0181 0.0228724 0.00418992)
(9.96076 0.052591 -0.00339047)
(9.94997 -0.0269933 -0.00220154)
(9.88525 0.00327165 -0.00973985)
(9.90167 0.0359496 -0.0240115)
(9.79633 0.011996 0.0300908)
(9.71939 -0.033844 0.0681581)
(9.77941 -0.0195363 0.00120609)
(9.80162 0.0185803 -0.0543837)
(9.79748 0.0207877 -0.050085)
(9.7973 -0.00432261 -0.0080695)
(9.89276 -0.0186058 0.0258455)
(9.93534 0.00935525 -0.0243913)
(9.91592 0.012739 -0.0423168)
(9.82802 0.00248107 0.0237344)
(9.83819 -0.000992721 0.0451986)
(9.87592 0.00222345 -0.00922879)
(9.87609 0.00549407 -0.0310521)
(9.80492 -0.00574149 0.0207165)
(9.80982 -0.00185456 0.0307016)
(9.85191 0.0124404 0.0123127)
(9.833 0.0078789 0.0179204)
(9.74584 -0.0339293 0.0301509)
(9.78988 -0.0240674 0.00877741)
(9.88431 -0.00424366 -0.055961)
(9.90884 0.00874319 -0.0315033)
(9.88513 0.0285194 0.0195932)
(9.87106 0.0291736 0.0112045)
(9.69562 -0.00259666 -0.00163202)
(9.70482 0.00246443 -0.00155151)
(9.86256 0.0162953 0.0120602)
(9.85492 -0.0355877 -0.00101963)
(9.81455 -0.0588989 -0.0044674)
(9.75642 -0.0106808 -0.010498)
(9.76936 -0.0182443 1.19291e-05)
(10.025 0.0222901 0.001543)
(10.0319 -0.00616186 0.000444765)
(9.99061 -0.0230891 -0.00435972)
(9.88716 -0.00268884 -0.0104884)
(9.87626 0.00837949 0.00106236)
(9.96621 0.0140846 0.0749831)
(9.95029 0.0101744 0.0657924)
(9.89469 -0.00175994 -0.00738507)
(9.93831 -0.00194087 -0.0163591)
(10.0051 -0.0028098 -0.0202604)
(9.98515 0.000962306 -0.0368302)
(9.96896 0.00586039 -0.022173)
(9.95715 0.00459401 0.0130132)
(9.95624 -0.00262909 0.00796811)
(9.94825 0.00410293 -0.0134012)
(9.95953 0.0203723 -0.0218362)
(9.97642 0.0214473 -0.00947001)
(9.98586 -0.0215469 0.00573093)
(9.96547 -0.0320958 0.0236594)
(9.96349 -0.01303 0.0196705)
(9.9221 0.00138114 -0.0224353)
(9.92771 -0.00615334 -0.0324957)
(9.98586 0.000935761 0.0090873)
(9.99576 -0.00677546 0.0170531)
(9.9454 0.0170784 -0.0293429)
(9.94048 0.0305189 -0.0247203)
(9.96332 0.0113769 0.0315659)
(9.95965 -0.00484056 0.00345508)
(9.92609 -0.0153244 -0.00898298)
(9.93567 -0.00888151 0.0126314)
(9.90144 -0.00908957 0.0379596)
(9.95841 0.000552212 0.0156374)
(10.1632 0.00795949 0.00995315)
(10.2045 0.00926764 0.0400777)
(10.1761 -0.00134046 -0.000106967)
(10.1003 0.000118304 -0.0407624)
(10.0844 0.00257173 -0.017534)
(10.1169 0.0141618 0.0439096)
(10.0848 0.00159555 0.0385385)
(10.0463 -0.0249 -0.00446587)
(10.0963 -0.0185544 -0.0210757)
(10.1458 -0.0136684 -0.0112553)
(10.1386 -0.0168391 -0.0186729)
(10.1317 -0.0123866 -0.0101247)
(10.1275 -0.00589213 0.0122055)
(10.1283 -0.0119717 0.00624022)
(10.1264 0.00053315 -0.0132377)
(10.1234 0.0154478 -0.00558242)
(10.1403 0.0208723 -0.00405969)
(10.0753 0.00133419 -0.00364168)
(10.0644 -0.00747498 0.00764933)
(10.0944 -0.0120197 0.0315963)
(10.0836 0.0135687 0.00182718)
(10.099 0.0350877 -0.0291155)
(10.1455 -0.0140368 0.00476027)
(10.1604 -0.0488717 0.0171297)
(10.1178 0.0313549 -0.0221106)
(10.1053 0.0644476 -0.0235079)
(10.1162 0.0134357 0.0151874)
(10.1208 -0.0143388 0.00115722)
(10.071 -0.0186306 0.0125987)
(10.0633 -0.00497576 0.043576)
(10.0602 -0.0354856 0.0356308)
(10.1293 -0.0183226 -0.0107216)
(10.1799 -0.0403029 -0.025424)
(10.2006 0.000544469 0.0295353)
(10.1483 0.0331026 0.0137043)
(10.105 0.0661311 -0.00939994)
(10.0993 0.0725167 0.00727996)
(10.1311 0.019336 0.0462817)
(10.0949 -0.0268645 0.027471)
(10.094 -0.0617671 -0.0149405)
(10.1465 -0.0447771 -0.0169255)
(10.1527 -0.0142726 -0.00547291)
(10.1298 0.0112013 -0.00265994)
(10.156 0.012295 -0.0448463)
(10.1597 0.0137249 -0.0195257)
(10.1459 0.0215375 0.0276744)
(10.1372 0.0108834 0.0115546)
(10.1183 0.00398175 0.00766426)
(10.0631 -0.0170679 -0.00991219)
(10.0686 -0.0176627 -0.00626928)
(10.087 0.00641466 0.0058822)
(10.0763 0.0129202 -0.00796082)
(10.0753 0.0141085 -0.0213232)
(10.1171 0.0123871 -0.0368437)
(10.1244 -0.017088 -0.000819948)
(10.1403 -0.0182263 0.00558881)
(10.1321 0.0211053 -0.0466723)
(10.1266 0.0232168 -0.0562697)
(10.1192 -0.0218192 0.0284153)
(10.1165 -0.00812807 0.0404572)
(10.0529 0.0476566 0.0453224)
(10.0487 0.0564556 0.0490127)
(10.0642 -0.0264823 0.0284835)
(10.1687 -0.0506219 -0.0263385)
(10.1463 -0.0495477 -0.000842572)
(10.1434 -0.00546282 0.0124065)
(10.0947 0.0448163 0.0039544)
(10.0908 0.0689253 0.0188784)
(10.1628 0.0285969 0.02555)
(10.1938 -0.0291802 0.00697353)
(10.0519 -0.0831174 -0.0199405)
(10.036 -0.0710977 -0.0159522)
(10.1277 0.00393293 0.00100415)
(10.2229 0.0517103 0.0158917)
(10.1885 0.0394783 -0.00857102)
(10.1562 0.0168049 -0.0188732)
(10.1412 0.00754671 -0.00309212)
(10.0962 -0.0016457 0.00356597)
(10.0784 -0.00949812 0.0152498)
(10.0443 -0.0214341 0.0255385)
(10.0242 -0.0241278 -0.00161437)
(10.0549 -0.0213971 -0.0148406)
(10.135 -0.00997613 0.0116213)
(10.1263 0.00151752 -0.000156478)
(10.1219 -0.0109003 -0.0141947)
(10.126 -0.0485263 -0.022116)
(10.0868 -0.0251629 0.0112701)
(10.0942 -0.0053488 -0.000604914)
(10.0929 -0.00524464 -0.030262)
(10.0861 -0.0142898 -0.0111984)
(10.113 -0.0278304 0.0118047)
(10.1423 0.0392328 0.0131912)
(10.1223 0.0794808 0.0112245)
(10.1106 0.0963956 0.0405424)
(10.1035 0.00136605 0.0133893)
(10.1423 -0.0814025 -0.0199739)
(10.1474 -0.0256087 -0.000230958)
(10.1371 -0.00390442 -0.0248588)
(10.0756 0.0264557 -0.0113338)
(10.0719 0.0732001 0.0435694)
(10.1416 0.0275178 0.047862)
(10.1431 -0.0377345 0.0383767)
(10.08 -0.0795165 0.0213506)
(10.0609 -0.058095 0.00898311)
(10.165 0.0572443 -0.035124)
(10.1712 0.0614002 -0.0387956)
(10.1389 0.0110085 -0.00733246)
(10.1498 -0.0204511 0.00153976)
(10.1632 -0.0171919 -0.00355946)
(10.1413 -0.0171048 -0.00950706)
(10.1335 -0.014965 0.00531829)
(10.1177 -0.01834 0.0356081)
(10.0805 -0.0136457 0.0146994)
(10.1052 0.0200698 -0.00941393)
(10.1131 0.0186321 -0.00764388)
(10.1271 -0.0119435 0.0179044)
(10.1175 -0.0546773 0.00826333)
(10.1016 -0.0422732 -0.0162554)
(10.0766 0.0215726 -0.0105624)
(10.0923 0.0288128 -0.000147353)
(10.0756 0.0121168 -0.00441254)
(10.0758 0.00793968 -0.00600891)
(10.1254 0.0298686 0.00480542)
(10.1784 0.00610315 -0.00972789)
(10.1565 0.0155431 -0.0196484)
(10.0886 0.0563544 0.0193881)
(10.0703 0.0190408 0.0379406)
(10.1009 -0.0463403 0.0398565)
(10.206 0.0150595 -0.0131676)
(10.2425 0.0750203 -0.0333579)
(10.1602 0.038552 -0.00220945)
(10.0905 -0.00317346 0.0261034)
(10.0811 -0.0264058 0.0178803)
(10.0455 -0.0646167 0.0236658)
(10.0534 -0.0592631 0.0286768)
(10.0413 -0.0264119 0.00263909)
(10.1537 0.0293357 -0.0523793)
(10.1687 0.0346401 -0.0421442)
(10.1404 0.00410245 0.0105575)
(10.1423 -0.0175801 0.00816287)
(10.1756 -0.0172708 0.0127113)
(10.1773 -0.0116606 0.0134948)
(10.1507 -0.0146412 0.0142878)
(10.1224 -0.0128702 0.004851)
(10.0785 0.00309143 -0.0148025)
(10.1021 0.00949025 -0.0103012)
(10.1362 0.0197978 -0.000476849)
(10.1052 -0.0104005 -0.00383362)
(10.0893 -0.0473425 -0.0047968)
(10.0807 -0.0444455 -0.0445094)
(10.135 0.0125363 -0.0208839)
(10.1736 0.0441394 0.0299694)
(10.1886 0.00270387 0.0239197)
(10.1273 0.00848679 -0.00491514)
(10.0663 0.0173356 0.0051079)
(10.0793 0.00475016 0.00784163)
(10.1128 0.0112277 -0.0136133)
(10.0983 0.0131727 -0.0175218)
(10.082 -0.0239988 -0.0121153)
(10.0862 -0.06638 -0.00404799)
(10.1127 -0.0995061 -0.0353827)
(10.141 0.019436 -0.0234936)
(10.0475 0.0751528 0.0302669)
(9.95555 0.0885605 0.0429657)
(9.99188 -0.0279833 0.00329662)
(10.0451 -0.0718832 0.00569505)
(10.0918 -0.0474958 0.0324263)
(10.1171 -0.0082909 0.0150541)
(10.1944 0.0176962 -0.0485813)
(10.1845 0.0249104 -0.0395472)
(10.1442 -0.00226789 0.00952593)
(10.1519 -0.0129317 0.0182716)
(10.1816 0.00114061 0.0172295)
(10.1809 0.00610284 0.00617942)
(10.1249 -0.0140643 -0.00198841)
(10.0967 -0.0260394 -0.00172697)
(10.1285 0.00233683 0.00149031)
(10.1512 0.0188493 0.0172514)
(10.147 -0.00228041 0.0130858)
(10.0617 -0.0180818 0.0103054)
(10.04 -0.025706 0.00285285)
(10.0558 -0.0247147 -0.0408622)
(10.162 0.00674276 -0.0012721)
(10.1771 0.0375391 0.0200037)
(10.1737 0.00787086 0.00856084)
(10.1188 0.0125429 -0.0120623)
(10.064 0.0335776 -0.00471511)
(10.093 0.0220647 0.00124378)
(10.1575 0.00179731 -0.0107458)
(10.1403 0.00208976 -0.0129957)
(10.1129 0.0248341 -0.0240606)
(10.1188 -0.0700794 -0.0344286)
(10.0053 -0.0299323 -0.0190201)
(9.99555 0.0113006 -0.0207509)
(9.88879 0.045652 0.0340056)
(9.82546 0.0388222 0.0373702)
(9.88855 -0.00377549 0.0023497)
(9.92534 -0.00321386 0.0123342)
(9.90449 0.00958639 0.0302221)
(9.99093 0.0234403 0.0272651)
(10.0749 0.0111117 -0.0311077)
(10.0597 0.0126969 -0.0439656)
(9.97408 -0.00166861 0.00872053)
(9.97141 -0.00676032 0.0276654)
(10.0071 0.000711956 0.0179652)
(10.0148 0.00223957 0.00299152)
(9.96152 -0.000359586 -0.00450824)
(9.93438 0.00115553 -0.00693036)
(9.96829 0.00209951 -0.00622805)
(9.98562 0.00467851 0.00277376)
(9.97328 -0.00512146 0.00433418)
(9.90705 -0.00804943 0.0214078)
(9.89749 -0.00852241 0.0175658)
(9.90497 -0.00344372 -0.00991083)
(10.0431 -0.00956816 -0.0220082)
(10.0642 0.0315501 0.00362079)
(10.0573 0.0424565 0.0118835)
(9.89828 0.0172016 -0.00236972)
(9.90801 0.0224739 -0.00457964)
(10.0376 0.0148439 0.00619764)
(10.0114 -0.0347471 0.00136833)
(9.93096 -0.0342282 0.00573151)
(9.90513 -0.0193652 -0.0225576)
(9.93548 -0.0382504 -0.0403218)
)
;

boundaryField
{
    wall
    {
        type            fixedValue;
        value           uniform (0 0 0);
    }
    outlet
    {
        type            cyclic;
    }
    inlet
    {
        type            cyclic;
    }
    procBoundary0to1
    {
        type            processor;
        value           nonuniform List<vector> 
256
(
(9.95577 0.0121939 0.0162948)
(9.96933 0.0191982 0.0378466)
(9.91827 -0.00235672 -0.0136474)
(9.89408 -0.0146848 -0.0346524)
(9.91793 -0.0073944 -0.0181886)
(9.97843 0.0266791 0.0125104)
(9.92973 0.0168443 -0.00246703)
(9.9176 0.0027794 -0.0151249)
(9.97343 -0.00859359 0.0138323)
(9.95188 -0.0050222 0.00187688)
(9.86202 -0.00159287 -0.0590398)
(9.93873 -0.00044491 -0.011603)
(9.99782 0.0039781 0.0613915)
(9.97543 -0.00243079 0.0709451)
(9.93134 0.00388674 -0.0401294)
(9.95189 0.0154332 -0.0647393)
(9.96909 0.0175458 -0.0315799)
(9.98428 -0.00717866 0.00786378)
(9.97893 -0.0163366 -0.0109253)
(9.98743 -0.00309123 -0.0305719)
(9.92675 0.00734255 -0.0209684)
(9.89353 0.00768403 -0.0356981)
(9.92044 0.00244632 -0.0429361)
(9.92361 -0.00129176 -0.0303089)
(9.87256 0.00233522 0.0231461)
(9.89244 0.00725234 0.0287268)
(9.93314 0.00877938 0.0120231)
(9.903 0.00215479 -0.0143031)
(9.87613 -0.0144128 -0.035966)
(9.92974 -0.0161174 0.019609)
(9.90791 -0.0167949 0.0272559)
(9.92775 -0.00410695 -8.46808e-05)
(10.1072 0.0143824 -0.016262)
(10.0943 0.03837 0.0466753)
(10.0685 0.0300538 0.0267413)
(10.0691 0.0115908 0.00865677)
(10.1022 0.0084716 0.0167106)
(10.1378 0.00824928 0.00902572)
(10.0951 -0.0121695 -0.0176424)
(10.0912 -0.0290441 -0.0377627)
(10.1418 -0.0220266 -0.00307686)
(10.1181 -0.00308992 0.0100513)
(10.0035 0.0232876 -0.0265396)
(10.0784 -0.0108078 -0.0208393)
(10.1273 -0.0230632 0.0427186)
(10.1133 0.00351924 0.0524892)
(10.1192 0.0426085 -0.01379)
(10.1399 0.0228222 -0.0665152)
(10.1549 -0.000690078 -0.0448915)
(10.1149 -0.0176508 0.015082)
(10.0927 -0.0113475 0.00972853)
(10.1073 -0.00831077 -0.0149752)
(10.0852 -0.00841547 -0.00985588)
(10.0746 -0.0130737 -0.00964415)
(10.1148 -0.0100951 -0.0480722)
(10.1128 -0.0150109 -0.0502777)
(10.0506 0.0122754 0.028581)
(10.0569 0.018718 0.0379553)
(10.078 0.00920592 -0.00428611)
(10.0421 0.0160733 -0.0184106)
(9.98376 0.0337902 -0.0113611)
(10.0522 -0.0113144 0.0282966)
(10.0635 -0.0608067 0.0118965)
(10.0818 -0.0393337 -0.0356636)
(10.1045 -0.0328917 -0.0148571)
(10.1071 -0.0261938 -0.0110576)
(10.0585 0.0495761 0.0118491)
(10.0787 0.0949152 0.0480294)
(10.1092 0.0730686 0.0542299)
(10.1709 -0.0405477 0.0376672)
(10.1146 -0.0669003 -0.00474419)
(10.1083 -0.0598521 -0.029204)
(10.1389 -0.0421446 -0.0133606)
(10.1533 0.0232575 0.0302645)
(10.0786 0.0653697 0.00687113)
(10.0007 0.0435419 -0.00801217)
(10.0614 -0.0109362 0.010173)
(10.1343 -0.0158675 0.0319961)
(10.146 0.02178 -0.0159368)
(10.1674 0.0274869 -0.0312315)
(10.1531 0.00605578 -0.0252912)
(10.1461 -0.0019104 -0.0244921)
(10.1317 0.0123585 -0.0438048)
(10.1208 -0.017526 -0.0275836)
(10.0894 -0.0317009 -0.0197958)
(10.0941 -0.0129123 -0.0403879)
(10.1115 -0.0340913 -0.033425)
(10.1054 -0.0538018 -0.0341982)
(10.0778 -0.00904781 -0.0117653)
(10.0791 0.0169569 0.0280562)
(10.0916 0.0118545 0.0223116)
(10.0761 0.0391849 0.000977047)
(10.0599 0.0585875 0.0147063)
(10.0821 0.0327009 0.0630984)
(10.0509 -0.0613502 0.0280102)
(10.0639 -0.0829447 -0.03315)
(10.13 -0.0470311 0.000948682)
(10.1316 -0.0420564 0.0139021)
(10.042 0.0394092 0.027159)
(10.0265 0.0833779 0.0348276)
(10.154 0.0689534 0.0227504)
(10.1959 0.0169867 0.0230523)
(10.0634 -0.0460866 -0.00631398)
(10.0506 -0.0390104 -0.0123619)
(10.1217 -0.0321525 0.0247196)
(10.1098 -0.0264296 0.0227534)
(10.0869 0.0597263 0.0098846)
(10.1052 0.0754514 0.0138938)
(10.1063 0.0254668 -0.0039973)
(10.1052 -0.048038 -0.0322143)
(10.1437 -0.0295248 -0.00835429)
(10.154 -0.00559771 -0.0060482)
(10.16 0.0238992 -0.00482035)
(10.1634 0.0191791 0.00163599)
(10.1638 -0.00676708 0.00297338)
(10.1117 -0.00563619 -0.00427331)
(10.0728 -0.00302388 -0.0100685)
(10.0753 -0.00453553 -0.028074)
(10.0864 -0.015137 -0.0227451)
(10.0912 -0.0110485 -0.0217823)
(10.0849 0.0142154 -0.010853)
(10.0881 0.0196364 0.0110973)
(10.124 -0.0128719 0.0289002)
(10.12 0.00768928 -0.000759254)
(10.0743 0.0432106 -0.00969754)
(10.0658 0.0348737 0.0193368)
(10.0502 0.00470494 0.0157064)
(10.0978 -0.0327735 -0.0262606)
(10.1476 -0.0228847 0.0068772)
(10.147 0.0159481 0.00104805)
(10.1106 0.0273839 -0.0105858)
(10.0992 0.0215105 0.00452578)
(10.1113 0.0378636 0.0217263)
(10.1137 0.0204021 0.0193412)
(10.0817 -0.0362579 0.0204018)
(10.0814 -0.0486508 0.0184387)
(10.0883 -0.0351006 0.00932119)
(10.0541 -0.00189727 0.00214989)
(10.1053 0.0256271 0.00521108)
(10.1572 0.0184257 0.0088901)
(10.1608 0.0116894 0.00272405)
(10.0745 0.00588067 -0.0231854)
(10.091 -0.00540131 -0.0294948)
(10.1764 -0.0222179 -0.0120524)
(10.172 -0.00533213 0.00963951)
(10.1557 0.000280083 0.00619717)
(10.0932 -0.00817068 -0.045473)
(10.0892 -0.0063441 -0.0396026)
(10.116 -0.0101379 -0.0211183)
(10.1241 -0.0126893 -0.0119152)
(10.1088 -0.0109251 0.0099146)
(10.1044 0.0212351 -0.000602645)
(10.0765 0.0467583 -0.0168465)
(10.0774 0.0291852 0.000348208)
(10.1096 0.0192573 0.0209402)
(10.1286 0.004462 -0.00702378)
(10.1179 0.000958831 -0.01878)
(10.0806 0.0198163 0.0376419)
(10.0707 -0.0231989 0.0402549)
(10.0693 -0.0763438 0.0210281)
(10.0974 -0.1121 -0.0444983)
(10.1074 0.0711994 0.0102436)
(10.0675 0.15474 0.0769908)
(10.0444 0.127978 0.0909459)
(10.035 -0.0186467 -0.0396323)
(10.0769 -0.0547337 -0.0640368)
(10.0938 -0.0459123 -0.0205659)
(10.074 -0.0412255 0.0585925)
(10.0634 -0.0229815 0.0455913)
(10.1273 0.0742926 -0.00106025)
(10.1501 0.0320209 -0.0199693)
(10.1447 -0.0135531 -0.0112298)
(10.1445 0.00203219 0.0040637)
(10.1432 0.0306863 -0.00164632)
(10.1313 0.00854091 -0.0292272)
(10.126 -0.00561231 -0.0437197)
(10.1331 -0.026259 -0.00697333)
(10.1334 -0.0273213 -0.00685747)
(10.1192 0.00516845 -0.0134914)
(10.1199 0.0119654 0.00578852)
(10.0828 -0.0339796 0.0329288)
(10.0638 -0.0238389 0.0304658)
(10.0646 0.0148904 0.0356536)
(10.1154 0.0387758 0.00779047)
(10.1068 0.00452406 -0.0191757)
(10.1155 -0.00154093 -0.0273433)
(10.0772 0.00409423 -0.00578858)
(10.0818 0.0028544 -0.00509285)
(10.0878 0.0250732 -0.00388947)
(10.075 0.0176531 -0.0186814)
(10.0892 -0.0174693 -0.0300697)
(10.094 -0.102697 -0.0338734)
(10.0998 -0.0840947 -0.0427348)
(10.0853 0.00404961 -0.0150489)
(9.98477 0.0536552 0.043862)
(9.98678 0.01664 0.0162866)
(10.0764 -0.0126059 -0.0267774)
(10.116 0.0170122 -0.00198469)
(10.0895 0.020884 0.0766388)
(10.0356 -0.0110618 0.0740395)
(10.0666 0.00339566 0.0420073)
(10.1521 0.0377633 -0.0351497)
(10.1437 0.0114058 -0.0355186)
(10.142 -0.00817795 -0.00881271)
(10.1365 0.00179414 0.0243324)
(10.1278 -0.00577481 0.0250968)
(10.1294 -0.0135948 -0.0199389)
(10.1356 -0.0104342 -0.0363453)
(10.1424 -0.00721223 -0.0257449)
(10.1331 -0.00264253 -0.0247453)
(10.1082 -0.0185402 -0.0198687)
(10.08 -0.0353282 0.000567226)
(10.0853 -0.0266593 0.0135281)
(10.0922 0.00076313 0.0312472)
(10.1224 0.0201897 -0.00474019)
(10.129 0.0252543 -0.00901806)
(10.1155 0.00993496 0.00899208)
(10.0756 0.014457 0.0214333)
(10.0498 0.0200918 0.0200979)
(10.0931 -0.00594146 0.00991123)
(10.142 0.0117573 -0.0224008)
(10.1099 0.023209 -0.0257525)
(10.091 0.0342384 -0.0190354)
(10.1028 -0.0647833 -0.0335387)
(9.97253 0.000495971 -0.00889404)
(9.93438 0.0157642 -0.0177436)
(9.80233 -0.00412508 -0.0271151)
(9.80027 -0.00901549 -0.0183831)
(9.87993 -0.00106295 0.00269993)
(9.95357 0.0427256 0.0642817)
(9.95127 0.039268 0.082667)
(9.90876 0.0106565 0.0452023)
(9.96038 0.0164202 0.0131738)
(9.99642 0.017489 -0.0343842)
(9.97657 0.00932582 -0.0287599)
(9.97517 -0.00163833 0.00367401)
(9.97712 -0.00418051 0.00784906)
(9.97768 -0.00691401 0.00249531)
(9.97188 -0.00839939 -0.010022)
(9.97892 -0.00593672 -0.027101)
(9.98573 -0.00683283 -0.0248776)
(9.9745 -0.00496556 -0.0129483)
(9.94778 -0.018782 -0.0340432)
(9.93746 -0.0326699 -0.0295322)
(9.96708 -0.000602256 0.0276215)
(9.9711 0.0158102 0.0685526)
(9.97093 -0.00794559 0.0271579)
(9.98989 0.0212574 -0.0355703)
(9.98826 0.0406951 -0.0162515)
(9.86895 0.0178407 0.0152246)
(9.88438 0.0204867 0.0164355)
(10.0456 0.00892241 0.0191036)
(10.0198 -0.0480139 0.00255168)
(9.88936 -0.0180251 -0.0370345)
(9.87947 -0.0074869 -0.0405797)
(9.93434 -0.0368695 -0.0186555)
)
;
    }
}


// ************************************************************************* //
