/*--------------------------------*- C++ -*----------------------------------*\
| =========                 |                                                 |
| \\      /  F ield         | OpenFOAM: The Open Source CFD Toolbox           |
|  \\    /   O peration     | Version:  2506                                  |
|   \\  /    A nd           | Website:  www.openfoam.com                      |
|    \\/     M anipulation  |                                                 |
\*---------------------------------------------------------------------------*/
FoamFile
{
    version     2.0;
    format      ascii;
    arch        "LSB;label=32;scalar=64";
    class       volVectorField;
    location    "0.04";
    object      stored_U;
}
// * * * * * * * * * * * * * * * * * * * * * * * * * * * * * * * * * * * * * //

dimensions      [0 1 -1 0 0 0 0];

internalField   nonuniform List<vector> 
1152
(
(0.00544843 -0.00180628 0.03137)
(-0.000844038 0.000570071 0.0138327)
(0.000278417 -0.000591901 0.0143837)
(0.0015948 0.00036534 0.0115698)
(0.00165581 -0.000128174 0.012342)
(-0.000242986 0.00149097 0.0184334)
(0.000460663 0.00103932 0.00847951)
(0.00119896 0.00155198 0.0122043)
(0.00140302 0.00099292 0.0154351)
(0.00142182 0.00151582 0.0126182)
(0.000891121 0.00402881 0.012031)
(-0.000627469 0.00310193 0.0190412)
(0.000751992 0.000911746 0.00610994)
(0.00408666 -1.29819e-05 0.0166043)
(0.00262601 0.000655566 0.0219616)
(-0.0035266 -0.00213407 0.0210124)
(-0.00126377 0.000156749 0.0118136)
(8.99707e-05 -0.000206234 0.012588)
(0.0007329 0.00209775 0.014573)
(0.00127982 0.000111107 0.0123225)
(-0.0020132 0.000694666 0.0168336)
(0.0013211 0.000932852 0.011233)
(0.00147976 0.000925771 0.0142169)
(-0.000247182 0.000178097 0.0211783)
(-0.00130559 0.00111796 0.0189222)
(0.000870568 0.00111815 0.0211809)
(-0.000365777 -0.00166429 0.0165822)
(0.000619663 0.000201857 0.0118714)
(-0.000701882 -0.00112752 0.0147278)
(-0.000355653 -0.000186826 0.00544491)
(-7.18792e-05 0.0001345 0.000663901)
(0.00431904 0.00365186 0.0206348)
(-0.00750998 0.00124336 0.0510865)
(-0.000224301 6.8159e-05 0.0133284)
(-0.000333024 -0.000321772 0.0242527)
(-2.57966e-05 0.000162963 0.0027339)
(-0.000514439 0.000491346 0.0114477)
(0.000373224 -0.00105509 0.0185096)
(0.000567291 -0.00113314 0.0281315)
(-0.000385337 0.000205417 0.0239975)
(-0.00202515 -6.74036e-05 0.0181387)
(-0.00183836 5.64136e-05 0.0211386)
(0.000967909 -0.00286626 0.01857)
(0.00132495 -0.000317295 0.0161678)
(-0.00322394 -0.0071498 0.0301517)
(-0.00369067 -0.000961018 0.0301772)
(-0.000293966 -0.000889733 0.03909)
(-0.000396003 0.000165626 0.000875268)
(0.000107184 0.000169953 0.00334555)
(0.00227726 -0.000722393 0.0270928)
(0.000173345 -0.000363322 0.00940873)
(-0.00171596 -0.000495009 0.019612)
(-4.83896e-06 0.00229349 0.0166911)
(-0.00101349 0.00071446 0.0103399)
(-1.88626e-05 -0.000903433 0.0339472)
(0.00111671 0.0003679 0.0219028)
(-0.000607478 -0.000437411 0.0315964)
(-0.000899059 0.000710667 0.0117413)
(-0.00046533 0.000685281 0.0180176)
(0.000349897 0.000338097 0.0133263)
(-9.48813e-05 0.000126563 0.00107845)
(-0.00117686 0.00190285 0.027359)
(-0.00040283 0.000669238 0.0230168)
(-0.000333553 -0.00148078 0.0118163)
(0.0004258 0.000486274 0.0341517)
(2.03233e-05 -0.000234642 0.0168717)
(0.000662601 -0.000599088 0.0247876)
(-0.000241636 -0.000572165 0.016555)
(0.000721378 -0.00186594 0.0243323)
(-0.00108363 0.000313696 0.0127208)
(-0.000425095 1.80568e-05 0.0122349)
(0.00147123 -0.000436281 0.0197922)
(0.000544829 -0.000441447 0.00625416)
(0.00223108 -0.00158793 0.0336403)
(-0.000192074 0.000523791 0.00978632)
(0.00021267 0.0021314 0.0262557)
(0.00426061 0.00497526 0.0302579)
(-0.000101489 0.000157962 0.00102468)
(0.00365054 0.000279817 0.0458299)
(-0.000407841 0.000845665 0.0207339)
(0.000181052 -0.000228607 0.00192714)
(-0.0013546 -0.00083258 0.0149545)
(-0.000246304 -0.000739928 0.0100575)
(0.00286585 -0.000188396 0.0201758)
(0.00298957 -0.00265197 0.0237426)
(0.000160373 -0.0002149 0.00496195)
(-0.000658727 0.000779569 0.0175019)
(0.000222799 1.77637e-05 0.0050502)
(0.000513527 -0.0020616 0.00720016)
(0.00064466 -0.00155853 0.0152844)
(-5.7146e-05 0.00107995 0.0101678)
(-0.000279306 0.000767206 0.00776737)
(-6.29728e-05 -2.23818e-05 0.000971328)
(0.00504074 -0.00221257 0.0115902)
(0.00123694 -0.000805832 0.00900683)
(-0.000432402 0.000201062 0.0163946)
(-3.82644e-05 0.000194009 0.0121802)
(0.000445551 0.00117298 0.0152248)
(-0.000109141 7.20386e-06 0.00738086)
(-0.000132992 0.000255206 0.0174235)
(-0.000230346 0.000998118 0.0161608)
(0.000123802 0.000272651 0.00628528)
(0.000106674 9.3698e-05 0.0109819)
(-5.882e-05 0.000409451 0.00580057)
(-0.000876444 0.00229331 0.00727159)
(-0.000661816 4.6309e-05 0.022245)
(5.88541e-05 -0.000184968 0.0072319)
(9.08256e-05 8.80558e-06 0.0120994)
(5.47008e-05 4.13879e-05 0.00683273)
(0.000428315 -0.00270773 0.00787741)
(-0.00155575 0.000106768 0.0298295)
(0.000128216 -0.000116794 0.0154958)
(-0.000426444 0.000471353 0.0205604)
(0.000189125 0.000382237 0.0187471)
(-0.000189976 -0.000114316 0.0146896)
(-0.000186832 -0.000225229 0.0195126)
(-7.0514e-05 0.000740999 0.0211112)
(-0.000223649 0.000152547 0.01463)
(-0.000387956 -0.000180102 0.0148926)
(-0.000421908 4.75713e-05 0.0107399)
(0.000102915 0.000157423 0.0177226)
(-0.000642831 0.000213263 0.0230234)
(-0.000261724 -0.0012219 0.0153482)
(-0.000292445 -0.000577447 0.0147411)
(0.000233416 3.59018e-05 0.0345363)
(-0.0013397 0.000437218 0.0177102)
(-0.00144424 0.000187938 0.0239235)
(0.000428715 9.74341e-05 0.0196014)
(7.94517e-06 -0.00012074 0.00498415)
(0.000524552 0.000243687 0.00470561)
(0.000137514 0.000213015 0.00392465)
(-0.000233075 0.000657694 0.00456955)
(0.000107981 -0.000324931 0.00480712)
(0.000611255 -0.000459503 0.00399131)
(0.000413673 -0.000292129 0.00370195)
(-0.000232203 0.000196496 0.00323016)
(0.000636431 -0.00152069 0.00487085)
(0.000606342 -0.000824748 0.00541837)
(0.000753513 -0.00117913 0.00419862)
(0.00010558 -0.000952426 0.003916)
(0.000446499 0.000117861 0.00626441)
(0.000967131 0.000258611 0.00485523)
(0.00018953 -5.95394e-05 0.00619573)
(0.000421842 -0.000471739 0.00513499)
(7.42346e-05 -1.31995e-05 0.0107786)
(0.000288792 8.29582e-05 0.0106098)
(0.000218858 5.74709e-06 0.0101881)
(6.00867e-05 5.78953e-05 0.010349)
(9.1776e-05 -0.000199236 0.0107328)
(0.000294446 -0.000233107 0.0103638)
(0.000243493 -0.000220906 0.0100313)
(-4.64824e-05 -9.46123e-05 0.00981477)
(0.000228523 -0.000479038 0.0110912)
(0.000284634 -0.000418886 0.0110108)
(0.000329769 -0.000562686 0.0103744)
(4.39934e-05 -0.00049536 0.0101382)
(6.09906e-05 2.3994e-05 0.0120542)
(0.000205478 7.84344e-06 0.0111431)
(0.000126263 -0.000125996 0.011105)
(0.000112028 -0.000287915 0.0107254)
(6.91368e-05 -3.25114e-05 0.00899059)
(0.000121652 2.6393e-05 0.00891941)
(8.72735e-05 -1.58536e-06 0.00872967)
(-3.77057e-05 6.65917e-05 0.00871037)
(6.54956e-05 -0.000108913 0.00896403)
(0.000129219 -0.000104425 0.00885278)
(0.00010086 -0.000108305 0.00869784)
(-3.83563e-05 -4.62296e-05 0.00861674)
(8.55048e-05 -0.00018044 0.00912239)
(0.000126251 -0.000191855 0.00907352)
(0.000131508 -0.000237398 0.00886066)
(1.60481e-05 -0.000208598 0.00876399)
(2.35805e-06 -2.84561e-05 0.00932001)
(6.93347e-05 -5.56269e-05 0.00916302)
(7.13458e-05 -0.000109282 0.00911519)
(3.26906e-05 -0.000160542 0.00899584)
(4.91489e-05 -2.42327e-05 0.00929548)
(6.95334e-05 5.40227e-07 0.00927195)
(6.88051e-05 -2.98557e-05 0.00919374)
(1.99953e-05 -1.78435e-05 0.00918194)
(4.17045e-05 -5.54142e-05 0.00929826)
(6.4517e-05 -5.28324e-05 0.00926222)
(5.67723e-05 -6.9034e-05 0.00919647)
(8.97884e-07 -5.80366e-05 0.00916836)
(3.68424e-05 -7.7461e-05 0.00936292)
(5.73559e-05 -8.92207e-05 0.00933884)
(5.73891e-05 -0.000110916 0.00926467)
(1.22892e-05 -0.000107659 0.00922569)
(1.62839e-06 -3.2604e-05 0.00941316)
(3.04354e-05 -4.86234e-05 0.00938558)
(3.47272e-05 -7.18188e-05 0.00935357)
(9.97862e-06 -8.67703e-05 0.00931422)
(3.03385e-05 -1.95318e-05 0.00927779)
(3.50761e-05 -6.63173e-06 0.00926547)
(3.39392e-05 -2.277e-05 0.00921952)
(8.8483e-06 -1.40887e-05 0.0091898)
(2.52176e-05 -3.17138e-05 0.00928738)
(3.16663e-05 -2.9617e-05 0.00927272)
(2.69523e-05 -3.9518e-05 0.00923938)
(1.98696e-06 -3.50282e-05 0.00921665)
(1.98095e-05 -4.02711e-05 0.00931441)
(2.74366e-05 -4.56704e-05 0.00930331)
(2.55324e-05 -5.51153e-05 0.00927368)
(7.502e-06 -5.39315e-05 0.00925255)
(5.63123e-06 -2.88133e-05 0.00933113)
(1.6421e-05 -3.62191e-05 0.00932552)
(1.75683e-05 -4.52139e-05 0.0093093)
(5.83874e-06 -4.81552e-05 0.00929248)
(1.89306e-05 -1.57386e-05 0.00928303)
(1.96312e-05 -9.29147e-06 0.00927589)
(1.91516e-05 -1.79994e-05 0.00924864)
(7.9572e-06 -1.41904e-05 0.00922216)
(1.6132e-05 -2.09452e-05 0.00929409)
(1.76211e-05 -1.98688e-05 0.009287)
(1.492e-05 -2.53938e-05 0.00926879)
(4.06416e-06 -2.38713e-05 0.00925104)
(1.28119e-05 -2.50889e-05 0.00930705)
(1.53263e-05 -2.73269e-05 0.00930163)
(1.37908e-05 -3.15434e-05 0.00928788)
(6.47578e-06 -3.08909e-05 0.00927372)
(7.2958e-06 -2.35323e-05 0.00931498)
(1.11138e-05 -2.63987e-05 0.00931278)
(1.10352e-05 -2.94518e-05 0.00930439)
(5.73003e-06 -2.91973e-05 0.00929352)
(1.22823e-05 -1.2198e-05 0.0092889)
(1.18406e-05 -9.00409e-06 0.00928294)
(1.115e-05 -1.32431e-05 0.00926348)
(5.96914e-06 -1.12258e-05 0.00923723)
(1.09332e-05 -1.49795e-05 0.0093)
(1.08791e-05 -1.44095e-05 0.00929514)
(9.0835e-06 -1.70419e-05 0.00928294)
(4.15494e-06 -1.62411e-05 0.00926618)
(9.27122e-06 -1.75262e-05 0.00930806)
(9.8607e-06 -1.83628e-05 0.00930451)
(8.68447e-06 -2.00186e-05 0.00929612)
(5.54753e-06 -1.93847e-05 0.00928382)
(7.09813e-06 -1.84032e-05 0.00931323)
(8.38279e-06 -1.93878e-05 0.00931132)
(7.93913e-06 -2.01874e-05 0.00930561)
(5.42186e-06 -1.93234e-05 0.00929588)
(8.29868e-06 -9.3025e-06 0.00929361)
(7.64176e-06 -7.79001e-06 0.00928797)
(6.87368e-06 -9.61628e-06 0.00927228)
(4.41502e-06 -8.51077e-06 0.00924632)
(7.70355e-06 -1.11284e-05 0.00930428)
(7.27814e-06 -1.08276e-05 0.00930026)
(6.04567e-06 -1.18908e-05 0.00929069)
(3.71349e-06 -1.13453e-05 0.00927429)
(6.96151e-06 -1.289e-05 0.0093104)
(6.91965e-06 -1.31507e-05 0.00930754)
(6.06443e-06 -1.36711e-05 0.00930118)
(4.59988e-06 -1.30884e-05 0.00928947)
(6.10757e-06 -1.40787e-05 0.00931434)
(6.4954e-06 -1.43468e-05 0.00931238)
(6.04764e-06 -1.43721e-05 0.00930768)
(4.73702e-06 -1.35608e-05 0.00929819)
(5.73794e-06 -7.04183e-06 0.00929696)
(5.152e-06 -6.31236e-06 0.00929149)
(4.45601e-06 -6.97863e-06 0.00927763)
(3.19602e-06 -6.32067e-06 0.00925184)
(5.5344e-06 -8.37144e-06 0.00930721)
(5.0935e-06 -8.18078e-06 0.00930361)
(4.2389e-06 -8.50843e-06 0.00929522)
(3.09089e-06 -8.09114e-06 0.00927896)
(5.24385e-06 -9.6392e-06 0.00931241)
(5.03174e-06 -9.67921e-06 0.00930991)
(4.41452e-06 -9.73997e-06 0.00930438)
(3.64571e-06 -9.25657e-06 0.00929291)
(4.92861e-06 -1.06465e-05 0.00931561)
(4.98892e-06 -1.06542e-05 0.00931371)
(4.62533e-06 -1.04545e-05 0.00930944)
(3.87687e-06 -9.81757e-06 0.00930005)
(4.03078e-06 -5.30544e-06 0.00929939)
(3.56601e-06 -4.93086e-06 0.00929408)
(2.99569e-06 -5.0911e-06 0.00928113)
(2.32102e-06 -4.67636e-06 0.00925549)
(3.99894e-06 -6.30288e-06 0.00930927)
(3.63469e-06 -6.16658e-06 0.00930595)
(3.03032e-06 -6.18287e-06 0.00929814)
(2.43147e-06 -5.85758e-06 0.00928199)
(3.91418e-06 -7.21838e-06 0.00931395)
(3.69177e-06 -7.17846e-06 0.0093117)
(3.24378e-06 -7.07893e-06 0.00930658)
(2.80053e-06 -6.69562e-06 0.00929526)
(3.82269e-06 -7.97181e-06 0.00931662)
(3.76983e-06 -7.89937e-06 0.00931485)
(3.48821e-06 -7.67072e-06 0.00931085)
(3.02618e-06 -7.20023e-06 0.00930156)
(2.84332e-06 -3.96645e-06 0.00930111)
(2.49407e-06 -3.75302e-06 0.00929596)
(2.05759e-06 -3.71916e-06 0.00928349)
(1.67336e-06 -3.43818e-06 0.00925796)
(2.8775e-06 -4.71151e-06 0.00931072)
(2.60063e-06 -4.60295e-06 0.0093076)
(2.17245e-06 -4.51332e-06 0.00930011)
(1.83675e-06 -4.26056e-06 0.00928407)
(2.87836e-06 -5.36727e-06 0.00931505)
(2.69315e-06 -5.30267e-06 0.00931299)
(2.3694e-06 -5.16743e-06 0.00930812)
(2.0938e-06 -4.8734e-06 0.00929692)
(2.87394e-06 -5.89926e-06 0.00931734)
(2.79655e-06 -5.81408e-06 0.00931571)
(2.58352e-06 -5.61768e-06 0.00931189)
(2.27913e-06 -5.27805e-06 0.00930273)
(1.99379e-06 -2.91808e-06 0.00930233)
(1.74118e-06 -2.78388e-06 0.00929731)
(1.42199e-06 -2.69436e-06 0.0092851)
(1.18858e-06 -2.49894e-06 0.00925967)
(2.04596e-06 -3.46399e-06 0.00931173)
(1.84488e-06 -3.3768e-06 0.00930877)
(1.54474e-06 -3.26903e-06 0.00930147)
(1.34333e-06 -3.0764e-06 0.00928552)
(2.07681e-06 -3.92647e-06 0.00931581)
(1.93534e-06 -3.862e-06 0.0093139)
(1.70565e-06 -3.73908e-06 0.00930919)
(1.52665e-06 -3.51908e-06 0.0092981)
(2.10149e-06 -4.29214e-06 0.00931781)
(2.02918e-06 -4.21507e-06 0.00931632)
(1.87422e-06 -4.06365e-06 0.00931265)
(1.66807e-06 -3.82163e-06 0.00930359)
(1.37252e-06 -2.08229e-06 0.00930318)
(1.19759e-06 -1.99069e-06 0.00929828)
(9.74189e-07 -1.90016e-06 0.0092862)
(8.24833e-07 -1.76512e-06 0.00926085)
(1.42268e-06 -2.46852e-06 0.00931244)
(1.2842e-06 -2.40005e-06 0.00930959)
(1.07822e-06 -2.30511e-06 0.00930242)
(9.50757e-07 -2.16346e-06 0.00928654)
(1.4597e-06 -2.78515e-06 0.00931633)
(1.35987e-06 -2.72962e-06 0.00931454)
(1.20106e-06 -2.63161e-06 0.00930994)
(1.08121e-06 -2.47251e-06 0.00929893)
(1.49358e-06 -3.02926e-06 0.00931812)
(1.4352e-06 -2.96445e-06 0.00931674)
(1.32558e-06 -2.85374e-06 0.00931318)
(1.18372e-06 -2.68534e-06 0.00930421)
(9.12605e-07 -1.38754e-06 0.00930377)
(8.00337e-07 -1.32314e-06 0.00929894)
(6.53579e-07 -1.25063e-06 0.00928695)
(5.56895e-07 -1.1598e-06 0.00926165)
(9.53628e-07 -1.64374e-06 0.00931292)
(8.66396e-07 -1.591e-06 0.00931015)
(7.3074e-07 -1.51812e-06 0.00930305)
(6.48719e-07 -1.42026e-06 0.00928722)
(9.86896e-07 -1.8471e-06 0.0093167)
(9.25071e-07 -1.80225e-06 0.00931497)
(8.18595e-07 -1.73009e-06 0.00931045)
(7.37603e-07 -1.62158e-06 0.0092995)
(1.0214e-06 -1.9979e-06 0.00931835)
(9.81738e-07 -1.9478e-06 0.00931704)
(9.04799e-07 -1.87162e-06 0.00931355)
(8.06622e-07 -1.76052e-06 0.00930464)
(5.89161e-07 -7.66462e-07 0.00930413)
(5.27211e-07 -7.23467e-07 0.00929935)
(4.41475e-07 -6.76293e-07 0.00928741)
(3.79614e-07 -6.20561e-07 0.00926214)
(6.18611e-07 -9.09839e-07 0.00931323)
(5.7137e-07 -8.72887e-07 0.00931051)
(4.89968e-07 -8.25842e-07 0.00930345)
(4.36824e-07 -7.67827e-07 0.00928765)
(6.42581e-07 -1.02111e-06 0.00931694)
(6.10656e-07 -9.89587e-07 0.00931526)
(5.43689e-07 -9.44057e-07 0.00931078)
(4.88692e-07 -8.81176e-07 0.00929986)
(6.68777e-07 -1.09959e-06 0.00931851)
(6.47526e-07 -1.06813e-06 0.00931724)
(5.94519e-07 -1.02325e-06 0.00931379)
(5.27341e-07 -9.60952e-07 0.00930491)
(4.10067e-07 -1.99415e-07 0.0093043)
(3.85193e-07 -1.75187e-07 0.00929955)
(3.41242e-07 -1.50064e-07 0.00928765)
(2.96192e-07 -1.2466e-07 0.0092624)
(4.27497e-07 -2.41383e-07 0.00931338)
(4.0765e-07 -2.2195e-07 0.00931069)
(3.6459e-07 -2.00079e-07 0.00930367)
(3.22741e-07 -1.75024e-07 0.0092879)
(4.40451e-07 -2.74261e-07 0.00931707)
(4.26123e-07 -2.59616e-07 0.00931542)
(3.87328e-07 -2.40877e-07 0.00931097)
(3.44128e-07 -2.1665e-07 0.00930007)
(4.52158e-07 -2.98306e-07 0.00931861)
(4.40651e-07 -2.87495e-07 0.00931736)
(4.0575e-07 -2.72405e-07 0.00931395)
(3.57574e-07 -2.51373e-07 0.0093051)
(0.00143397 -0.0010537 0.0187184)
(0.000102948 0.00072885 0.00915071)
(0.000732211 0.00109097 0.00862001)
(0.00207218 0.000415215 0.0131637)
(0.000649465 0.000183289 0.0104929)
(0.0020478 -6.98182e-05 0.0181467)
(0.00109775 0.00216823 0.0235583)
(0.00122633 -0.000485081 0.0138688)
(-0.000854366 0.000969091 0.0149909)
(0.000176033 -0.000121204 0.00643917)
(0.00323112 -0.00115766 0.0170682)
(0.00184031 -0.00217295 0.0189321)
(0.000685889 0.000343445 0.0163341)
(-0.000605814 0.00100132 0.0162799)
(0.00102869 -0.00139544 0.0133329)
(0.000431351 -0.000383646 0.00477814)
(-0.00104927 0.00196453 0.0148327)
(0.00222903 -0.000473298 0.0202585)
(0.00106394 -0.0011667 0.0173099)
(0.000661863 -0.000955414 0.0272479)
(-0.00108512 0.00172819 0.0134129)
(-0.000217297 8.06564e-05 0.0199564)
(0.000819987 -0.000492427 0.0138081)
(0.00134967 -0.000713939 0.0135111)
(0.000462233 0.000966107 0.0221566)
(-0.000169866 0.000315224 0.0146754)
(-0.000663958 0.000211672 0.021386)
(0.00105142 0.0013314 0.0157623)
(-0.00244473 -0.00011456 0.0224691)
(-0.000332945 -0.000285947 0.00772627)
(0.000711672 0.000954211 0.0139151)
(0.00170441 0.00207468 0.018419)
(-0.000553548 0.000732195 0.0146614)
(0.00132223 -0.000229822 0.0220413)
(0.000285175 4.02916e-05 0.0179726)
(0.000682488 -0.000217766 0.0236075)
(-0.00028987 0.00197911 0.0180514)
(0.000801307 0.000248373 0.0214164)
(0.000695783 0.000277971 0.0282963)
(0.000375921 -0.000537019 0.0256254)
(-0.000336957 0.00106378 0.0210313)
(-0.000241353 0.00078589 0.0189692)
(7.20215e-05 0.00161093 0.0239183)
(-1.23339e-05 0.00064703 0.00938316)
(-8.96589e-05 6.73991e-05 0.000880942)
(0.00155991 0.00181008 0.0314843)
(0.000178359 0.000318816 0.00489057)
(-0.00159038 0.000854187 0.0368418)
(-2.43873e-06 -4.43159e-05 0.00588011)
(-0.00030429 -0.000763456 0.0269902)
(9.32847e-06 -0.000988266 0.0171768)
(-0.000210568 -0.00134843 0.0359351)
(0.000139053 -0.000242808 0.00840464)
(-0.000667072 -0.00086503 0.021661)
(-6.05397e-05 -0.000938465 0.0226845)
(-8.77626e-05 0.000495247 0.0121837)
(0.000298675 -0.00184365 0.0318762)
(-2.56946e-05 0.000291241 0.0151799)
(0.000254159 0.000891546 0.0222657)
(-0.000566234 0.000760387 0.016193)
(0.00107944 -0.00146358 0.0151031)
(0.000208136 4.19489e-05 0.00640876)
(0.000281893 -3.09394e-05 0.0315358)
(-0.000783663 -0.000606234 0.016372)
(0.00019568 -0.000110132 0.0167551)
(-0.00210439 -0.000198159 0.0235934)
(-0.00126066 1.33622e-05 0.0264831)
(0.000451341 0.00283208 0.0295046)
(0.000800987 -0.00214056 0.0216349)
(-0.00163179 0.00010714 0.0182019)
(-0.000328439 0.000279135 0.0154331)
(-0.000242905 0.000801579 0.0132453)
(0.000620077 -0.001976 0.0269018)
(-4.02229e-05 -0.000200604 0.0139429)
(-0.000766946 -0.00040559 0.02743)
(0.000242454 -0.000257311 0.018123)
(-0.000317367 5.40129e-05 0.0133586)
(-0.0010918 -0.00171295 0.0325466)
(4.91296e-05 3.84043e-05 0.00612552)
(0.000851519 0.00112576 0.0410123)
(-0.000104826 -1.0905e-05 0.000451603)
(-0.00368546 0.00157424 0.0185465)
(7.88199e-06 0.000184028 0.00803338)
(0.00118389 0.000596711 0.0150133)
(0.0011744 -0.00111727 0.0190794)
(-0.00172649 0.00162524 0.012579)
(-0.0017536 0.00174979 0.0150373)
(0.000698067 0.00274534 0.0165738)
(-0.000143326 0.000712304 0.00805095)
(-0.00107567 0.000371822 0.015002)
(-0.00108097 0.00184948 0.0117756)
(-0.000397184 0.000727881 0.0120158)
(0.000728085 -5.05121e-05 0.00993407)
(-0.000471349 -9.86156e-06 0.00591639)
(-0.00107134 -0.000484391 0.0132731)
(0.000107245 0.0001361 0.00920525)
(0.000144998 0.00061936 0.00351325)
(-0.00153308 -0.000698787 0.00817637)
(-0.00051094 -0.000183217 0.0113461)
(-0.000508057 0.000157733 0.017571)
(0.000942112 0.000359728 0.0151667)
(0.000200302 8.28396e-06 0.0155773)
(-3.17125e-05 -0.000241769 0.0063607)
(-8.31519e-05 -0.00019526 0.00511579)
(0.00100316 0.000625772 0.0128077)
(2.90744e-05 0.000266405 0.0136099)
(-7.98303e-05 -0.000264604 0.0149181)
(0.000268348 -0.000483094 0.019119)
(0.000668346 0.000311803 0.0136802)
(-0.000505557 0.00169751 0.0123229)
(-0.000327298 0.000602487 0.0129466)
(-7.24091e-05 -3.45173e-06 0.0126778)
(0.000133502 0.000640622 0.0205553)
(0.00111936 -0.000159058 0.0197937)
(-0.000522273 -0.00031087 0.0155922)
(-0.000585755 -0.000179641 0.0212724)
(-0.000175687 0.000822244 0.0215686)
(0.000896003 -0.000352671 0.0206857)
(1.06629e-05 -0.000466227 0.0134106)
(-0.000365188 -0.000522199 0.0152628)
(4.37133e-05 0.000313659 0.0177427)
(0.000302489 -2.53837e-05 0.0184439)
(-8.91922e-05 -0.000556796 0.0182626)
(-0.000119521 -0.000554425 0.019104)
(-0.000218365 0.000210715 0.0172895)
(0.000241864 1.2852e-05 0.0176328)
(-0.000134837 -5.89292e-06 0.0175727)
(-0.000187051 -0.000319892 0.0188053)
(0.00120213 0.000200829 0.00305853)
(0.000359693 0.000286177 0.00407456)
(8.90009e-05 0.00014039 0.00365133)
(-0.000729399 1.62494e-05 0.00480669)
(0.00024289 0.000709081 0.00471058)
(0.000593109 0.000759617 0.00483409)
(0.000348502 -2.82709e-05 0.00360618)
(-0.000719185 0.000117641 0.00412025)
(0.000181332 0.000669261 0.00494373)
(0.000175233 0.000683066 0.00493615)
(0.000173234 -0.000213054 0.00446072)
(-0.000326739 9.51262e-06 0.00459023)
(6.33776e-05 4.32096e-05 0.00495215)
(0.000179481 0.000326454 0.0047015)
(-1.10156e-05 0.000183712 0.004445)
(-0.000295631 0.000238388 0.00457751)
(0.00035308 -0.00014405 0.0100441)
(0.000138369 5.62665e-06 0.0108964)
(0.000248119 2.34065e-05 0.00994444)
(-0.000198205 -9.09732e-05 0.0106511)
(0.000108527 -0.000114043 0.010739)
(0.000315012 0.00013026 0.0109801)
(0.000368118 -8.28398e-05 0.0100008)
(-0.000156443 -4.96006e-05 0.0104428)
(0.000106083 0.000102491 0.010762)
(0.000237081 0.000256577 0.0108666)
(0.00031568 -4.27734e-05 0.0103444)
(-4.89055e-05 4.77903e-06 0.0105117)
(8.5903e-05 3.82413e-05 0.0107034)
(0.00023231 0.000181436 0.0106679)
(0.000248375 5.16901e-05 0.0103512)
(1.32299e-05 1.79162e-05 0.0104724)
(0.000144455 -6.95021e-05 0.0084175)
(-2.52887e-05 2.80621e-05 0.00878534)
(6.31578e-05 1.48026e-05 0.00830077)
(-0.000157466 -4.8658e-05 0.00851984)
(7.78978e-05 -9.80854e-05 0.00883676)
(5.60163e-05 9.33515e-05 0.00894866)
(9.10894e-05 -2.18678e-05 0.00847908)
(-0.00016185 8.17894e-06 0.008579)
(7.358e-05 -3.73514e-05 0.0089669)
(6.95426e-05 0.000103973 0.00898409)
(8.8008e-05 -4.12557e-05 0.00866133)
(-0.000109513 2.62137e-05 0.00865038)
(6.84689e-05 -3.15314e-05 0.00897789)
(8.39127e-05 7.29054e-05 0.0089382)
(7.27801e-05 -7.53342e-06 0.00872566)
(-6.73013e-05 4.42623e-05 0.00868209)
(7.21552e-05 -3.95002e-05 0.00887287)
(1.72652e-05 1.33388e-05 0.00910832)
(8.11918e-05 9.81761e-06 0.00886561)
(-4.6352e-05 -3.04264e-05 0.00901185)
(5.74334e-05 -6.71793e-05 0.00909783)
(4.61373e-05 3.59222e-05 0.00920835)
(9.32293e-05 -2.0014e-05 0.0089928)
(-4.01282e-05 -1.37108e-05 0.0090838)
(5.48739e-05 -3.67169e-05 0.00921667)
(5.6346e-05 4.8847e-05 0.00925935)
(8.728e-05 -2.13102e-05 0.00910827)
(-2.23429e-05 1.26004e-06 0.0091414)
(5.26668e-05 -2.36679e-05 0.00926756)
(6.26935e-05 3.28127e-05 0.00926865)
(7.70636e-05 -1.73949e-05 0.00917229)
(1.44087e-06 -4.64542e-06 0.00917126)
(3.59168e-05 -1.72063e-05 0.00892803)
(9.85486e-06 9.11788e-06 0.00903449)
(3.64167e-05 4.49953e-06 0.0088795)
(-2.73678e-05 -1.39678e-05 0.00891733)
(3.37993e-05 -3.33104e-05 0.00909925)
(2.12738e-05 1.84562e-05 0.00915283)
(4.23961e-05 -1.07784e-05 0.00901627)
(-2.50735e-05 -5.02197e-06 0.00902329)
(3.33141e-05 -2.57508e-05 0.00920146)
(2.78661e-05 1.97542e-05 0.0092195)
(4.13628e-05 -1.64647e-05 0.00911816)
(-1.44501e-05 -2.2996e-06 0.00909898)
(3.24857e-05 -1.97522e-05 0.00925204)
(3.18764e-05 1.01509e-05 0.00924927)
(3.71833e-05 -1.68438e-05 0.00918268)
(-1.60701e-06 -6.70502e-06 0.00914977)
(2.02173e-05 -8.12898e-06 0.00897414)
(8.45485e-06 5.15275e-06 0.00902139)
(2.07994e-05 2.47804e-06 0.00893367)
(-1.11961e-05 -7.23952e-06 0.00894238)
(2.03807e-05 -1.77332e-05 0.00911813)
(1.27892e-05 7.58894e-06 0.009141)
(2.35908e-05 -7.20812e-06 0.00906085)
(-9.52948e-06 -5.42272e-06 0.00904917)
(2.04307e-05 -1.70556e-05 0.00920908)
(1.61039e-05 5.89241e-06 0.00921499)
(2.30198e-05 -1.18628e-05 0.00915348)
(-4.56443e-06 -5.39281e-06 0.009128)
(2.01123e-05 -1.53054e-05 0.00925828)
(1.83041e-05 -1.10678e-07 0.00925467)
(2.114e-05 -1.36928e-05 0.00921336)
(1.71799e-06 -9.19547e-06 0.00918182)
(1.22171e-05 -3.95827e-06 0.00899809)
(6.22928e-06 2.70016e-06 0.00901417)
(1.09552e-05 1.14857e-06 0.00895826)
(-4.78252e-06 -3.54096e-06 0.00894656)
(1.26629e-05 -9.74224e-06 0.00913207)
(8.10953e-06 2.52995e-06 0.00913649)
(1.25472e-05 -4.7541e-06 0.00908267)
(-3.76534e-06 -3.88006e-06 0.00905678)
(1.28519e-05 -1.10286e-05 0.00921752)
(9.85726e-06 2.0777e-07 0.0092148)
(1.25841e-05 -8.2605e-06 0.00917154)
(-1.11745e-06 -5.08067e-06 0.00913877)
(1.27871e-05 -1.12375e-05 0.00926499)
(1.1126e-05 -3.76809e-06 0.00925919)
(1.19701e-05 -1.02635e-05 0.00922893)
(2.08823e-06 -8.21745e-06 0.00919503)
(7.82669e-06 -1.99519e-06 0.00901202)
(4.59236e-06 1.3558e-06 0.00901269)
(5.96583e-06 5.19171e-07 0.00897336)
(-1.83118e-06 -1.8032e-06 0.00895242)
(8.16184e-06 -5.60218e-06 0.00914189)
(5.49317e-06 2.59415e-07 0.00913651)
(6.92197e-06 -3.22909e-06 0.00909618)
(-1.16986e-06 -2.91441e-06 0.00906374)
(8.36913e-06 -7.19886e-06 0.00922448)
(6.44334e-06 -1.82639e-06 0.00921684)
(7.17508e-06 -5.74349e-06 0.00918296)
(2.72287e-07 -4.34333e-06 0.00914676)
(8.44096e-06 -8.11946e-06 0.00927049)
(7.18677e-06 -4.56876e-06 0.0092632)
(7.06365e-06 -7.52745e-06 0.00923863)
(1.91271e-06 -6.79186e-06 0.00920382)
(5.2085e-06 -1.05611e-06 0.00902011)
(3.31831e-06 6.55708e-07 0.00901332)
(3.30472e-06 2.10314e-07 0.00898216)
(-6.23611e-07 -9.84163e-07 0.00895657)
(5.43837e-06 -3.38888e-06 0.00914827)
(3.80294e-06 -6.03694e-07 0.00913797)
(3.8996e-06 -2.23729e-06 0.00910428)
(-1.98763e-07 -2.19393e-06 0.0090685)
(5.61849e-06 -4.81843e-06 0.00922941)
(4.36082e-06 -2.33479e-06 0.00921923)
(4.20116e-06 -4.03752e-06 0.00918998)
(6.18859e-07 -3.45748e-06 0.00915199)
(5.72373e-06 -5.89809e-06 0.00927444)
(4.82817e-06 -4.28331e-06 0.00926635)
(4.35857e-06 -5.49481e-06 0.00924463)
(1.50874e-06 -5.32834e-06 0.00920935)
(3.54046e-06 -5.95401e-07 0.00902499)
(2.36242e-06 3.08218e-07 0.00901479)
(1.90172e-06 6.9556e-08 0.00898759)
(-1.35018e-07 -5.73066e-07 0.00895981)
(3.69634e-06 -2.16323e-06 0.00915244)
(2.65011e-06 -8.44463e-07 0.00913985)
(2.28019e-06 -1.58243e-06 0.0091094)
(1.44972e-07 -1.6468e-06 0.00907206)
(3.83919e-06 -3.32891e-06 0.00923283)
(3.00163e-06 -2.19509e-06 0.00922148)
(2.56667e-06 -2.86931e-06 0.00919452)
(6.27157e-07 -2.64768e-06 0.00915571)
(3.95763e-06 -4.32214e-06 0.00927728)
(3.31879e-06 -3.57883e-06 0.00926888)
(2.80626e-06 -4.0147e-06 0.00924858)
(1.13587e-06 -4.06115e-06 0.0092131)
(2.43364e-06 -3.58992e-07 0.009028)
(1.66049e-06 1.26128e-07 0.00901636)
(1.12916e-06 4.48235e-09 0.00899101)
(2.96452e-08 -3.59345e-07 0.00896224)
(2.53618e-06 -1.44607e-06 0.00915516)
(1.8425e-06 -8.18592e-07 0.00914163)
(1.3812e-06 -1.13586e-06 0.0091127)
(2.15491e-07 -1.22142e-06 0.00907465)
(2.64904e-06 -2.35432e-06 0.00923518)
(2.07522e-06 -1.82748e-06 0.00922339)
(1.62177e-06 -2.06031e-06 0.00919751)
(5.13554e-07 -1.97832e-06 0.00915835)
(2.75812e-06 -3.1766e-06 0.00927929)
(2.30168e-06 -2.82201e-06 0.00927084)
(1.85973e-06 -2.93655e-06 0.00925122)
(8.22175e-07 -3.03744e-06 0.0092157)
(1.67234e-06 -2.2962e-07 0.00902992)
(1.14865e-06 4.00878e-08 0.00901772)
(6.91815e-07 -2.06492e-08 0.00899322)
(6.70083e-08 -2.4167e-07 0.00896403)
(1.73939e-06 -9.94921e-07 0.00915697)
(1.26861e-06 -6.88091e-07 0.0091431)
(8.60541e-07 -8.1674e-07 0.00911487)
(1.89206e-07 -8.94905e-07 0.00907654)
(1.82486e-06 -1.68066e-06 0.00923679)
(1.42911e-06 -1.42296e-06 0.00922489)
(1.05051e-06 -1.47768e-06 0.00919952)
(3.79846e-07 -1.4461e-06 0.00916024)
(1.9157e-06 -2.31646e-06 0.0092807)
(1.59434e-06 -2.1338e-06 0.0092723)
(1.25288e-06 -2.12918e-06 0.00925303)
(5.77098e-07 -2.22867e-06 0.00921753)
(1.13236e-06 -1.50737e-07 0.00903117)
(7.77183e-07 3.47467e-09 0.00901879)
(4.32398e-07 -2.55948e-08 0.00899468)
(6.29186e-08 -1.64365e-07 0.0089653)
(1.17618e-06 -6.83744e-07 0.00915818)
(8.57414e-07 -5.28335e-07 0.00914423)
(5.45738e-07 -5.75577e-07 0.00911632)
(1.42422e-07 -6.3533e-07 0.00907788)
(1.23773e-06 -1.18162e-06 0.0092379)
(9.68369e-07 -1.0466e-06 0.00922601)
(6.87708e-07 -1.03779e-06 0.00920087)
(2.66183e-07 -1.02239e-06 0.00916156)
(1.30834e-06 -1.64687e-06 0.00928168)
(1.0877e-06 -1.54225e-06 0.00927336)
(8.44217e-07 -1.50257e-06 0.00925427)
(3.94818e-07 -1.58238e-06 0.0092188)
(7.42452e-07 -9.4638e-08 0.00903198)
(5.13221e-07 -3.39201e-09 0.00901956)
(2.78489e-07 -1.45515e-08 0.00899561)
(5.85731e-08 -9.79895e-08 0.00896618)
(7.70968e-07 -4.4524e-07 0.00915898)
(5.6547e-07 -3.6193e-07 0.00914503)
(3.52264e-07 -3.75367e-07 0.00911727)
(1.0928e-07 -4.13946e-07 0.00907879)
(8.13314e-07 -7.81166e-07 0.00923864)
(6.39373e-07 -7.04755e-07 0.00922679)
(4.50344e-07 -6.80027e-07 0.00920177)
(1.8791e-07 -6.68663e-07 0.00916246)
(8.64179e-07 -1.09551e-06 0.00928235)
(7.21986e-07 -1.03033e-06 0.00927409)
(5.61015e-07 -9.88646e-07 0.00925509)
(2.70245e-07 -1.04194e-06 0.00921965)
(4.78491e-07 -4.42536e-08 0.00903245)
(3.50948e-07 1.56737e-08 0.00902004)
(2.13718e-07 2.19026e-08 0.00899617)
(8.78245e-08 -1.45274e-08 0.00896672)
(4.9599e-07 -2.3789e-07 0.00915945)
(3.81051e-07 -1.87843e-07 0.00914553)
(2.56132e-07 -1.825e-07 0.00911783)
(1.1864e-07 -1.9762e-07 0.00907935)
(5.23019e-07 -4.26329e-07 0.00923909)
(4.25784e-07 -3.80619e-07 0.00922728)
(3.15084e-07 -3.53839e-07 0.00920231)
(1.64728e-07 -3.43857e-07 0.00916301)
(5.56316e-07 -6.03103e-07 0.00928277)
(4.77683e-07 -5.6215e-07 0.00927455)
(3.83038e-07 -5.30005e-07 0.0092556)
(2.12698e-07 -5.57143e-07 0.00922018)
(3.43094e-07 6.74901e-09 0.00903265)
(2.97549e-07 5.95415e-08 0.00902027)
(2.34539e-07 9.08883e-08 0.00899645)
(1.66962e-07 1.01979e-07 0.00896701)
(3.53137e-07 -4.94553e-08 0.00915965)
(3.10739e-07 -7.79617e-09 0.00914576)
(2.53081e-07 1.75837e-08 0.00911812)
(1.84134e-07 3.18187e-08 0.00907965)
(3.68852e-07 -1.02741e-07 0.00923928)
(3.3172e-07 -7.03833e-08 0.00922751)
(2.7985e-07 -4.42437e-08 0.00920259)
(2.07827e-07 -2.47241e-08 0.0091633)
(3.89185e-07 -1.52863e-07 0.00928295)
(3.57965e-07 -1.26828e-07 0.00927477)
(3.12522e-07 -1.03063e-07 0.00925586)
(2.33671e-07 -9.98782e-08 0.00922047)
(0.00442521 0.000438842 0.0209269)
(0.00202235 -0.000840513 0.0143578)
(0.00242272 -0.000457816 0.0120001)
(0.00390051 0.00153769 0.0211422)
(0.000738386 0.000333287 0.0157163)
(0.00159563 0.000838597 0.011299)
(0.000602177 -1.24885e-06 0.00213914)
(0.00273975 -0.000154942 0.0117066)
(0.00156249 -3.32513e-05 0.0113442)
(0.00386364 0.000795814 0.0133993)
(0.00239841 0.00168668 0.0199677)
(0.000160472 0.000296711 0.014185)
(0.000149258 0.000158205 0.0068854)
(0.00406176 -0.00127979 0.0167359)
(0.00314866 -0.00083667 0.018727)
(0.000618164 0.000987267 0.0202768)
(0.000190447 -9.45096e-05 0.0037052)
(0.000259473 0.003377 0.0263068)