/*--------------------------------*- C++ -*----------------------------------*\
| =========                 |                                                 |
| \\      /  F ield         | OpenFOAM: The Open Source CFD Toolbox           |
|  \\    /   O peration     | Version:  2506                                  |
|   \\  /    A nd           | Website:  www.openfoam.com                      |
|    \\/     M anipulation  |                                                 |
\*---------------------------------------------------------------------------*/
FoamFile
{
    version     2.0;
    format      ascii;
    arch        "LSB;label=32;scalar=64";
    class       volVectorField;
    location    "0.04";
    object      U;
}
// * * * * * * * * * * * * * * * * * * * * * * * * * * * * * * * * * * * * * //

dimensions      [0 1 -1 0 0 0 0];

internalField   nonuniform List<vector> 
1152
(
(0.00555127 -0.00161184 0.0305124)
(-0.000769242 0.00102486 0.0135276)
(4.97879e-05 0.00022168 0.0140923)
(0.00107339 0.00105244 0.0114103)
(0.00201464 0.000229755 0.0119569)
(0.000657974 0.0031547 0.0176634)
(0.000435434 0.00235907 0.00827139)
(0.000294782 0.00289282 0.0118653)
(0.0025749 0.00148014 0.0146919)
(0.00350704 0.00339511 0.0116055)
(0.0010454 0.00851128 0.0114173)
(-0.00470398 0.00628632 0.0181155)
(0.00172822 0.000954641 0.0055581)
(0.0106864 -0.000293457 0.0131887)
(0.0026473 0.000112504 0.0145984)
(-0.0122213 -0.00300848 0.0202903)
(-0.00130237 0.000200536 0.0114029)
(0.000215652 -0.00024056 0.0123898)
(0.000727457 0.00213849 0.0143147)
(0.00109418 0.00015126 0.0122367)
(-0.00194823 0.000657286 0.0164146)
(0.00146698 0.000948775 0.0107592)
(0.00143986 0.00155072 0.0135647)
(-0.000664467 0.000574609 0.0205005)
(-0.00110943 0.000599165 0.0180431)
(0.00211964 0.000555215 0.0188747)
(-3.97268e-05 -0.00104185 0.0133544)
(-0.000142596 0.000715708 0.0109657)
(-0.000432412 -0.00139032 0.013432)
(9.12635e-05 -0.000288469 0.00435125)
(-9.46557e-05 0.000106279 0.000695236)
(0.00328398 0.00298579 0.0170992)
(-0.00579776 -0.0006155 0.0521515)
(0.00010006 -0.000308574 0.013476)
(4.94838e-05 -0.00126525 0.0244844)
(-2.92692e-05 0.000258204 0.0027612)
(-0.000696389 0.000532317 0.0113825)
(0.000265195 -0.00206042 0.0186247)
(0.000970506 -0.004345 0.0279016)
(0.000135715 -0.000917413 0.0239806)
(-0.00301787 -0.000918786 0.0176999)
(-0.0033786 -0.00218049 0.0206161)
(0.00147967 -0.00897761 0.0177783)
(0.0026424 -0.00164091 0.0158023)
(-0.006144 -0.00734863 0.0279194)
(-0.0114683 -0.00110619 0.0286499)
(0.00117297 -0.000497675 0.0359615)
(-0.000374149 0.00011726 0.000840851)
(-8.12513e-05 0.000236385 0.00354836)
(0.0019983 -0.001634 0.0284094)
(0.000172038 -0.000527043 0.00983441)
(-0.00164631 -0.00085557 0.0203464)
(-0.000675459 0.00129231 0.0174763)
(-0.00106463 0.000356683 0.0107887)
(0.00038195 -0.00265905 0.0360038)
(0.00157652 -0.000102513 0.0230211)
(-0.000579129 -0.004195 0.0320615)
(-0.000985376 -1.83287e-05 0.0125348)
(7.53456e-06 -0.000539018 0.0200218)
(0.000827922 8.5377e-05 0.0142268)
(-2.97874e-05 9.69115e-05 0.00103655)
(-0.000565731 0.00173522 0.0293399)
(0.000755394 0.000537492 0.0303131)
(0.000383473 -0.0015679 0.0130782)
(-4.59852e-05 1.19418e-05 0.0351054)
(-5.00776e-06 -0.00034275 0.0176206)
(0.000709262 -0.00089326 0.0259691)
(-0.000190817 -0.000562061 0.0172792)
(0.000494674 -0.00272 0.025985)
(-0.00119454 0.000287468 0.0133846)
(-0.000441599 -3.09424e-05 0.0129855)
(0.00182994 -0.000448496 0.0209298)
(0.000544208 -0.00077438 0.0065161)
(0.00291095 -0.00298592 0.0369149)
(-0.000308423 0.00060405 0.0105357)
(0.000992574 0.00211019 0.0278826)
(0.00290586 0.00487228 0.0350911)
(-0.000327167 0.000226213 0.000996625)
(0.00581684 -0.00024341 0.0515367)
(3.54496e-05 0.000922568 0.0223988)
(0.000125936 -0.000299347 0.00198903)
(-0.00121475 -0.000923863 0.0156304)
(-0.000428507 -0.000834545 0.0105121)
(0.00281142 -0.000183102 0.0211011)
(0.00300748 -0.00245203 0.0252512)
(8.59425e-05 -0.000113258 0.00530613)
(-0.000666124 0.000702077 0.0183986)
(0.000162089 6.39857e-05 0.00527657)
(0.000621713 -0.001463 0.00852946)
(0.000779086 -0.0012877 0.0164675)
(-1.19196e-05 0.00111115 0.0108005)
(-0.000247845 0.000853272 0.00813685)
(-6.33201e-05 -4.43638e-05 0.000996747)
(0.00437676 -0.00252018 0.0142586)
(0.0010468 -0.000823055 0.00963937)
(-0.000297631 0.000226848 0.0173884)
(-2.78803e-05 -9.42858e-05 0.0137132)
(0.000285225 0.000889853 0.0162081)
(-0.000170828 -0.000145108 0.00776367)
(4.13644e-05 0.000336924 0.018309)
(-0.000169414 0.000689082 0.0172591)
(6.87412e-05 8.3746e-05 0.00680001)
(7.87041e-05 6.89179e-06 0.0116242)
(-8.3448e-06 0.000545018 0.00603451)
(-0.000911926 0.00175056 0.00768041)
(-0.000462257 -9.11374e-05 0.0239078)
(0.000161783 -0.000132707 0.0077601)
(0.000295545 4.14883e-05 0.0127644)
(7.57513e-05 -1.85687e-05 0.00854729)
(0.00110189 -0.00276127 0.00772442)
(-0.00131391 2.08863e-05 0.0322367)
(0.000543111 -0.000135816 0.0165417)
(-0.000439062 0.000538904 0.0210885)
(0.000188421 0.00040946 0.0194058)
(-9.9728e-05 -7.84942e-05 0.0150848)
(-4.81866e-05 -0.000141116 0.0199001)
(-0.000106796 0.000974676 0.0218763)
(-0.000240982 0.000229859 0.0151998)
(-0.000282409 -0.000139166 0.0154189)
(-0.000237156 0.000120574 0.0110881)
(1.6391e-05 0.00114047 0.0179786)
(-0.000838377 0.000462203 0.023795)
(-0.000179767 -0.00119225 0.0160118)
(-8.63741e-05 -0.000552616 0.0152465)
(4.35292e-05 8.44372e-05 0.0279429)
(-0.00230384 0.000454482 0.0179828)
(-0.00156761 0.000210166 0.0247933)
(0.000634777 6.36305e-05 0.0202357)
(3.3364e-05 -8.81562e-05 0.00514239)
(0.000573101 0.000281376 0.00489362)
(0.000199475 0.000249254 0.0040844)
(-0.000147947 0.000712093 0.00470769)
(0.000137511 -0.000184996 0.00496941)
(0.000647358 -0.000359289 0.00417099)
(0.000466636 -0.000244449 0.00386631)
(-0.00012855 0.000250267 0.00334058)
(0.000673356 -0.00132647 0.00491719)
(0.000561615 -0.000684358 0.00559947)
(0.00076947 -0.00115601 0.00437288)
(0.000213541 -0.000924787 0.00402613)
(0.000524811 0.000203472 0.00576439)
(0.000832618 0.000323078 0.00489725)
(0.000129581 -1.92765e-05 0.00638745)
(0.000539194 -0.000460802 0.00527017)
(9.72025e-05 1.24754e-05 0.0109677)
(0.000320138 0.000110554 0.0107905)
(0.000252236 3.20161e-05 0.010355)
(0.000104524 8.8111e-05 0.0104983)
(0.00012105 -0.00013041 0.0109102)
(0.000318105 -0.000173129 0.010528)
(0.000272417 -0.000183426 0.0101932)
(2.52892e-06 -5.68543e-05 0.00995225)
(0.000257204 -0.000408196 0.0112068)
(0.000284359 -0.000352267 0.0111473)
(0.000340927 -0.000527254 0.0105329)
(9.14029e-05 -0.000467038 0.0102714)
(0.000100061 7.49987e-05 0.0121181)
(0.000193355 5.43025e-05 0.0112326)
(0.000116338 -8.95846e-05 0.0112791)
(0.00015502 -0.000262162 0.0108681)
(9.12082e-05 -1.05381e-05 0.00912016)
(0.000145328 4.78538e-05 0.00904473)
(0.000110242 2.15901e-05 0.0088484)
(-1.20232e-05 9.23275e-05 0.0088227)
(8.99773e-05 -7.49416e-05 0.00908332)
(0.000151825 -7.13228e-05 0.0089672)
(0.000124365 -7.90614e-05 0.00881186)
(-1.01848e-05 -1.65432e-05 0.00872164)
(0.000110769 -0.000146026 0.00921867)
(0.000145143 -0.000155998 0.00917211)
(0.000150954 -0.000206268 0.00896923)
(4.35722e-05 -0.000181255 0.00886539)
(2.97955e-05 9.92901e-06 0.00940645)
(8.84729e-05 -1.87633e-05 0.0092481)
(8.60049e-05 -7.76834e-05 0.0092228)
(5.68554e-05 -0.000133915 0.00909829)
(6.78839e-05 -7.62529e-06 0.00941513)
(8.82997e-05 1.66727e-05 0.00938777)
(8.69129e-05 -1.23996e-05 0.00930577)
(3.76881e-05 4.96394e-07 0.00928988)
(6.14256e-05 -3.33584e-05 0.0094127)
(8.36222e-05 -3.08777e-05 0.00937285)
(7.55999e-05 -4.72093e-05 0.00930444)
(1.95004e-05 -3.62845e-05 0.00927117)
(5.75233e-05 -5.26757e-05 0.00946974)
(7.58884e-05 -6.40748e-05 0.00944263)
(7.52293e-05 -8.69085e-05 0.00936788)
(3.05721e-05 -8.52685e-05 0.00932451)
(2.29153e-05 -4.1747e-06 0.00951643)
(4.8692e-05 -2.08676e-05 0.00948412)
(5.06658e-05 -4.58668e-05 0.00945289)
(2.67367e-05 -6.35358e-05 0.00941068)
(4.49658e-05 -6.73107e-06 0.00939054)
(4.96056e-05 5.97979e-06 0.00937487)
(4.76649e-05 -9.49605e-06 0.00932605)
(2.11452e-05 -1.44212e-07 0.00929277)
(4.07184e-05 -1.55259e-05 0.00939713)
(4.66297e-05 -1.32689e-05 0.00937924)
(4.12631e-05 -2.28717e-05 0.009343)
(1.48135e-05 -1.83456e-05 0.00931655)
(3.59534e-05 -2.13349e-05 0.00942018)
(4.24195e-05 -2.6701e-05 0.00940598)
(3.95689e-05 -3.64946e-05 0.00937387)
(2.01901e-05 -3.6105e-05 0.00934932)
(2.21335e-05 -7.21238e-06 0.00943326)
(3.1059e-05 -1.4908e-05 0.00942427)
(3.06979e-05 -2.48321e-05 0.00940597)
(1.78474e-05 -2.92079e-05 0.00938638)
(3.01032e-05 -5.819e-06 0.00939167)
(3.06844e-05 5.85148e-07 0.00938188)
(2.95505e-05 -7.7905e-06 0.0093523)
(1.68872e-05 -3.62059e-06 0.00932319)
(2.79285e-05 -8.64973e-06 0.00940069)
(2.9022e-05 -7.36448e-06 0.00939097)
(2.56558e-05 -1.26584e-05 0.00937032)
(1.32187e-05 -1.11289e-05 0.00934983)
(2.50642e-05 -1.0725e-05 0.00941093)
(2.68223e-05 -1.28758e-05 0.00940292)
(2.44164e-05 -1.72543e-05 0.00938681)
(1.55404e-05 -1.7049e-05 0.00937005)
(1.9853e-05 -7.28694e-06 0.00941571)
(2.24351e-05 -1.02492e-05 0.00941096)
(2.1152e-05 -1.38264e-05 0.00940037)
(1.44772e-05 -1.44174e-05 0.00938721)
(2.07131e-05 -4.53918e-06 0.00939474)
(2.01643e-05 -1.33107e-06 0.00938676)
(1.89945e-05 -5.42745e-06 0.0093654)
(1.25579e-05 -3.24005e-06 0.00933714)
(1.97965e-05 -5.58446e-06 0.00940433)
(1.94413e-05 -4.83393e-06 0.00939744)
(1.70986e-05 -7.33582e-06 0.00938328)
(1.07792e-05 -6.56226e-06 0.00936447)
(1.84521e-05 -6.62575e-06 0.00941037)
(1.85001e-05 -7.39454e-06 0.00940478)
(1.66301e-05 -9.15634e-06 0.00939447)
(1.21367e-05 -8.80683e-06 0.0093802)
(1.64878e-05 -6.30854e-06 0.0094131)
(1.69059e-05 -7.29898e-06 0.00940916)
(1.55622e-05 -8.40881e-06 0.00940162)
(1.18481e-05 -8.07863e-06 0.00939009)
(1.46091e-05 -3.44553e-06 0.00939743)
(1.3879e-05 -1.89319e-06 0.00939025)
(1.27806e-05 -3.66887e-06 0.00937304)
(9.32471e-06 -2.4846e-06 0.0093455)
(1.4319e-05 -4.002e-06 0.00940696)
(1.36823e-05 -3.55338e-06 0.0094014)
(1.20434e-05 -4.54719e-06 0.00939029)
(8.61083e-06 -4.04543e-06 0.00937232)
(1.38027e-05 -4.68779e-06 0.00941153)
(1.33788e-05 -4.89671e-06 0.00940713)
(1.19982e-05 -5.49568e-06 0.00939926)
(9.45967e-06 -5.12176e-06 0.00938604)
(1.31178e-05 -5.12248e-06 0.00941357)
(1.28726e-05 -5.37242e-06 0.0094101)
(1.17583e-05 -5.59287e-06 0.00940396)
(9.50429e-06 -5.1364e-06 0.00939307)
(1.04358e-05 -2.60978e-06 0.00939931)
(9.80542e-06 -1.83605e-06 0.00939265)
(8.88388e-06 -2.48639e-06 0.00937757)
(6.86377e-06 -1.81076e-06 0.00935052)
(1.04452e-05 -3.02295e-06 0.0094087)
(9.86938e-06 -2.70851e-06 0.00940393)
(8.71346e-06 -2.99424e-06 0.00939432)
(6.71872e-06 -2.62447e-06 0.00937682)
(1.03088e-05 -3.54248e-06 0.00941273)
(9.85491e-06 -3.52751e-06 0.00940907)
(8.83981e-06 -3.63967e-06 0.00940237)
(7.25293e-06 -3.30646e-06 0.0093897)
(1.01064e-05 -4.01118e-06 0.00941447)
(9.76832e-06 -4.02449e-06 0.00941143)
(8.89892e-06 -3.95989e-06 0.00940606)
(7.42793e-06 -3.56802e-06 0.00939555)
(7.504e-06 -1.98145e-06 0.00940065)
(7.0161e-06 -1.56699e-06 0.00939443)
(6.29574e-06 -1.72194e-06 0.00938049)
(5.05443e-06 -1.32383e-06 0.0093538)
(7.62147e-06 -2.32424e-06 0.00940993)
(7.17655e-06 -2.08368e-06 0.0094057)
(6.35305e-06 -2.07297e-06 0.00939693)
(5.118e-06 -1.79389e-06 0.00937976)
(7.63599e-06 -2.73644e-06 0.00941374)
(7.27619e-06 -2.63585e-06 0.00941059)
(6.52799e-06 -2.56528e-06 0.00940455)
(5.47409e-06 -2.29011e-06 0.00939227)
(7.5911e-06 -3.05556e-06 0.00941532)
(7.34331e-06 -3.02177e-06 0.00941267)
(6.67437e-06 -2.89618e-06 0.00940779)
(5.66798e-06 -2.60071e-06 0.00939761)
(5.38424e-06 -1.49533e-06 0.0094016)
(5.02447e-06 -1.25219e-06 0.00939572)
(4.49053e-06 -1.21606e-06 0.00938243)
(3.6939e-06 -9.63656e-07 0.00935602)
(5.52344e-06 -1.77424e-06 0.0094108)
(5.19774e-06 -1.5848e-06 0.00940695)
(4.61544e-06 -1.47741e-06 0.00939869)
(3.81166e-06 -1.2662e-06 0.00938179)
(5.58724e-06 -2.0964e-06 0.00941449)
(5.32443e-06 -1.97692e-06 0.00941172)
(4.78149e-06 -1.85762e-06 0.00940611)
(4.05776e-06 -1.64231e-06 0.00939412)
(5.58272e-06 -2.28234e-06 0.00941598)
(5.4325e-06 -2.24935e-06 0.00941365)
(4.93221e-06 -2.13452e-06 0.00940913)
(4.22565e-06 -1.92369e-06 0.00939921)
(3.81899e-06 -1.10413e-06 0.00940225)
(3.56141e-06 -9.52602e-07 0.00939665)
(3.18065e-06 -8.62295e-07 0.00938375)
(2.65516e-06 -6.93051e-07 0.00935756)
(3.94468e-06 -1.31723e-06 0.00941139)
(3.70996e-06 -1.17596e-06 0.00940784)
(3.30665e-06 -1.05797e-06 0.0093999)
(2.76866e-06 -9.00634e-07 0.00938323)
(4.01695e-06 -1.55324e-06 0.00941501)
(3.82142e-06 -1.45299e-06 0.00941253)
(3.44147e-06 -1.34291e-06 0.00940721)
(2.9409e-06 -1.18262e-06 0.00939544)
(4.02656e-06 -1.67944e-06 0.00941644)
(3.91708e-06 -1.64508e-06 0.00941437)
(3.56379e-06 -1.55643e-06 0.00941011)
(3.06997e-06 -1.41079e-06 0.00940042)
(2.64117e-06 -7.82219e-07 0.00940269)
(2.46229e-06 -6.85056e-07 0.0093973)
(2.2012e-06 -5.95936e-07 0.00938465)
(1.85301e-06 -4.81051e-07 0.00935861)
(2.74087e-06 -9.31448e-07 0.00941178)
(2.57445e-06 -8.35434e-07 0.00940846)
(2.3037e-06 -7.38282e-07 0.00940074)
(1.94333e-06 -6.25863e-07 0.00938422)
(2.80557e-06 -1.08742e-06 0.00941535)
(2.65536e-06 -1.02138e-06 0.00941308)
(2.40256e-06 -9.40295e-07 0.00940797)
(2.06195e-06 -8.28791e-07 0.00939638)
(2.8314e-06 -1.20572e-06 0.00941671)
(2.71896e-06 -1.16364e-06 0.00941485)
(2.48666e-06 -1.09816e-06 0.0094108)
(2.15161e-06 -1.00104e-06 0.00940128)
(1.73993e-06 -5.06633e-07 0.00940298)
(1.62315e-06 -4.44751e-07 0.00939774)
(1.45455e-06 -3.76337e-07 0.00938524)
(1.23132e-06 -3.00336e-07 0.00935932)
(1.81104e-06 -6.00768e-07 0.00941203)
(1.69963e-06 -5.40759e-07 0.00940887)
(1.52685e-06 -4.7235e-07 0.00940129)
(1.29477e-06 -3.97641e-07 0.00938489)
(1.86116e-06 -6.90665e-07 0.00941554)
(1.75129e-06 -6.54772e-07 0.00941344)
(1.5928e-06 -6.03469e-07 0.00940848)
(1.37205e-06 -5.32561e-07 0.00939701)
(1.89944e-06 -8.04305e-07 0.00941684)
(1.7851e-06 -7.60704e-07 0.00941516)
(1.6425e-06 -7.14101e-07 0.00941125)
(1.42727e-06 -6.52756e-07 0.00940186)
(1.05455e-06 -2.52609e-07 0.00940314)
(9.88267e-07 -2.14678e-07 0.009398)
(8.91334e-07 -1.72336e-07 0.0093856)
(7.60455e-07 -1.25859e-07 0.00935975)
(1.09881e-06 -3.01021e-07 0.00941217)
(1.03437e-06 -2.66051e-07 0.00940911)
(9.34841e-07 -2.2523e-07 0.00940163)
(7.98968e-07 -1.82269e-07 0.00938531)
(1.1307e-06 -3.42702e-07 0.00941565)
(1.06381e-06 -3.25144e-07 0.00941366)
(9.72616e-07 -2.97262e-07 0.00940879)
(8.42139e-07 -2.59406e-07 0.0093974)
(1.16546e-06 -4.24732e-07 0.0094169)
(1.07886e-06 -3.93664e-07 0.00941533)
(9.96711e-07 -3.65238e-07 0.00941153)
(8.69639e-07 -3.32524e-07 0.00940221)
(5.6472e-07 -3.25014e-08 0.00940321)
(5.37299e-07 -1.06162e-08 0.00939813)
(4.89408e-07 1.16363e-08 0.00938578)
(4.22744e-07 3.62431e-08 0.00935999)
(5.86253e-07 -4.44544e-08 0.00941223)
(5.5968e-07 -2.63773e-08 0.00940923)
(5.10967e-07 -6.92532e-09 0.00940182)
(4.42388e-07 1.3494e-08 0.00938554)
(6.00735e-07 -5.43775e-08 0.0094157)
(5.74509e-07 -4.55467e-08 0.00941378)
(5.28352e-07 -3.3176e-08 0.00940897)
(4.60939e-07 -1.75271e-08 0.00939763)
(6.16318e-07 -8.2108e-08 0.00941693)
(5.8046e-07 -7.19776e-08 0.00941543)
(5.37111e-07 -6.22409e-08 0.00941169)
(4.70434e-07 -5.10184e-08 0.00940244)
(0.00112679 -0.00111765 0.0189996)
(-8.89367e-05 0.000678545 0.00926295)
(0.000618763 0.00102284 0.00867768)
(0.00169375 0.000215851 0.0133209)
(0.000502203 0.000106399 0.0106757)
(0.00181628 -0.000178031 0.0183386)
(0.000682923 0.0019738 0.0237618)
(0.000807723 -0.000620266 0.0139969)
(-0.00116328 0.000798652 0.0151734)
(7.18303e-05 -0.00015657 0.00654588)
(0.00293719 -0.0012427 0.0171694)
(0.00130444 -0.0022588 0.0190035)
(0.000492762 0.000223757 0.016113)
(-0.000658223 0.00104554 0.0162207)
(0.000813915 -0.00130526 0.0132439)
(0.000309117 -0.000345922 0.00474382)
(-0.00111059 0.00197988 0.0150619)
(0.00218537 -0.000517215 0.020458)
(0.000933666 -0.0011883 0.0174988)
(0.000351306 -0.00120175 0.0276421)
(-0.00112814 0.00168475 0.0137856)
(-0.000261418 6.20138e-05 0.020167)
(0.000711659 -0.000508707 0.0139812)
(0.00124865 -0.000836917 0.0137233)
(0.000319178 0.000641403 0.0227138)
(-0.000205678 0.000259691 0.0148232)
(-0.000788418 0.000106163 0.0216971)
(0.000923058 0.00125068 0.0159564)
(-0.00276865 -0.000490908 0.0226129)
(-0.000256009 -0.000301448 0.00774449)
(0.000717758 0.000946525 0.0139949)
(0.00148534 0.00196041 0.0185179)
(-0.000635158 0.000780817 0.0147866)
(0.00121384 -0.000213698 0.0222242)
(0.000217593 3.79654e-05 0.0183495)
(0.00048392 -0.000418257 0.0241813)
(-0.000454569 0.00213371 0.018403)
(0.000728039 9.36811e-05 0.0217692)
(0.000504436 6.42156e-05 0.0287508)
(0.000179692 -0.000879604 0.0261796)
(-0.000650711 0.000624666 0.0215106)
(-0.000444504 0.000451082 0.0193742)
(-5.20181e-05 0.00128295 0.0243465)
(-0.000154998 0.000484999 0.00947926)
(-5.27017e-05 0.000269299 0.00093673)
(0.00169672 0.000845036 0.0321315)
(0.000146705 0.000316991 0.00496269)
(-0.00178209 9.89387e-06 0.0375154)
(3.14977e-05 1.88448e-07 0.00590689)
(-0.000311311 -0.000777286 0.0274189)
(5.69144e-06 -0.0010242 0.0176276)
(-0.000399662 -0.00155065 0.0370102)
(9.18221e-05 -0.000102754 0.00850602)
(-0.0008006 -0.000896233 0.022112)
(-0.000179673 -0.00102144 0.0232719)
(-0.000101811 0.000484118 0.0125081)
(-4.67267e-05 -0.00125991 0.032274)
(-0.00017041 0.000225386 0.015559)
(0.000133115 0.00063768 0.0229433)
(-0.000695443 0.000656591 0.0168438)
(0.000698933 -0.00171396 0.0154642)
(8.30739e-05 2.7888e-05 0.00664789)
(0.00028102 -0.000681502 0.0326354)
(-0.000924585 -0.000769679 0.016877)
(-7.70156e-05 0.000501261 0.016506)
(-0.00148018 5.64515e-05 0.023986)
(-0.00112785 0.000103383 0.0273026)
(0.000569477 0.002929 0.0305916)
(0.000552142 -0.00103862 0.0220788)
(-0.00161533 0.000352542 0.0186014)
(-0.000290506 0.000384282 0.0158181)
(-0.000220173 0.000805554 0.0136877)
(0.000490214 -0.00163935 0.027478)
(-9.80281e-05 -7.11393e-05 0.0143509)
(-0.000707611 -0.00038307 0.0284188)
(0.000270346 -0.000241182 0.0187331)
(-0.000422277 0.000127023 0.01362)
(-0.00130592 -0.00197874 0.0336507)
(4.41743e-05 7.26391e-05 0.00637186)
(0.000950358 0.00107058 0.0425159)
(6.80501e-06 -1.01838e-05 0.000469967)
(-0.00233198 0.00239045 0.0194601)
(0.000166801 0.000283271 0.0083214)
(0.0012954 0.000629419 0.0155951)
(0.000799625 0.00169335 0.0199715)
(-0.00177189 0.00220819 0.0130568)
(-0.00174329 0.00186319 0.0155537)
(0.000792621 0.00285376 0.0171822)
(-0.000195112 0.000870963 0.00831211)
(-0.0011525 0.000676024 0.0155881)
(-0.00111045 0.00199506 0.0121905)
(-0.000392853 0.000788115 0.0125492)
(0.000485089 -0.000307569 0.0102038)
(-0.000567477 9.23465e-05 0.00612963)
(-0.00115055 -0.000569027 0.0138126)
(4.61404e-05 0.000146712 0.00951625)
(0.00026152 3.47204e-05 0.00586127)
(-0.0018772 -0.000703978 0.00911776)
(-0.000507074 -0.000165882 0.012013)
(-0.000452681 0.000294098 0.0183222)
(0.000983183 -0.000731659 0.0168533)
(0.000165216 1.39073e-05 0.0167145)
(-2.33903e-06 -0.000210834 0.00663674)
(-3.68939e-05 -0.000102578 0.00531564)
(0.000999059 0.000472698 0.0135324)
(6.00572e-05 0.000378692 0.0143013)
(-1.11881e-05 -0.000217508 0.0155176)
(0.000415003 -0.000403738 0.0199024)
(0.000511537 0.000260628 0.014666)
(-0.000677861 0.00177435 0.0130236)
(-0.000270676 0.00068833 0.0135054)
(5.36604e-05 6.31788e-05 0.0132193)
(8.29323e-05 0.000283481 0.0196498)
(0.000784017 -0.00028735 0.0202142)
(-0.000581834 -0.00031591 0.0160261)
(-0.000527615 -0.000114323 0.0217507)
(-0.00018154 0.000295956 0.0217743)
(0.000771182 -0.000494222 0.021175)
(1.36904e-06 -0.000452199 0.0137461)
(-0.000291887 -0.000435799 0.0155853)
(4.01036e-05 7.04349e-05 0.0180733)
(0.000272354 -9.12046e-05 0.0188008)
(-5.90253e-05 -0.000544284 0.0186713)
(-2.50292e-05 -0.000474062 0.0195344)
(-0.000224476 0.00016525 0.0177751)
(0.00026052 4.1338e-07 0.0180664)
(-7.59996e-05 3.21862e-05 0.0179381)
(-7.71204e-05 -0.000206699 0.0191944)
(0.0011733 0.000224315 0.003019)
(0.000380612 0.00028152 0.00416834)
(6.65605e-05 0.000152291 0.00381168)
(-0.000683594 6.72539e-05 0.0049716)
(0.000240422 0.00069944 0.00476075)
(0.000590533 0.000729439 0.00497258)
(0.000340597 -5.41151e-06 0.00376206)
(-0.000668266 0.000179692 0.00427588)
(0.000196316 0.000625808 0.00505355)
(0.000191297 0.000657018 0.00508107)
(0.000186239 -0.000188888 0.00462305)
(-0.000263131 7.02371e-05 0.00474715)
(8.42589e-05 2.83695e-05 0.00511554)
(0.000214692 0.000317526 0.00486819)
(2.44815e-05 0.000224257 0.00461297)
(-0.00022888 0.000314782 0.00473324)
(0.000355677 -0.000138405 0.0102315)
(0.000147167 8.30965e-07 0.0110314)
(0.000244373 2.80951e-05 0.0101222)
(-0.000172106 -6.82868e-05 0.0108157)
(0.000115429 -0.000117902 0.010885)
(0.000320812 0.000115326 0.011127)
(0.000371637 -7.30727e-05 0.0101731)
(-0.000125479 -2.15717e-05 0.0106049)
(0.000120563 8.50235e-05 0.0109264)
(0.000250512 0.00024366 0.0110242)
(0.000329379 -3.04397e-05 0.0105169)
(-1.39588e-05 3.44573e-05 0.0106715)
(0.000105511 3.17018e-05 0.0108816)
(0.000256177 0.000180943 0.0108386)
(0.000273421 7.48101e-05 0.0105202)
(5.10999e-05 5.65816e-05 0.0106293)
(0.000157348 -6.04072e-05 0.00852376)
(-8.43132e-06 3.2235e-05 0.00888292)
(7.12407e-05 2.31914e-05 0.0084182)
(-0.000138605 -3.16007e-05 0.0086306)
(9.15004e-05 -8.57005e-05 0.00893996)
(7.1225e-05 9.7038e-05 0.00905466)
(0.000101652 -7.80103e-06 0.00859743)
(-0.000139776 2.98944e-05 0.00869174)
(9.00025e-05 -3.0334e-05 0.0090811)
(8.70554e-05 0.000108651 0.00909788)
(0.000102863 -2.47472e-05 0.00878087)
(-8.48447e-05 4.6992e-05 0.00876318)
(8.77357e-05 -2.01285e-05 0.00910233)
(0.000105148 8.48633e-05 0.00905978)
(9.15462e-05 1.49014e-05 0.00884536)
(-4.18722e-05 7.33334e-05 0.00879524)
(8.42073e-05 -3.50683e-05 0.00899447)
(3.14485e-05 1.73282e-05 0.0092191)
(9.11337e-05 1.67057e-05 0.0089813)
(-3.29069e-05 -1.91326e-05 0.00912045)
(7.07453e-05 -5.91213e-05 0.00921622)
(6.12507e-05 4.16287e-05 0.00932118)
(0.000104806 -9.10828e-06 0.00910887)
(-2.43627e-05 1.02166e-06 0.00919331)
(6.99175e-05 -2.79612e-05 0.00933604)
(7.27028e-05 5.65137e-05 0.00937415)
(0.000101019 -8.53927e-06 0.00922379)
(-5.30875e-06 1.79007e-05 0.00925078)
(6.95349e-05 -1.16459e-05 0.00938827)
(8.04907e-05 4.52272e-05 0.0093852)
(9.32851e-05 -1.99715e-07 0.00928673)
(1.97388e-05 1.81488e-05 0.00928153)
(4.58237e-05 -1.45098e-05 0.00904278)
(2.08589e-05 1.25937e-05 0.00914264)
(4.53323e-05 9.97069e-06 0.00898757)
(-1.77562e-05 -6.05225e-06 0.00902058)
(4.50834e-05 -2.76386e-05 0.00921388)
(3.3527e-05 2.41771e-05 0.00926235)
(5.24865e-05 -2.19207e-06 0.00912512)
(-1.36321e-05 5.67432e-06 0.00912776)
(4.57375e-05 -1.81915e-05 0.00931593)
(4.10431e-05 2.73354e-05 0.00932966)
(5.25369e-05 -6.34263e-06 0.00922668)
(-2.34508e-06 1.01471e-05 0.00920353)
(4.60419e-05 -9.56159e-06 0.00936625)
(4.59057e-05 2.09596e-05 0.00935978)
(4.98255e-05 -3.58651e-06 0.00929076)
(1.14988e-05 1.04091e-05 0.00925421)
(2.79232e-05 -6.28404e-06 0.00908417)
(1.69252e-05 7.98959e-06 0.00912735)
(2.82102e-05 6.68345e-06 0.00903808)
(-4.11587e-06 -1.39419e-06 0.00904336)
(2.92446e-05 -1.35581e-05 0.00922876)
(2.23104e-05 1.24895e-05 0.00924793)
(3.19245e-05 -6.95594e-07 0.00916605)
(-1.15822e-06 2.67869e-06 0.00915128)
(3.01038e-05 -1.10467e-05 0.00931945)
(2.62602e-05 1.23628e-05 0.00932203)
(3.2052e-05 -4.07217e-06 0.00925845)
(4.4022e-06 3.95109e-06 0.00923023)
(3.05857e-05 -7.19274e-06 0.00936814)
(2.90035e-05 8.69881e-06 0.00936164)
(3.09356e-05 -3.47881e-06 0.00931805)
(1.15257e-05 3.515e-06 0.00928387)
(1.80769e-05 -2.62856e-06 0.00910469)
(1.26353e-05 4.92203e-06 0.00911809)
(1.67999e-05 4.37472e-06 0.00906026)
(4.87106e-07 8.99948e-07 0.00904608)
(1.94278e-05 -6.61733e-06 0.00923941)
(1.53364e-05 6.46902e-06 0.00924122)
(1.91365e-05 2.3929e-07 0.00918548)
(2.48082e-06 2.31486e-06 0.00915732)
(2.02277e-05 -6.3755e-06 0.00932471)
(1.75382e-05 5.42063e-06 0.00931953)
(1.96287e-05 -2.25887e-06 0.0092743)
(5.62501e-06 1.99075e-06 0.00923938)
(2.07457e-05 -4.92686e-06 0.00937176)
(1.91948e-05 3.19998e-06 0.00936378)
(1.94667e-05 -2.39872e-06 0.00933158)
(9.45471e-06 1.35619e-06 0.00929565)
(1.22485e-05 -1.01383e-06 0.00911606)
(9.40501e-06 3.06356e-06 0.00911486)
(1.04834e-05 2.98653e-06 0.00907379)
(2.14575e-06 1.55281e-06 0.00905099)
(1.32759e-05 -3.24626e-06 0.00924669)
(1.09295e-05 3.3322e-06 0.00923943)
(1.20141e-05 5.87097e-07 0.00919738)
(3.54286e-06 1.78241e-06 0.0091632)
(1.39318e-05 -3.64053e-06 0.00932924)
(1.22078e-05 2.23998e-06 0.00931979)
(1.25793e-05 -1.15276e-06 0.00928421)
(5.35945e-06 1.00659e-06 0.00924633)
(1.4424e-05 -3.28167e-06 0.00937498)
(1.32364e-05 8.26967e-07 0.00936605)
(1.27637e-05 -1.50946e-06 0.00933987)
(7.46412e-06 4.3826e-07 0.00930345)
(8.522e-06 -3.2464e-07 0.00912223)
(6.9167e-06 1.94974e-06 0.00911408)
(6.75381e-06 2.08706e-06 0.00908147)
(2.38359e-06 1.54592e-06 0.00905443)
(9.27084e-06 -1.61481e-06 0.00925112)
(7.86862e-06 1.74536e-06 0.00923943)
(7.78815e-06 6.64972e-07 0.00920432)
(3.36678e-06 1.34848e-06 0.00916717)
(9.77946e-06 -2.12132e-06 0.00933232)
(8.66535e-06 7.815e-07 0.00932077)
(8.31136e-06 -5.48145e-07 0.00929014)
(4.46471e-06 5.6056e-07 0.00925081)
(1.01897e-05 -2.22535e-06 0.00937724)
(9.34122e-06 -1.62763e-07 0.00936789)
(8.66147e-06 -9.25279e-07 0.00934487)
(5.69054e-06 9.49475e-08 0.00930828)
(6.00471e-06 -5.07259e-08 0.00912567)
(5.03511e-06 1.27651e-06 0.00911445)
(4.50583e-06 1.49287e-06 0.00908607)
(2.13495e-06 1.31565e-06 0.00905712)
(6.54583e-06 -8.33269e-07 0.00925382)
(5.67326e-06 9.27796e-07 0.00924018)
(5.21417e-06 6.14162e-07 0.00920858)
(2.83407e-06 9.94895e-07 0.00917014)
(6.92806e-06 -1.29879e-06 0.00933435)
(6.19862e-06 1.58483e-07 0.00932196)
(5.66121e-06 -2.43181e-07 0.00929387)
(3.52056e-06 3.42697e-07 0.00925397)
(7.26477e-06 -1.55746e-06 0.00937882)
(6.66349e-06 -4.75066e-07 0.00936945)
(6.02985e-06 -5.76785e-07 0.00934808)
(4.27458e-06 -2.10656e-08 0.00931153)
(4.2457e-06 4.3707e-08 0.00912762)
(3.62701e-06 8.43761e-07 0.00911518)
(3.06947e-06 1.06797e-06 0.00908888)
(1.72193e-06 1.03827e-06 0.00905914)
(4.63095e-06 -4.56953e-07 0.00925545)
(4.06761e-06 5.01422e-07 0.0092411)
(3.5661e-06 5.04363e-07 0.00921124)
(2.22088e-06 7.30482e-07 0.0091723)
(4.91605e-06 -8.39764e-07 0.00933567)
(4.42497e-06 -7.36655e-08 0.00932307)
(3.92146e-06 -1.04491e-07 0.00929627)
(2.66993e-06 2.23188e-07 0.00925621)
(5.17997e-06 -1.11518e-06 0.0093799)
(4.75483e-06 -5.12123e-07 0.00937068)
(4.24366e-06 -3.77229e-07 0.00935019)
(3.15587e-06 -5.42786e-08 0.00931376)
(2.98053e-06 6.40992e-08 0.00912876)
(2.5716e-06 5.63095e-07 0.00911592)
(2.10778e-06 7.57331e-07 0.00909065)
(1.30295e-06 7.76366e-07 0.00906064)
(3.25115e-06 -2.68999e-07 0.00925646)
(2.87782e-06 2.79064e-07 0.00924194)
(2.45368e-06 3.85971e-07 0.00921296)
(1.65539e-06 5.23997e-07 0.00917388)
(3.45879e-06 -5.65613e-07 0.00933654)
(3.12616e-06 -1.3616e-07 0.00932398)
(2.72216e-06 -4.65952e-08 0.00929785)
(1.95503e-06 1.49096e-07 0.00925781)
(3.65727e-06 -8.00632e-07 0.00938063)
(3.36062e-06 -4.42495e-07 0.00937161)
(2.97806e-06 -2.58626e-07 0.00935162)
(2.27895e-06 -5.39175e-08 0.00931533)
(2.04677e-06 5.77955e-08 0.00912944)
(1.7746e-06 3.73555e-07 0.00911654)
(1.43115e-06 5.25428e-07 0.00909179)
(9.3562e-07 5.55221e-07 0.00906172)
(2.23242e-06 -1.64858e-07 0.00925709)
(1.98413e-06 1.60332e-07 0.00924261)
(1.6679e-06 2.79511e-07 0.00921408)
(1.17801e-06 3.66998e-07 0.00917501)
(2.37817e-06 -3.81662e-07 0.0093371)
(2.15447e-06 -1.28013e-07 0.00932467)
(1.86115e-06 -2.07595e-08 0.0092989)
(1.37842e-06 1.01006e-07 0.00925893)
(2.52114e-06 -5.60558e-07 0.00938113)
(2.31775e-06 -3.37852e-07 0.00937229)
(2.04866e-06 -1.75665e-07 0.00935258)
(1.59471e-06 -4.13738e-08 0.00931642)
(1.34274e-06 4.50204e-08 0.00912985)
(1.16965e-06 2.43e-07 0.00911699)
(9.39107e-07 3.52385e-07 0.0090925)
(6.36503e-07 3.80378e-07 0.00906246)
(1.46411e-06 -9.53984e-08 0.00925748)
(1.30597e-06 9.98314e-08 0.00924309)
(1.09318e-06 1.9652e-07 0.0092148)
(7.94375e-07 2.53047e-07 0.00917577)
(1.56111e-06 -2.39637e-07 0.00933746)
(1.41722e-06 -8.6778e-08 0.00932516)
(1.22271e-06 7.35671e-10 0.00929958)
(9.23942e-07 7.66387e-08 0.00925969)
(1.6576e-06 -3.60625e-07 0.00938146)
(1.52542e-06 -2.21821e-07 0.00937275)
(1.34882e-06 -1.02848e-07 0.00935321)
(1.06316e-06 -1.55515e-08 0.00931715)
(8.18479e-07 3.62004e-08 0.00913008)
(7.23255e-07 1.56901e-07 0.00911728)
(5.89607e-07 2.32441e-07 0.00909293)
(4.17118e-07 2.59405e-07 0.00906292)
(8.88494e-07 -3.50638e-08 0.00925771)
(8.00645e-07 7.87138e-08 0.00924339)
(6.76932e-07 1.473e-07 0.00921522)
(5.0849e-07 1.84484e-07 0.00917624)
(9.46303e-07 -1.10986e-07 0.00933767)
(8.65919e-07 -2.27254e-08 0.00932545)
(7.52492e-07 3.82183e-08 0.00929999)
(5.8325e-07 8.26663e-08 0.00926016)
(1.00441e-06 -1.75065e-07 0.00938164)
(9.30241e-07 -9.48353e-08 0.00937303)
(8.2717e-07 -2.15204e-08 0.00935359)
(6.63506e-07 3.19064e-08 0.0093176)
(4.56139e-07 3.29194e-08 0.00913016)
(4.20426e-07 1.05932e-07 0.00911742)
(3.58103e-07 1.60347e-07 0.00909314)
(2.74995e-07 1.9158e-07 0.00906317)
(4.8392e-07 1.64638e-08 0.00925778)
(4.49844e-07 7.97319e-08 0.00924353)
(3.91797e-07 1.26108e-07 0.00921544)
(3.12442e-07 1.56571e-07 0.0091765)
(5.10169e-07 -1.14077e-10 0.00933775)
(4.77884e-07 4.65326e-08 0.00932559)
(4.24032e-07 8.41064e-08 0.0093002)
(3.4607e-07 1.13242e-07 0.00926042)
(5.3866e-07 -1.34405e-08 0.00938171)
(5.08541e-07 2.51563e-08 0.00937317)
(4.58433e-07 6.1284e-08 0.00935379)
(3.82295e-07 9.15786e-08 0.00931784)
(0.003544 0.000638697 0.0213552)
(0.00128278 -0.000970067 0.0144325)
(0.00168266 -0.000870865 0.0119373)
(0.00303557 0.000630798 0.0211586)
(-0.000458287 0.00095348 0.0155655)
(0.0007508 0.000776606 0.011199)
(0.000534041 2.74955e-05 0.00210288)
(0.00230808 -0.000743982 0.0115673)
(-0.000275093 0.000521833 0.0110375)
(0.00204149 0.000813118 0.0130554)
(0.00111067 0.00147623 0.0190785)
(-0.000214041 -0.00029079 0.0134426)
(-0.00133018 -0.000103712 0.0067451)
(0.00144366 -0.00101605 0.0162551)
(0.00161927 -0.000348268 0.0176091)
(0.000309254 0.00107485 0.0182906)
(8.97459e-05 -5.20142e-05 0.00366131)
(-0.000208412 0.00290706 0.0261815)
(-0.000432048 0.00128578 0.012168)
(-0.000184438 0.000764078 0.0125264)