/*--------------------------------*- C++ -*----------------------------------*\
| =========                 |                                                 |
| \\      /  F ield         | OpenFOAM: The Open Source CFD Toolbox           |
|  \\    /   O peration     | Version:  2506                                  |
|   \\  /    A nd           | Website:  www.openfoam.com                      |
|    \\/     M anipulation  |                                                 |
\*---------------------------------------------------------------------------*/
FoamFile
{
    version     2.0;
    format      ascii;
    arch        "LSB;label=32;scalar=64";
    class       volVectorField;
    location    "0.04";
    object      Us;
}
// * * * * * * * * * * * * * * * * * * * * * * * * * * * * * * * * * * * * * //

dimensions      [0 1 -1 0 0 0 0];

internalField   nonuniform List<vector> 
1152
(
(0.000219908 -7.66063e-05 3.71188e-05)
(-0.000100958 0.000106902 8.56612e-05)
(-0.000223411 -2.35859e-05 -0.000158802)
(-1.61812e-05 3.65832e-05 4.20958e-05)
(-9.28152e-05 0.000226039 0.000237713)
(2.57695e-05 0.000109425 0.000102607)
(-7.74407e-05 -8.32004e-06 0.000127628)
(-0.000263137 2.26503e-05 0.000102193)
(2.2609e-05 -9.41109e-06 0.000275269)
(-0.000141573 2.69345e-05 0.000125992)
(-0.000388077 0.000423526 0.000123675)
(-0.000455949 7.29813e-05 0.000177756)
(0.000220263 -3.64154e-05 0.000298333)
(-9.23224e-06 -0.00022947 0.000170617)
(-0.000105194 0.000172947 9.91903e-05)
(-1.49796e-05 -3.98202e-05 0.000161706)
(-0.000202968 0.000383961 0.000434566)
(-0.000133607 0.000333654 0.000346556)
(-9.92437e-05 0.000231743 0.000320092)
(-5.1018e-05 0.000257629 0.000336688)
(-8.82771e-05 0.000211828 0.000661002)
(0.000183685 0.000144083 0.000393719)
(-0.000116453 0.000198739 0.000402634)
(-0.000134318 0.00012058 0.00046023)
(-9.20609e-05 0.000134904 0.000778227)
(-7.12992e-05 -3.47976e-05 0.000664481)
(-0.000159916 0.000162933 0.000547891)
(-0.000185148 0.000285809 0.000575572)
(-2.01475e-05 -6.91392e-05 0.000650399)
(-1.83372e-05 -0.000106118 0.000554001)
(-9.98047e-05 0.000110045 0.000682287)
(-4.08296e-05 0.000330681 0.000568804)
(-5.58836e-05 0.000400404 0.000648217)
(-8.04043e-05 0.00039425 0.000636176)
(-6.57731e-05 0.000377618 0.000672282)
(-7.1311e-05 0.000314054 0.000588755)
(-0.000107084 0.000360111 0.00082023)
(-7.47237e-05 0.000245171 0.000757164)
(-0.000196795 0.000230522 0.000605858)
(-0.000170252 0.000174436 0.000505783)
(-4.70507e-05 0.000283212 0.00101374)
(-0.000305056 0.000340954 0.000993256)
(-0.000233087 0.00022599 0.000884235)
(-0.000252985 0.000164157 0.000556673)
(-0.000128476 -0.000107943 0.000962606)
(-0.000217735 1.13558e-05 0.000902761)
(-0.000575981 0.000103126 0.00126507)
(-0.000490005 0.000130835 0.000649978)
(-0.000131065 0.00026606 0.000778414)
(-0.000182843 0.000272746 0.000678255)
(-0.000110709 0.000284008 0.000600172)
(-0.000146854 0.00021458 0.000626864)
(-8.06388e-05 0.000466303 0.000772172)
(-0.000190946 0.000407003 0.000668187)
(-0.000180497 0.000226276 0.000548818)
(-0.000130059 0.000215216 0.000570088)
(-8.31097e-05 0.000343 0.000780965)
(-0.000404595 0.000467881 0.000710128)
(-0.000363944 9.13765e-05 0.000648937)
(-0.000292136 0.00013007 0.000557635)
(-2.68447e-05 0.000137891 0.000629862)
(-0.000901877 0.000241322 0.000902508)
(-0.000459523 0.000118937 0.000811882)
(-0.000460094 0.000180789 0.000718099)
(2.41797e-05 0.000322008 0.00066432)
(4.91562e-05 0.00033386 0.000614318)
(-1.96405e-05 0.000284881 0.000586744)
(-0.000116596 0.000134122 0.000655584)
(-2.84509e-05 0.000449051 0.000590804)
(-0.000117749 0.000404621 0.000599714)
(-0.00016943 0.000301506 0.000615617)
(-0.000174886 0.00021143 0.000603733)
(-4.52365e-05 0.000295496 0.00058097)
(-0.000290001 0.000409349 0.00056312)
(-0.000362212 0.000212113 0.000592517)
(-0.000259835 0.000234283 0.000543752)
(-0.000222169 0.000164146 0.000547938)
(-0.000379332 0.00023201 0.00060582)
(-0.000483537 7.48917e-05 0.000573072)
(-0.000335134 0.00018103 0.000587228)
(-3.23666e-05 -3.25736e-05 0.000652058)
(-4.81334e-05 0.000146493 0.000662882)
(-4.79709e-05 6.96772e-05 0.000739546)
(1.76122e-05 0.000124578 0.000757598)
(-4.09381e-05 8.55845e-05 0.000596662)
(-9.65748e-05 0.000167149 0.000625728)
(-5.4799e-05 9.29713e-05 0.000636254)
(2.62261e-05 0.000123631 0.000661634)
(-9.71874e-05 0.000149018 0.000547612)
(-0.000140232 0.000111077 0.000542067)
(-8.58028e-05 6.70057e-05 0.000633256)
(-3.8203e-05 0.000123157 0.000634974)
(-8.25555e-05 4.20698e-05 0.000499594)
(-0.00021623 0.000132839 0.000462598)
(-0.000273302 1.83563e-05 0.000553061)
(-0.000127402 8.21766e-05 0.000603724)
(0.000133552 0.000197527 0.00056308)
(-0.0001917 0.000616044 0.000760892)
(-0.000191133 -0.000151558 0.000654514)
(-3.45807e-05 2.56483e-05 0.0007738)
(-7.88802e-05 0.000143282 0.000511302)
(-4.7528e-05 0.000142832 0.000560612)
(-3.3964e-05 3.64431e-05 0.000645023)
(-2.79876e-05 0.000508358 0.00052397)
(-0.000986889 0.000730252 0.000467481)
(0.000125827 -0.000409461 0.000388689)
(-1.73893e-05 5.08738e-05 0.000603275)
(0.000171969 0.000396251 0.000485858)
(6.12396e-05 2.93262e-05 0.000413791)
(0.00216951 -0.00289894 -0.000446873)
(0.00035637 -0.000516298 0.000292843)
(-3.53956e-05 2.93103e-05 0.000629919)
(0 0 0)
(0 0 0)
(0 0 0)
(0 0 0)
(0 0 0)
(0 0 0)
(0 0 0)
(0 0 0)
(0 0 0)
(0 0 0)
(0 0 0)
(0 0 0)
(4.46503e-05 -3.20883e-05 0.000411348)
(0 0 0)
(0 0 0)
(0 0 0)
(0 0 0)
(0 0 0)
(0 0 0)
(0 0 0)
(0 0 0)
(0 0 0)
(0 0 0)
(0 0 0)
(0 0 0)
(0 0 0)
(0 0 0)
(0 0 0)
(0 0 0)
(0 0 0)
(0 0 0)
(0 0 0)
(0 0 0)
(0 0 0)
(0 0 0)
(0 0 0)
(0 0 0)
(0 0 0)
(0 0 0)
(0 0 0)
(0 0 0)
(0 0 0)
(0 0 0)
(0 0 0)
(0 0 0)
(0 0 0)
(0 0 0)
(0 0 0)
(0 0 0)
(0 0 0)
(0 0 0)
(0 0 0)
(0 0 0)
(0 0 0)
(0 0 0)
(0 0 0)
(0 0 0)
(0 0 0)
(0 0 0)
(0 0 0)
(0 0 0)
(0 0 0)
(0 0 0)
(0 0 0)
(0 0 0)
(0 0 0)
(0 0 0)
(0 0 0)
(0 0 0)
(0 0 0)
(0 0 0)
(0 0 0)
(0 0 0)
(0 0 0)
(0 0 0)
(0 0 0)
(0 0 0)
(0 0 0)
(0 0 0)
(0 0 0)
(0 0 0)
(0 0 0)
(0 0 0)
(0 0 0)
(0 0 0)
(0 0 0)
(0 0 0)
(0 0 0)
(0 0 0)
(0 0 0)
(0 0 0)
(0 0 0)
(0 0 0)
(0 0 0)
(0 0 0)
(0 0 0)
(0 0 0)
(0 0 0)
(0 0 0)
(0 0 0)
(0 0 0)
(0 0 0)
(0 0 0)
(0 0 0)
(0 0 0)
(0 0 0)
(0 0 0)
(0 0 0)
(0 0 0)
(0 0 0)
(0 0 0)
(0 0 0)
(0 0 0)
(0 0 0)
(0 0 0)
(0 0 0)
(0 0 0)
(0 0 0)
(0 0 0)
(0 0 0)
(0 0 0)
(0 0 0)
(0 0 0)
(0 0 0)
(0 0 0)
(0 0 0)
(0 0 0)
(0 0 0)
(0 0 0)
(0 0 0)
(0 0 0)
(0 0 0)
(0 0 0)
(0 0 0)
(0 0 0)
(0 0 0)
(0 0 0)
(0 0 0)
(0 0 0)
(0 0 0)
(0 0 0)
(0 0 0)
(0 0 0)
(0 0 0)
(0 0 0)
(0 0 0)
(0 0 0)
(0 0 0)
(0 0 0)
(0 0 0)
(0 0 0)
(0 0 0)
(0 0 0)
(0 0 0)
(0 0 0)
(0 0 0)
(0 0 0)
(0 0 0)
(0 0 0)
(0 0 0)
(0 0 0)
(0 0 0)
(0 0 0)
(0 0 0)
(0 0 0)
(0 0 0)
(0 0 0)
(0 0 0)
(0 0 0)
(0 0 0)
(0 0 0)
(0 0 0)
(0 0 0)
(0 0 0)
(0 0 0)
(0 0 0)
(0 0 0)
(0 0 0)
(0 0 0)
(0 0 0)
(0 0 0)
(0 0 0)
(0 0 0)
(0 0 0)
(0 0 0)
(0 0 0)
(0 0 0)
(0 0 0)
(0 0 0)
(0 0 0)
(0 0 0)
(0 0 0)
(0 0 0)
(0 0 0)
(0 0 0)
(0 0 0)
(0 0 0)
(0 0 0)
(0 0 0)
(0 0 0)
(0 0 0)
(0 0 0)
(0 0 0)
(0 0 0)
(0 0 0)
(0 0 0)
(0 0 0)
(0 0 0)
(0 0 0)
(0 0 0)
(0 0 0)
(0 0 0)
(0 0 0)
(0 0 0)
(0 0 0)
(0 0 0)
(0 0 0)
(0 0 0)
(0 0 0)
(0 0 0)
(0 0 0)
(0 0 0)
(0 0 0)
(0 0 0)
(0 0 0)
(0 0 0)
(0 0 0)
(0 0 0)
(0 0 0)
(0 0 0)
(0 0 0)
(0 0 0)
(0 0 0)
(0 0 0)
(0 0 0)
(0 0 0)
(0 0 0)
(0 0 0)
(0 0 0)
(0 0 0)
(0 0 0)
(0 0 0)
(0 0 0)
(0 0 0)
(0 0 0)
(0 0 0)
(0 0 0)
(0 0 0)
(0 0 0)
(0 0 0)
(0 0 0)
(0 0 0)
(0 0 0)
(0 0 0)
(0 0 0)
(0 0 0)
(0 0 0)
(0 0 0)
(0 0 0)
(0 0 0)
(0 0 0)
(0 0 0)
(0 0 0)
(0 0 0)
(0 0 0)
(0 0 0)
(0 0 0)
(0 0 0)
(0 0 0)
(0 0 0)
(0 0 0)
(0 0 0)
(7.04619e-05 7.86486e-05 4.04599e-05)
(8.40573e-05 6.72931e-05 1.26101e-06)
(3.70104e-05 1.97775e-05 3.75638e-05)
(-5.53432e-05 4.78885e-05 5.35585e-05)
(0.000200801 0.000168077 6.24714e-05)
(0.000187346 0.000163692 -2.96428e-05)
(6.0651e-05 0.00013924 4.24101e-05)
(-0.00010576 7.39259e-05 9.69086e-05)
(-7.89971e-05 0.00023232 0.000149233)
(-0.000215422 0.000179929 0.00014738)
(-6.35106e-05 6.72956e-05 2.69304e-05)
(-2.0018e-05 0.000103925 0.000123253)
(-2.29945e-05 0.000113568 -6.84172e-05)
(-8.26412e-05 0.000152379 0.000141503)
(1.00761e-06 -8.20607e-05 -4.04656e-05)
(-4.54595e-05 8.30618e-05 3.48747e-05)
(0.000117484 0.000365592 0.000105911)
(9.87403e-05 0.000160479 -3.1373e-05)
(5.66923e-05 8.01608e-05 0.000329627)
(5.13279e-05 6.78284e-05 0.000120451)
(1.90431e-05 0.000265474 0.000359775)
(8.51707e-05 0.000393698 -6.2738e-05)
(-0.000135221 0.00016867 0.000230077)
(-0.000117417 0.000114978 0.000273556)
(-1.84162e-05 0.00059454 0.000398157)
(9.1554e-05 0.000319256 0.000329417)
(1.44789e-05 0.0002791 0.000332989)
(-1.43694e-05 0.000222686 0.000252065)
(-0.000238465 0.000347917 0.000182268)
(-9.86806e-05 0.000490355 0.000488103)
(4.23157e-05 0.000353028 0.00033725)
(-5.66247e-05 0.000297233 0.000259183)
(7.10232e-05 0.000151484 0.000140577)
(-0.000123183 3.8335e-05 6.31327e-05)
(7.31596e-05 -3.38954e-05 0.000396632)
(6.92639e-06 6.1979e-05 0.000106803)
(-1.56552e-05 0.000266125 0.000428677)
(2.61037e-05 0.000186246 0.000254065)
(7.58649e-05 0.000190895 0.000243073)
(-0.00011832 0.000188455 0.000348907)
(2.32853e-05 0.000262229 0.000507842)
(0.000124955 0.000310437 0.000483554)
(9.27249e-05 0.000336263 0.000603348)
(-0.000137943 0.000496669 0.00053651)
(-4.56455e-05 0.000298455 0.00050531)
(2.21086e-05 0.000325581 0.000628618)
(0.000132466 0.000382471 0.000622261)
(-0.000120731 0.000375251 0.000729046)
(3.94826e-05 -1.16815e-05 0.000262709)
(-0.000167393 -0.000112113 0.000393341)
(-0.000148782 -7.85677e-06 0.000369435)
(-3.87861e-05 0.000133888 0.000362386)
(8.65724e-05 4.98032e-05 0.000431353)
(8.5242e-05 -4.12541e-05 0.000434455)
(-0.00019483 -0.000156062 0.000481739)
(-0.000143448 0.000295164 0.000351563)
(-2.18691e-06 0.000170486 0.000529237)
(0.000168373 0.000205962 0.000466323)
(1.37785e-05 0.000106157 0.000720901)
(-0.000294058 0.000151909 0.000634965)
(1.88354e-05 0.000113888 0.00059886)
(0.000163252 0.000168975 0.000548918)
(0.000239794 0.000185777 0.000695109)
(-0.00016959 0.000218319 0.000723602)
(-0.000150899 -0.000115069 0.000366587)
(-8.77775e-05 5.48115e-05 0.000330335)
(-0.000161903 -3.024e-05 0.000285204)
(-1.47827e-05 -5.20805e-06 0.000515134)
(-1.06268e-05 0.000101122 0.000453372)
(-8.03989e-05 0.000134985 0.000419327)
(4.1833e-05 9.49377e-05 0.000388912)
(-0.000117697 1.7475e-05 0.000547888)
(-4.67266e-06 0.000154903 0.000606588)
(2.59698e-05 0.000153449 0.000662673)
(0.00012264 8.53421e-05 0.000712937)
(-1.87701e-05 5.20115e-05 0.000634854)
(2.98129e-05 0.000194683 0.000752618)
(6.22464e-05 0.000116745 0.000611162)
(0.000139258 7.25526e-05 0.000740747)
(-0.000145856 0.000178978 0.000666766)
(6.62151e-06 -1.42142e-05 0.000306638)
(-6.74257e-06 3.85064e-06 0.000186219)
(-2.50588e-05 -0.000102787 0.000235514)
(-2.09785e-06 -1.65608e-07 0.000305809)
(9.62861e-06 2.08767e-05 0.000458519)
(-4.2182e-05 -2.72163e-06 0.000524391)
(-7.93051e-05 3.81159e-05 0.000399986)
(-3.98953e-05 -2.29059e-05 0.000489537)
(-1.76067e-05 3.77721e-05 0.000692115)
(-1.7863e-05 0.000155106 0.000746376)
(-5.91063e-05 4.572e-06 0.000750474)
(-1.63863e-05 -1.89717e-06 0.000621102)
(-0.00011958 -2.67966e-05 0.000668237)
(-0.000153887 0.0002143 0.000735307)
(-7.05474e-05 8.74976e-05 0.000818515)
(-2.45136e-05 7.12502e-05 0.000769516)
(0.000286918 0.000199161 3.34687e-05)
(-0.00178112 -0.000674592 -0.00170166)
(-0.000417193 -0.000246825 -7.36622e-05)
(-1.70202e-05 -0.000201242 0.000255768)
(0.00130519 -0.000555701 0.000388994)
(1.3312e-05 -0.00018233 0.000447912)
(-7.17347e-05 -0.000216977 0.000487026)
(6.43479e-06 -0.000127176 0.000474079)
(0.000985114 0.000387377 0.000424302)
(0.000274605 0.000277516 0.000690136)
(6.08157e-05 6.96689e-05 0.000654114)
(9.56843e-05 6.78392e-06 0.000576343)
(0.000482443 0.000837386 0.000538351)
(-0.000770912 0.00210549 0.000736444)
(-0.000226647 0.000468554 0.000714113)
(4.77071e-05 -2.22805e-05 0.000727001)
(0 0 0)
(0 0 0)
(0 0 0)
(0 0 0)
(0 0 0)
(0 0 0)
(0 0 0)
(0 0 0)
(0 0 0)
(0 0 0)
(0 0 0)
(0 0 0)
(0 0 0)
(0 0 0)
(0 0 0)
(0 0 0)
(0 0 0)
(0 0 0)
(0 0 0)
(0 0 0)
(0 0 0)
(0 0 0)
(0 0 0)
(0 0 0)
(0 0 0)
(0 0 0)
(0 0 0)
(0 0 0)
(0 0 0)
(0 0 0)
(0 0 0)
(0 0 0)
(0 0 0)
(0 0 0)
(0 0 0)
(0 0 0)
(0 0 0)
(0 0 0)
(0 0 0)
(0 0 0)
(0 0 0)
(0 0 0)
(0 0 0)
(0 0 0)
(0 0 0)
(0 0 0)
(0 0 0)
(0 0 0)
(0 0 0)
(0 0 0)
(0 0 0)
(0 0 0)
(0 0 0)
(0 0 0)
(0 0 0)
(0 0 0)
(0 0 0)
(0 0 0)
(0 0 0)
(0 0 0)
(0 0 0)
(0 0 0)
(0 0 0)
(0 0 0)
(0 0 0)
(0 0 0)
(0 0 0)
(0 0 0)
(0 0 0)
(0 0 0)
(0 0 0)
(0 0 0)
(0 0 0)
(0 0 0)
(0 0 0)
(0 0 0)
(0 0 0)
(0 0 0)
(0 0 0)
(0 0 0)
(0 0 0)
(0 0 0)
(0 0 0)
(0 0 0)
(0 0 0)
(0 0 0)
(0 0 0)
(0 0 0)
(0 0 0)
(0 0 0)
(0 0 0)
(0 0 0)
(0 0 0)
(0 0 0)
(0 0 0)
(0 0 0)
(0 0 0)
(0 0 0)
(0 0 0)
(0 0 0)
(0 0 0)
(0 0 0)
(0 0 0)
(0 0 0)
(0 0 0)
(0 0 0)
(0 0 0)
(0 0 0)
(0 0 0)
(0 0 0)
(0 0 0)
(0 0 0)
(0 0 0)
(0 0 0)
(0 0 0)
(0 0 0)
(0 0 0)
(0 0 0)
(0 0 0)
(0 0 0)
(0 0 0)
(0 0 0)
(0 0 0)
(0 0 0)
(0 0 0)
(0 0 0)
(0 0 0)
(0 0 0)
(0 0 0)
(0 0 0)
(0 0 0)
(0 0 0)
(0 0 0)
(0 0 0)
(0 0 0)
(0 0 0)
(0 0 0)
(0 0 0)
(0 0 0)
(0 0 0)
(0 0 0)
(0 0 0)
(0 0 0)
(0 0 0)
(0 0 0)
(0 0 0)
(0 0 0)
(0 0 0)
(0 0 0)
(0 0 0)
(0 0 0)
(0 0 0)
(0 0 0)
(0 0 0)
(0 0 0)
(0 0 0)
(0 0 0)
(0 0 0)
(0 0 0)
(0 0 0)
(0 0 0)
(0 0 0)
(0 0 0)
(0 0 0)
(0 0 0)
(0 0 0)
(0 0 0)
(0 0 0)
(0 0 0)
(0 0 0)
(0 0 0)
(0 0 0)
(0 0 0)
(0 0 0)
(0 0 0)
(0 0 0)
(0 0 0)
(0 0 0)
(0 0 0)
(0 0 0)
(0 0 0)
(0 0 0)
(0 0 0)
(0 0 0)
(0 0 0)
(0 0 0)
(0 0 0)
(0 0 0)
(0 0 0)
(0 0 0)
(0 0 0)
(0 0 0)
(0 0 0)
(0 0 0)
(0 0 0)
(0 0 0)
(0 0 0)
(0 0 0)
(0 0 0)
(0 0 0)
(0 0 0)
(0 0 0)
(0 0 0)
(0 0 0)
(0 0 0)
(0 0 0)
(0 0 0)
(0 0 0)
(0 0 0)
(0 0 0)
(0 0 0)
(0 0 0)
(0 0 0)
(0 0 0)
(0 0 0)
(0 0 0)
(0 0 0)
(0 0 0)
(0 0 0)
(0 0 0)
(0 0 0)
(0 0 0)
(0 0 0)
(0 0 0)
(0 0 0)
(0 0 0)
(0 0 0)
(0 0 0)
(0 0 0)
(0 0 0)
(0 0 0)
(0 0 0)
(0 0 0)
(0 0 0)
(0 0 0)
(0 0 0)
(0 0 0)
(0 0 0)
(0 0 0)
(0 0 0)
(0 0 0)
(0 0 0)
(0 0 0)
(0 0 0)
(0 0 0)
(0 0 0)
(0 0 0)
(0 0 0)
(0 0 0)
(0 0 0)
(0 0 0)
(0 0 0)
(0 0 0)
(0 0 0)
(0 0 0)
(0 0 0)
(0 0 0)
(0 0 0)
(0 0 0)
(0 0 0)
(0 0 0)
(0 0 0)
(0 0 0)
(0 0 0)
(0 0 0)
(0 0 0)
(0 0 0)
(0 0 0)
(0 0 0)
(0 0 0)
(0 0 0)
(0 0 0)
(5.86015e-05 0.000133166 0.000191238)
(5.30515e-05 0.000101778 0.000126335)
(-8.8422e-06 3.90415e-05 7.9566e-05)
(-6.03168e-05 4.46068e-05 4.04047e-05)
(0.000172126 0.000119795 0.000339199)
(0.000102879 9.79663e-05 0.000303481)
(7.24651e-05 6.48215e-05 0.000120049)
(0.000280162 -6.92437e-05 7.66906e-05)
(3.52809e-05 0.000107778 0.000244236)
(2.69441e-05 3.45885e-05 0.000231389)
(0.00018073 0.000257147 0.000139121)
(6.55455e-05 6.78986e-06 0.000117572)
(-5.26242e-05 -9.26263e-05 0.00012323)
(4.79397e-05 -4.19837e-05 0.000167315)
(0.000312737 0.000330572 0.000246002)
(0.000136185 0.000433455 6.54494e-05)
(-0.000154861 -8.59893e-05 0.000407336)
(-3.61477e-05 1.93851e-05 0.000383882)
(7.88772e-05 5.74781e-05 0.000271701)
(2.58497e-05 3.03e-05 0.000203068)
(-0.000222116 0.0007618 -0.00030719)
(2.10938e-05 0.000409857 0.00031839)
(0.000176595 -0.000133415 0.000344966)
(4.57164e-05 -0.000142903 0.000351784)
(-0.00010345 8.57011e-05 0.000444587)
(0.000178256 6.04188e-06 0.000599822)
(8.6923e-05 -5.62851e-05 0.000380497)
(-9.2341e-06 -0.00012678 0.000261396)
(-8.20908e-05 -2.15769e-05 0.000464522)
(-1.01421e-05 -1.56003e-05 0.000426162)
(0.000101069 -8.89236e-05 0.000533554)
(0.000122961 -0.000109111 0.00049517)
(-5.95943e-05 0.000165632 0.000612359)
(-2.51985e-06 0.000669159 0.000463231)
(0.000117178 0.000264715 0.000383778)
(-5.99805e-05 -0.000117198 0.0004636)
(-5.70427e-05 0.000178073 0.000438894)
(-0.000141253 0.00032304 0.00029822)
(6.89151e-05 -2.47314e-05 0.000350122)
(7.69027e-05 9.1233e-05 0.000468781)
(-0.00015732 0.000359815 0.000824693)
(7.3509e-06 0.00015016 0.000578983)
(6.65053e-05 -0.000117089 0.000440856)
(0.000140961 -4.51911e-05 0.000254018)
(-0.00015214 0.000134322 0.000655127)
(1.93097e-05 0.000129693 0.00053221)
(5.44275e-05 -0.000176583 0.00050723)
(0.00012938 -0.000380621 0.000541671)
(-0.000100215 3.77107e-05 0.000614598)
(0.000163368 0.000466225 0.00061399)
(-0.000180049 0.000131346 0.000457468)
(-0.000273383 -0.000139585 0.000689979)
(-0.000113497 0.000265276 0.000557078)
(-0.00012916 0.000177887 0.000432548)
(-5.13611e-06 0.000116599 0.000281158)
(-4.48954e-05 -5.97716e-05 0.000427193)
(-0.000219944 0.000183783 0.000571915)
(-0.000131187 0.00016702 0.000443614)
(3.20917e-05 0.000173371 0.000191116)
(2.96877e-05 3.60354e-05 0.00025535)
(-0.000251152 0.000201049 0.000600675)
(-4.44492e-05 0.000119516 0.000568488)
(6.83075e-05 0.000168001 0.000342291)
(-2.95308e-05 -3.62471e-05 0.000591057)
(-7.36223e-05 -3.38922e-05 0.000574431)
(-0.000116718 3.42748e-05 0.000419794)
(-0.000152987 3.8566e-07 0.000369191)
(-7.98963e-05 -7.77182e-05 0.000366189)
(-0.00013694 0.000103025 0.000564022)
(-0.000116516 8.35245e-05 0.000422108)
(-7.0745e-05 6.2919e-05 0.000385903)
(-6.22207e-05 3.97863e-05 0.000345417)
(-0.000196903 0.000255071 0.000484896)
(-0.000142136 0.000160974 0.00051544)
(-7.07252e-05 0.000102464 0.000414055)
(-0.000115706 4.74115e-05 0.000116764)
(-0.000226056 0.000173621 0.000620855)
(-0.000241851 0.00016514 0.000616451)
(-0.000148137 0.000129664 0.000491066)
(-0.00017811 3.84331e-05 0.000414452)
(1.69663e-05 8.71139e-05 0.000599605)
(1.10749e-05 6.49121e-05 0.00050797)
(-4.00134e-05 -8.62874e-06 0.000303497)
(-4.97037e-05 4.62209e-05 0.000223895)
(2.99352e-05 9.07599e-05 0.000620954)
(0.00013956 -1.07722e-05 0.000557467)
(0.000146344 -1.87212e-05 0.000602671)
(7.55802e-05 0.00014525 0.000222704)
(8.90315e-06 6.26766e-05 0.000631062)
(5.01396e-06 1.33719e-05 0.000658097)
(9.73414e-05 0.00021195 0.000571698)
(0.000138266 0.000234094 0.00017982)
(-0.000106433 9.7246e-05 0.00067083)
(-0.000101591 0.000160875 0.000659037)
(-0.000125222 0.000135638 0.000440248)
(-2.72107e-06 -3.51332e-05 0.000299875)
(-7.38203e-05 -2.50842e-05 0.000514617)
(4.50549e-05 6.87234e-06 0.00046332)
(-7.56925e-05 -1.71005e-05 0.000220147)
(-2.42891e-05 -2.59213e-05 0.000143964)
(0.00024665 0.000189594 0.000679402)
(0.000253043 -0.000144302 0.000684477)
(0.000143462 -4.51376e-05 0.000678441)
(1.52609e-05 -4.04071e-05 0.000156569)
(0.00169936 0.00122354 0.000126384)
(0.000177932 -9.47201e-05 0.000816123)
(-0.000399484 0.00116866 0.0016563)
(0.000749309 0.000107424 0.000247937)
(0.00111565 0.000850792 0.000171588)
(-3.63869e-05 3.61704e-05 0.000688808)
(-8.63258e-05 -0.000295981 0.000586318)
(0.00269339 0.00356664 -0.00321157)
(0 0 0)
(0 0 0)
(0 0 0)
(0 0 0)
(0 0 0)
(0 0 0)
(0 0 0)
(0 0 0)
(0 0 0)
(0 0 0)
(0 0 0)
(0 0 0)
(0 0 0)
(0 0 0)
(0 0 0)
(0 0 0)
(0 0 0)
(0 0 0)
(0 0 0)
(0 0 0)
(0 0 0)
(0 0 0)
(0 0 0)
(0 0 0)
(0 0 0)
(0 0 0)
(0 0 0)
(0 0 0)
(0 0 0)
(0 0 0)
(0 0 0)
(0 0 0)
(0 0 0)
(0 0 0)
(0 0 0)
(0 0 0)
(0 0 0)
(0 0 0)
(0 0 0)
(0 0 0)
(0 0 0)
(0 0 0)
(0 0 0)
(0 0 0)
(0 0 0)
(0 0 0)
(0 0 0)
(0 0 0)
(0 0 0)
(0 0 0)
(0 0 0)
(0 0 0)
(0 0 0)
(0 0 0)
(0 0 0)
(0 0 0)
(0 0 0)
(0 0 0)
(0 0 0)
(0 0 0)
(0 0 0)
(0 0 0)
(0 0 0)
(0 0 0)
(0 0 0)
(0 0 0)
(0 0 0)
(0 0 0)
(0 0 0)
(0 0 0)
(0 0 0)
(0 0 0)
(0 0 0)
(0 0 0)
(0 0 0)
(0 0 0)
(0 0 0)
(0 0 0)
(0 0 0)
(0 0 0)
(0 0 0)
(0 0 0)
(0 0 0)
(0 0 0)
(0 0 0)
(0 0 0)
(0 0 0)
(0 0 0)
(0 0 0)
(0 0 0)
(0 0 0)
(0 0 0)
(0 0 0)
(0 0 0)
(0 0 0)
(0 0 0)
(0 0 0)
(0 0 0)
(0 0 0)
(0 0 0)
(0 0 0)
(0 0 0)
(0 0 0)
(0 0 0)
(0 0 0)
(0 0 0)
(0 0 0)
(0 0 0)
(0 0 0)
(0 0 0)
(0 0 0)
(0 0 0)
(0 0 0)
(0 0 0)
(0 0 0)
(0 0 0)
(0 0 0)
(0 0 0)
(0 0 0)
(0 0 0)
(0 0 0)
(0 0 0)
(0 0 0)
(0 0 0)
(0 0 0)
(0 0 0)
(0 0 0)
(0 0 0)
(0 0 0)
(0 0 0)
(0 0 0)
(0 0 0)
(0 0 0)
(0 0 0)
(0 0 0)
(0 0 0)
(0 0 0)
(0 0 0)
(0 0 0)
(0 0 0)
(0 0 0)
(0 0 0)
(0 0 0)
(0 0 0)
(0 0 0)
(0 0 0)
(0 0 0)
(0 0 0)
(0 0 0)
(0 0 0)
(0 0 0)
(0 0 0)
(0 0 0)
(0 0 0)
(0 0 0)
(0 0 0)
(0 0 0)
(0 0 0)
(0 0 0)
(0 0 0)
(0 0 0)
(0 0 0)
(0 0 0)
(0 0 0)
(0 0 0)
(0 0 0)
(0 0 0)
(0 0 0)
(0 0 0)
(0 0 0)
(0 0 0)
(0 0 0)
(0 0 0)
(0 0 0)
(0 0 0)
(0 0 0)
(0 0 0)
(0 0 0)
(0 0 0)
(0 0 0)
(0 0 0)
(0 0 0)
(0 0 0)
(0 0 0)
(0 0 0)
(0 0 0)
(0 0 0)
(0 0 0)
(0 0 0)
(0 0 0)
(0 0 0)
(0 0 0)
(0 0 0)
(0 0 0)
(0 0 0)
(0 0 0)
(0 0 0)
(0 0 0)
(0 0 0)
(0 0 0)
(0 0 0)
(0 0 0)
(0 0 0)
(0 0 0)
(0 0 0)
(0 0 0)
(0 0 0)
(0 0 0)
(0 0 0)
(0 0 0)
(0 0 0)
(0 0 0)
(0 0 0)
(0 0 0)
(0 0 0)
(0 0 0)
(0 0 0)
(0 0 0)
(0 0 0)
(0 0 0)
(0 0 0)
(0 0 0)
(0 0 0)
(0 0 0)
(0 0 0)
(0 0 0)
(0 0 0)
(0 0 0)
(0 0 0)
(0 0 0)
(0 0 0)
(0 0 0)
(0 0 0)
(0 0 0)
(0 0 0)
(0 0 0)
(0 0 0)
(0 0 0)
(0 0 0)
(0 0 0)
(0 0 0)
(0 0 0)
(0 0 0)
(0 0 0)
(0 0 0)
(0 0 0)
(0 0 0)
(0 0 0)
(0 0 0)
(0 0 0)
(0 0 0)
(0 0 0)
(0 0 0)
(0 0 0)
(0 0 0)
(0 0 0)
(0 0 0)
(0 0 0)
(0 0 0)
(0 0 0)
(0 0 0)
(0 0 0)
(0 0 0)
(0 0 0)
(0 0 0)
(0 0 0)
(0 0 0)
(0 0 0)
(0 0 0)
(0 0 0)
(0 0 0)
(0 0 0)
)
;

boundaryField
{
    inlet
    {
        type            zeroGradient;
    }
    outlet
    {
        type            zeroGradient;
    }
    wall
    {
        type            zeroGradient;
    }
    procBoundary1to0
    {
        type            processor;
        value           nonuniform List<vector> 
192
(
(-1.13404e-05 0.000219684 0.000114107)
(-8.6715e-05 0.000296474 0.000155738)
(-2.32496e-05 0.000251191 0.000189628)
(0.000122598 0.000122013 9.53547e-05)
(8.50029e-05 0.000389398 0.000326141)
(-0.000284594 0.000245798 0.000463593)
(-9.36838e-05 0.000255491 0.00062313)
(-1.90215e-06 0.000102282 0.000442207)
(8.17275e-05 0.000357329 0.000559867)
(3.88308e-05 0.000365256 0.000712712)
(-9.30484e-05 0.000268137 0.000925757)
(-0.000153173 -4.19593e-05 0.000878505)
(-3.53899e-05 0.000343503 0.000783065)
(3.95749e-05 0.000370151 0.000735424)
(1.39865e-05 0.000217627 0.000737971)
(6.68252e-05 0.000118645 0.000729829)
(3.41262e-05 0.000242283 0.000723588)
(0.000114465 0.000292258 0.000737053)
(0.000121281 0.000239075 0.000597307)
(0.000302354 0.000125274 0.000541806)
(2.67036e-05 0.000131311 0.000747646)
(1.4035e-05 0.000127633 0.000649363)
(2.58953e-05 0.000105868 0.000625336)
(0.000101057 -1.00275e-05 0.00062683)
(2.38686e-05 2.60829e-05 0.000742227)
(-6.32597e-05 -0.000124583 0.000641851)
(7.27327e-06 -7.91847e-06 0.000741537)
(0.000193858 0.000152543 0.000560973)
(0 0 0)
(0 0 0)
(0 0 0)
(0 0 0)
(0 0 0)
(0 0 0)
(0 0 0)
(0 0 0)
(0 0 0)
(0 0 0)
(0 0 0)
(0 0 0)
(0 0 0)
(0 0 0)
(0 0 0)
(0 0 0)
(0 0 0)
(0 0 0)
(0 0 0)
(0 0 0)
(0 0 0)
(0 0 0)
(0 0 0)
(0 0 0)
(0 0 0)
(0 0 0)
(0 0 0)
(0 0 0)
(0 0 0)
(0 0 0)
(0 0 0)
(0 0 0)
(0 0 0)
(0 0 0)
(0 0 0)
(0 0 0)
(0 0 0)
(0 0 0)
(0 0 0)
(0 0 0)
(0 0 0)
(0 0 0)
(0 0 0)
(0 0 0)
(0 0 0)
(0 0 0)
(0 0 0)
(0 0 0)
(0 0 0)
(0 0 0)
(0 0 0)
(0 0 0)
(0 0 0)
(0 0 0)
(0 0 0)
(0 0 0)
(0 0 0)
(0 0 0)
(0 0 0)
(0 0 0)
(0 0 0)
(0 0 0)
(0 0 0)
(0 0 0)
(0 0 0)
(0 0 0)
(0 0 0)
(0 0 0)
(4.33232e-05 -1.34034e-05 1.31975e-05)
(8.15945e-05 0.000148679 0.000121544)
(7.73066e-05 0.00015092 0.000136443)
(-4.45298e-05 0.000196599 0.000121006)
(6.04901e-05 -4.18473e-05 0.0001939)
(-8.20012e-05 0.000153685 0.000304036)
(-3.66863e-06 0.000117828 0.000248288)
(-2.53354e-05 0.000238407 0.000283006)
(0.000107038 -7.28587e-05 0.000322342)
(4.88807e-06 2.6452e-05 0.000365636)
(1.28573e-05 0.000153798 0.000414108)
(-4.23947e-05 0.000288875 0.000440732)
(7.69731e-05 8.91424e-06 0.000434726)
(8.13266e-05 9.13638e-06 0.000378485)
(3.17238e-05 6.80714e-05 0.000560963)
(-2.31285e-05 0.000157463 0.000658764)
(-1.61419e-05 -9.40644e-05 0.000358253)
(-6.88412e-05 3.71083e-05 0.000470307)
(-5.31624e-05 0.000126348 0.000598781)
(8.77706e-05 0.000144263 0.000782869)
(3.33157e-05 -1.95516e-05 0.000447955)
(-5.65154e-05 5.45166e-05 0.000452427)
(-6.05641e-05 2.98937e-05 0.000658181)
(-6.92483e-06 7.99749e-05 0.000814425)
(0.00401557 -8.79413e-05 -0.0021718)
(-2.36173e-05 -0.000165396 0.000328196)
(6.93071e-05 -0.000295585 0.000727146)
(4.77247e-05 4.89389e-06 0.00082435)
(0 0 0)
(0 0 0)
(0 0 0)
(0 0 0)
(0 0 0)
(0 0 0)
(0 0 0)
(0 0 0)
(0 0 0)
(0 0 0)
(0 0 0)
(0 0 0)
(0 0 0)
(0 0 0)
(0 0 0)
(0 0 0)
(0 0 0)
(0 0 0)
(0 0 0)
(0 0 0)
(0 0 0)
(0 0 0)
(0 0 0)
(0 0 0)
(0 0 0)
(0 0 0)
(0 0 0)
(0 0 0)
(0 0 0)
(0 0 0)
(0 0 0)
(0 0 0)
(0 0 0)
(0 0 0)
(0 0 0)
(0 0 0)
(0 0 0)
(0 0 0)
(0 0 0)
(0 0 0)
(0 0 0)
(0 0 0)
(0 0 0)
(0 0 0)
(0 0 0)
(0 0 0)
(0 0 0)
(0 0 0)
(0 0 0)
(0 0 0)
(0 0 0)
(0 0 0)
(0 0 0)
(0 0 0)
(0 0 0)
(0 0 0)
(0 0 0)
(0 0 0)
(0 0 0)
(0 0 0)
(0 0 0)
(0 0 0)
(0 0 0)
(0 0 0)
(0 0 0)
(0 0 0)
(0 0 0)
(0 0 0)
)
;
    }
    procBoundary1to3
    {
        type            processor;
        value           nonuniform List<vector> 
192
(
(0.000149339 -1.37063e-06 8.01343e-05)
(-8.35327e-05 -0.000176303 0.000110826)
(-0.000188915 -0.00024786 7.11974e-05)
(-9.89178e-05 -0.000136757 0.000177693)
(0.000411846 -0.000610062 0.000685451)
(-0.00016763 -2.05784e-05 0.000692733)
(-0.00017746 -7.03458e-06 0.000642266)
(-0.000194759 -2.06053e-06 0.000435293)
(-0.000248403 -0.000289259 0.000986223)
(-0.000310938 -0.000210735 0.000874489)
(-0.00024835 7.64697e-05 0.000739193)
(-0.000166705 0.000220784 0.000718335)
(2.05424e-06 -8.89846e-05 0.000746339)
(-0.000278359 -0.000102768 0.000633251)
(-0.000438316 -0.000277797 0.00069954)
(-0.000309602 0.000142627 0.000604358)
(6.54421e-06 -0.000179814 0.000538187)
(-0.000289998 -0.000175248 0.000486423)
(-0.000400778 -0.00012374 0.000591136)
(-0.00023179 8.10879e-05 0.00063835)
(-1.32059e-06 -6.02612e-05 0.000554303)
(-9.29364e-05 5.30748e-06 0.000553831)
(-0.000167025 1.61281e-05 0.000524253)
(-0.00019498 4.69404e-05 0.000706754)
(0.000129503 8.16966e-05 0.000461505)
(0.000451941 -0.000165676 0.000552205)
(0.000884124 -0.00077696 0.000185758)
(-0.000137606 3.59177e-05 0.000683556)
(0 0 0)
(0 0 0)
(0 0 0)
(0 0 0)
(0 0 0)
(0 0 0)
(0 0 0)
(0 0 0)
(0 0 0)
(0 0 0)
(0 0 0)
(0 0 0)
(0 0 0)
(0 0 0)
(0 0 0)
(0 0 0)
(0 0 0)
(0 0 0)
(0 0 0)
(0 0 0)
(0 0 0)
(0 0 0)
(0 0 0)
(0 0 0)
(0 0 0)
(0 0 0)
(0 0 0)
(0 0 0)
(0 0 0)
(0 0 0)
(0 0 0)
(0 0 0)
(0 0 0)
(0 0 0)
(0 0 0)
(0 0 0)
(0 0 0)
(0 0 0)
(0 0 0)
(0 0 0)
(0 0 0)
(0 0 0)
(0 0 0)
(0 0 0)
(0 0 0)
(0 0 0)
(0 0 0)
(0 0 0)
(0 0 0)
(0 0 0)
(0 0 0)
(0 0 0)
(0 0 0)
(0 0 0)
(0 0 0)
(0 0 0)
(0 0 0)
(0 0 0)
(0 0 0)
(0 0 0)
(0 0 0)
(0 0 0)
(0 0 0)
(0 0 0)
(0 0 0)
(0 0 0)
(0 0 0)
(0 0 0)
(-1.50765e-05 -9.98252e-05 0.000113106)
(7.40242e-05 -9.42454e-05 0.000112742)
(-3.84079e-05 -7.69844e-05 0.000280894)
(-8.62876e-05 -0.000118083 6.31066e-05)
(-9.29396e-05 -3.41759e-05 0.000465235)
(-7.36054e-05 -5.46652e-05 0.000440287)
(2.64243e-06 -7.82366e-05 0.000361452)
(2.5019e-05 -0.000258124 0.000186245)
(-0.000110259 -8.73058e-05 0.000691347)
(2.62887e-05 -4.84336e-05 0.000660974)
(-0.000106142 -2.21664e-05 0.000412449)
(2.84978e-07 -0.000369916 0.000316149)
(-0.000153512 9.42436e-05 0.000592965)
(-4.95244e-05 0.000174522 0.000564122)
(-0.000116343 -5.07685e-06 0.00046478)
(-9.11541e-05 -3.23153e-05 0.000430863)
(-0.000157293 0.000164357 0.000629647)
(-0.000139568 0.000148251 0.000611286)
(-0.000254324 0.000131239 0.000706786)
(-0.000138613 4.5288e-05 0.000395459)
(-0.000177709 0.000120986 0.000768866)
(-0.000247257 3.33658e-05 0.000860482)
(-0.00010671 4.15563e-06 0.000808091)
(-0.000113977 0.000197739 0.000613841)
(-0.00142817 0.00157839 3.17659e-05)
(-0.000117539 -8.76568e-05 0.000967782)
(-8.16508e-05 -3.81057e-05 0.000846928)
(-6.27425e-05 8.63002e-05 0.000470313)
(0 0 0)
(0 0 0)
(0 0 0)
(0 0 0)
(0 0 0)
(0 0 0)
(0 0 0)
(0 0 0)
(0 0 0)
(0 0 0)
(0 0 0)
(0 0 0)
(0 0 0)
(0 0 0)
(0 0 0)
(0 0 0)
(0 0 0)
(0 0 0)
(0 0 0)
(0 0 0)
(0 0 0)
(0 0 0)
(0 0 0)
(0 0 0)
(0 0 0)
(0 0 0)
(0 0 0)
(0 0 0)
(0 0 0)
(0 0 0)
(0 0 0)
(0 0 0)
(0 0 0)
(0 0 0)
(0 0 0)
(0 0 0)
(0 0 0)
(0 0 0)
(0 0 0)
(0 0 0)
(0 0 0)
(0 0 0)
(0 0 0)
(0 0 0)
(0 0 0)
(0 0 0)
(0 0 0)
(0 0 0)
(0 0 0)
(0 0 0)
(0 0 0)
(0 0 0)
(0 0 0)
(0 0 0)
(0 0 0)
(0 0 0)
(0 0 0)
(0 0 0)
(0 0 0)
(0 0 0)
(0 0 0)
(0 0 0)
(0 0 0)
(0 0 0)
(0 0 0)
(0 0 0)
(0 0 0)
(0 0 0)
)
;
    }
}


// ************************************************************************* //
