/*--------------------------------*- C++ -*----------------------------------*\
| =========                 |                                                 |
| \\      /  F ield         | OpenFOAM: The Open Source CFD Toolbox           |
|  \\    /   O peration     | Version:  2506                                  |
|   \\  /    A nd           | Website:  www.openfoam.com                      |
|    \\/     M anipulation  |                                                 |
\*---------------------------------------------------------------------------*/
FoamFile
{
    version     2.0;
    format      ascii;
    arch        "LSB;label=32;scalar=64";
    class       surfaceScalarField;
    location    "0.01";
    object      phi;
}
// * * * * * * * * * * * * * * * * * * * * * * * * * * * * * * * * * * * * * //

dimensions      [0 3 -1 0 0 0 0];

oriented        oriented;

internalField   nonuniform List<scalar> 
13248
(
-7.64035e-10
-1.46772e-09
1.15353e-08
1.63789e-09
4.15797e-10
-1.66766e-09
-1.01844e-09
1.43372e-08
-1.06311e-09
-7.87015e-10
-4.98107e-10
8.907e-09
2.015e-09
-3.55805e-10
-1.01111e-09
1.19903e-08
-1.41762e-10
2.28706e-09
-7.76894e-11
7.26917e-09
1.38411e-09
-1.68221e-09
-2.0974e-09
1.81538e-08
-8.59038e-10
3.11666e-10
-4.79905e-10
9.06851e-09
7.3682e-10
-8.43753e-10
9.872e-09
1.66635e-09
9.76134e-10
-1.4262e-10
-8.73679e-10
1.15517e-08
-7.09043e-10
-1.79756e-09
-1.20208e-09
1.30837e-08
-1.50799e-09
-2.40901e-09
1.28579e-08
5.70237e-10
-3.32272e-10
8.54466e-09
5.94101e-11
-1.99818e-09
1.35991e-08
-5.5922e-11
-1.19576e-09
1.05375e-08
2.08942e-11
-5.12764e-10
1.13036e-08
8.3908e-10
8.68731e-09
9.31209e-10
-1.31025e-10
-3.29009e-10
1.10909e-08
-1.71465e-10
-1.40069e-09
1.09243e-09
1.03027e-08
3.25171e-10
1.08327e-09
6.06153e-09
-5.89682e-10
2.70664e-09
9.23326e-09
-9.26133e-11
2.25191e-10
8.57565e-09
7.10455e-10
-9.715e-10
1.03228e-08
1.55337e-09
3.66787e-10
9.67278e-09
-7.06486e-10
1.46803e-08
-2.89397e-10
1.47707e-09
-8.80198e-10
9.55002e-09
8.10395e-10
-2.88695e-09
-3.84075e-09
2.0593e-08
1.15239e-09
-4.54156e-10
8.82302e-09
-3.06892e-09
-1.05424e-09
1.92651e-08
-9.96343e-10
7.96668e-10
8.59575e-09
1.38813e-09
2.40759e-09
5.55818e-09
1.0744e-10
2.10356e-09
1.08056e-08
1.50438e-09
7.37501e-09
1.82512e-09
-4.84634e-10
-3.98656e-10
1.02288e-08
1.07878e-09
-4.34329e-11
-1.1189e-10
7.2175e-09
5.55255e-10
1.42975e-10
1.00673e-08
-2.8978e-10
-1.51224e-09
1.26277e-08
4.69781e-10
-6.08619e-11
1.13061e-08
2.30563e-09
-4.8811e-10
1.23783e-08
3.48343e-10
-4.3214e-10
1.57578e-08
9.24845e-10
1.20851e-08
1.48861e-10
-4.00064e-10
2.84251e-09
7.52615e-09
1.02669e-09
2.2465e-10
1.05061e-09
9.63401e-09
-8.15529e-10
1.14079e-09
1.13699e-08
1.46473e-09
2.16076e-10
7.37935e-09
-8.21462e-11
8.52577e-10
1.19486e-08
1.10455e-09
6.79299e-10
8.93092e-09
1.18737e-09
1.55568e-09
9.24063e-09
9.14511e-10
1.17426e-08
7.44105e-10
-2.06696e-09
-8.16612e-10
1.49283e-08
2.18169e-09
5.4889e-12
3.19798e-10
1.00508e-08
-1.1861e-09
1.97927e-10
1.34493e-08
1.86982e-09
1.16994e-09
7.27548e-09
3.01396e-10
7.0197e-10
1.31365e-08
1.91381e-09
2.17377e-09
8.20818e-09
5.42267e-10
7.73414e-10
1.35741e-08
1.11017e-09
1.03825e-08
1.34746e-09
-5.14937e-10
7.58036e-09
1.39524e-09
2.03225e-09
1.5985e-10
8.50987e-09
2.53806e-09
-2.41773e-10
1.06907e-08
1.23492e-09
8.00697e-10
8.81784e-09
2.66796e-09
1.86626e-09
9.86666e-09
8.82172e-10
-2.6753e-10
1.6315e-08
-6.87627e-10
9.88075e-10
1.01656e-08
8.17325e-10
1.35087e-08
-1.04396e-10
1.16208e-10
-7.43189e-10
-7.73153e-10
1.15303e-08
1.5571e-09
-3.57807e-11
-1.43781e-09
-2.48623e-09
1.67621e-08
7.55978e-10
-9.8184e-10
-9.39048e-10
9.03384e-09
3.56237e-10
2.48284e-10
-7.7531e-11
9.24563e-09
1.59203e-09
-4.17502e-10
-1.31148e-09
9.42522e-09
-1.78796e-10
9.97196e-10
9.50775e-10
1.47219e-08
1.06636e-09
4.4906e-10
-3.637e-10
8.97007e-09
1.01027e-09
-5.86467e-10
9.67665e-09
9.13458e-10
3.17409e-10
-1.62726e-09
-2.77794e-10
1.12915e-08
1.39205e-09
-2.2016e-10
1.38683e-09
7.80353e-09
-5.00182e-10
1.91666e-10
1.20072e-08
-1.08823e-09
1.01301e-09
8.04217e-09
2.40079e-09
3.75452e-10
8.42315e-09
-1.40841e-10
9.71183e-12
1.40202e-08
2.46632e-10
5.37366e-10
1.0015e-08
-2.71149e-10
7.63874e-09
9.79881e-10
3.04832e-10
-9.27887e-11
9.86748e-09
7.336e-10
-1.05559e-09
-4.54679e-09
1.75967e-08
4.17558e-10
-9.4656e-10
5.72661e-09
-1.2689e-09
-2.03944e-09
1.39722e-08
8.5816e-10
7.05986e-10
6.11804e-09
4.40876e-10
1.62469e-11
1.07335e-08
-4.50043e-10
3.5531e-10
1.07457e-08
1.74165e-09
1.0307e-08
1.91038e-09
-3.54046e-09
-1.56642e-09
1.33284e-08
1.23569e-09
1.12997e-09
3.45357e-09
7.92222e-09
2.05691e-10
1.7555e-09
7.04523e-09
1.06793e-09
3.32055e-10
1.60312e-08
1.64306e-10
-5.20012e-10
1.07255e-08
8.10122e-10
-8.25707e-10
5.75433e-09
1.22215e-09
-1.40368e-09
1.21526e-08
8.28348e-11
1.02105e-08
4.55182e-11
1.65305e-09
7.48267e-10
5.0765e-09
1.18453e-09
-1.16661e-09
-1.07106e-09
1.45618e-08
-1.49095e-09
-9.38282e-10
1.30854e-08
2.87204e-10
2.44596e-10
1.09372e-08
-3.04459e-10
9.35566e-10
1.0442e-08
7.6752e-10
1.42532e-09
9.05527e-09
1.67331e-09
1.18888e-09
1.22595e-08
-1.31204e-10
1.41806e-08
-2.08154e-10
-2.61378e-10
-2.0933e-10
7.87332e-09
8.71804e-10
-3.5124e-10
6.45422e-10
8.00737e-09
-7.10881e-11
1.67845e-10
9.98356e-09
7.30118e-10
7.1568e-10
6.10707e-09
7.07896e-11
-1.02756e-09
1.4571e-08
6.79681e-10
6.64348e-10
9.083e-09
5.50869e-10
5.0227e-10
1.00561e-08
2.05492e-10
1.0597e-08
1.3598e-09
7.79559e-10
1.67655e-09
1.1001e-08
1.26186e-09
-1.05316e-09
1.03548e-09
1.14934e-08
6.15451e-10
1.79766e-09
1.01509e-08
-1.32173e-09
2.37079e-10
9.69125e-09
2.02434e-09
2.92634e-09
5.83649e-09
1.52381e-10
1.62763e-09
9.11686e-09
2.8359e-10
1.24724e-09
1.26979e-08
3.64247e-10
9.33518e-09
1.17219e-09
-5.36294e-10
1.0241e-08
-3.81511e-10
-6.63183e-11
-6.78636e-10
1.00767e-08
-3.88973e-10
-4.25394e-10
1.19209e-08
3.14188e-10
8.43058e-10
7.41211e-09
3.74356e-10
1.301e-09
1.22425e-08
9.25797e-11
-1.09796e-10
1.88924e-08
4.60947e-10
-1.54804e-10
9.46213e-09
1.99571e-09
8.19579e-09
2.96336e-09
2.55903e-09
-1.0717e-09
-1.30513e-09
1.61777e-08
-2.15868e-09
-1.1195e-10
1.30638e-09
-3.97598e-10
1.32727e-08
1.50889e-09
7.82001e-11
-1.28986e-09
1.22939e-08
-7.42002e-10
-1.98407e-09
-1.23473e-09
1.25681e-08
-2.5466e-11
-1.28245e-09
-4.16344e-10
9.00008e-09
1.39862e-10
6.40037e-10
2.36861e-13
1.14975e-08
1.30165e-09
5.22515e-10
-9.29936e-11
8.37615e-09
8.04432e-10
6.14183e-10
1.0837e-08
-4.94321e-10
-7.57707e-10
-1.15148e-10
1.23497e-10
8.68922e-09
1.28885e-09
1.77191e-10
-1.39585e-09
8.50944e-09
1.03256e-10
-6.82766e-10
1.14741e-08
-5.14839e-10
-1.62049e-09
9.04602e-09
-7.90607e-10
-1.07785e-10
8.39036e-09
9.19885e-10
9.64836e-10
1.13451e-08
1.13962e-09
-8.27191e-10
1.05295e-08
-1.21779e-09
1.13084e-08
-6.9809e-10
-1.59268e-09
-3.65317e-10
1.17222e-08
2.26813e-10
5.22839e-10
-4.54689e-11
1.41308e-08
-1.05461e-10
-9.22124e-10
6.59427e-09
6.02028e-10
-2.70062e-09
1.43448e-08
-4.46656e-11
-2.86307e-10
6.94326e-09
-7.22262e-10
8.15147e-10
1.15608e-08
8.74798e-10
-1.71775e-10
8.49326e-09
-6.79184e-10
1.02057e-08
4.37555e-10
-6.60871e-10
2.06078e-09
1.11867e-08
3.7651e-10
-5.26136e-10
1.01624e-09
6.72578e-09
2.56316e-10
8.82303e-10
4.45836e-09
2.58924e-09
5.61312e-10
1.04362e-08
1.08362e-09
-6.7269e-10
1.26176e-08
-1.05789e-09
-1.2875e-09
9.99848e-09
3.15037e-10
-2.49331e-10
1.08572e-08
6.66099e-10
8.40655e-09
7.7365e-10
-2.3332e-09
-4.51165e-10
1.05066e-08
-5.84918e-10
-9.38107e-10
-1.37453e-10
1.43204e-08
-3.8861e-10
-2.29209e-10
1.36474e-08
3.92179e-10
3.183e-10
1.03995e-08
-3.62471e-10
1.51893e-09
9.0049e-09
6.66289e-10
8.06545e-10
5.93246e-09
1.6084e-09
-2.32855e-10
1.13009e-08
-3.6258e-10
1.68377e-08
-2.01e-11
-1.21355e-09
-1.12187e-09
1.07124e-08
-9.54869e-10
-7.07767e-10
-8.03043e-10
8.16718e-09
1.11085e-10
-5.11811e-11
8.98667e-09
9.54404e-10
8.50102e-10
4.73196e-09
-1.06266e-09
-2.2621e-10
1.83332e-08
-4.2004e-10
7.5569e-10
8.49124e-09
9.59279e-10
4.31749e-10
8.01212e-09
1.11387e-09
9.04958e-09
1.03025e-09
-1.39351e-09
3.78392e-10
1.10637e-08
-1.6948e-10
-3.57527e-10
1.38681e-10
9.51572e-09
1.04929e-09
3.67069e-10
8.32581e-09
-4.26061e-10
-2.30385e-10
1.22471e-08
2.19197e-10
5.47e-10
4.41802e-09
-8.33656e-10
-6.30413e-10
1.15558e-08
1.51113e-09
1.65343e-09
9.13147e-09
1.54392e-09
8.38567e-09
2.03058e-09
-1.76297e-09
1.36042e-08
3.45721e-10
-1.56755e-09
-3.82339e-10
1.09972e-08
-2.16255e-09
6.15845e-10
9.08109e-09
2.20868e-09
1.93133e-10
6.18369e-09
1.42074e-09
-1.06593e-09
1.31142e-08
9.34274e-10
1.49785e-09
1.38812e-08
1.81701e-09
1.10217e-09
1.05699e-08
9.41368e-10
1.02064e-08
2.4373e-10
3.9174e-10
-1.50507e-09
8.93006e-11
1.72063e-08
-3.08866e-10
6.96079e-10
1.10156e-09
4.8391e-10
9.78573e-09
3.96425e-10
6.56577e-10
9.67081e-10
1.21456e-08
-3.73824e-10
-1.3746e-09
9.35184e-10
1.42931e-08
-6.29019e-10
-3.62322e-10
-2.75485e-10
7.32837e-09
9.34916e-10
7.82215e-10
-6.34336e-10
9.18355e-09
1.8038e-09
2.44492e-11
-1.17825e-10
9.71222e-09
-4.60476e-10
6.92812e-10
9.42422e-09
1.26641e-10
6.17783e-10
-6.83756e-10
-1.68346e-09
1.20091e-08
-8.6338e-10
9.71113e-10
-1.77781e-09
9.11628e-09
5.57051e-10
-1.77002e-09
1.46252e-08
-2.17029e-09
-3.4919e-09
1.62004e-08
-6.78207e-10
1.17423e-10
6.50537e-09
1.42025e-09
6.17931e-10
7.99435e-09
9.35404e-10
3.41997e-10
1.05545e-08
-4.00997e-10
1.39365e-08
-5.98861e-10
-1.51192e-09
-7.51443e-10
1.31706e-08
-8.68583e-10
7.15445e-10
1.31452e-09
8.81112e-09
-8.70156e-10
1.00732e-10
6.30912e-09
1.29451e-09
-3.2701e-10
9.01526e-09
-2.05185e-10
-9.80233e-10
9.5406e-09
8.88604e-10
1.38192e-09
9.70301e-09
-1.41939e-11
-5.61672e-10
1.02997e-08
5.9197e-10
1.00158e-08
-8.17328e-10
7.35958e-10
2.28972e-09
8.14001e-09
-7.30446e-10
-1.26783e-10
-1.38565e-10
9.04161e-09
-5.28989e-10
1.0183e-09
3.94299e-09
6.92923e-10
1.78799e-09
7.09924e-09
2.28396e-09
2.17852e-09
7.86786e-09
-8.21102e-10
-7.53556e-10
1.5239e-08
1.27624e-09
-4.9977e-10
8.69798e-09
-2.82992e-09
1.48271e-08
-1.72239e-09
-1.48839e-09
1.0325e-09
1.31336e-08
1.18569e-10
1.37487e-09
4.0929e-10
1.09093e-08
-4.64916e-10
2.90552e-11
1.64764e-08
7.39657e-10
9.60981e-10
1.0022e-08
-6.97483e-10
-1.842e-09
1.44625e-08
-8.90332e-11
-1.85419e-10
4.75586e-09
-1.05331e-09
2.76096e-10
1.14893e-08
1.01951e-09
1.0366e-08
1.56898e-09
-1.23542e-09
1.64406e-09
1.19529e-08
-6.16588e-10
4.38997e-10
6.26744e-11
6.83937e-09
5.13103e-10
7.28425e-10
8.21319e-09
-1.94857e-09
-3.91464e-10
8.54607e-09
2.20174e-10
1.32003e-09
1.30024e-08
3.97652e-10
4.96209e-10
7.63213e-09
-1.24171e-10
1.21971e-10
8.68807e-09
5.8245e-10
9.39257e-09
-3.01031e-11
-1.89094e-09
-1.47008e-09
1.86053e-08
-2.5365e-09
8.31381e-10
-1.15268e-10
6.97134e-09
-6.55177e-10
-7.24282e-10
1.12651e-08
-1.72771e-10
1.67844e-10
1.12054e-08
-6.67469e-10
-3.09294e-11
6.26368e-09
-1.70595e-11
7.72046e-10
1.06296e-08
3.36797e-10
1.89711e-09
7.00247e-09
2.92923e-10
9.31632e-09
-3.04335e-10
-1.40476e-09
1.45924e-08
-2.91735e-11
-1.02437e-09
5.60204e-12
8.08892e-09
1.38269e-09
1.28982e-10
7.48227e-09
7.51155e-10
-2.3826e-10
7.32406e-09
-6.05285e-10
-6.72882e-11
1.23322e-08
5.80096e-10
1.81206e-09
1.22584e-08
5.15549e-10
-1.20988e-09
1.58832e-08
-3.94288e-10
9.63158e-09
-1.19544e-09
8.53307e-10
-4.8008e-10
1.03782e-09
1.37166e-08
1.8871e-09
1.04487e-09
-2.19583e-10
3.61038e-10
8.59853e-09
5.65651e-10
3.03447e-11
5.3317e-10
1.06299e-08
7.32554e-10
2.47855e-09
2.39152e-10
1.17268e-08
-1.21074e-10
-1.10432e-09
-1.24406e-09
1.0841e-08
1.31435e-09
-1.75224e-10
-7.24279e-10
8.3456e-09
6.33131e-10
4.9124e-10
-7.72053e-10
8.97916e-09
8.38643e-10
-2.72466e-10
8.74329e-09
-3.03721e-10
1.74836e-09
-7.6719e-10
-6.19242e-10
1.54466e-08
-1.01322e-09
-7.95746e-11
2.02871e-10
8.58681e-09
-2.18257e-10
4.78166e-10
1.48189e-08
5.88167e-10
9.70745e-10
1.46624e-08
-4.29773e-10
-2.03745e-10
6.483e-09
1.08411e-10
9.03747e-10
5.82814e-09
8.22341e-10
4.04358e-10
8.66418e-09
-3.28777e-10
1.2e-08
2.81516e-09
1.08704e-10
-6.5103e-11
1.1636e-08
8.71755e-10
2.17936e-10
4.24932e-10
8.47981e-09
9.40661e-11
6.05152e-10
6.306e-09
-3.16197e-10
1.50779e-09
8.88848e-09
3.80691e-10
-4.52305e-10
9.09227e-09
-8.09882e-10
-5.44249e-10
1.23416e-08
2.41633e-10
-5.53311e-11
9.70789e-09
1.35645e-09
7.92913e-09
6.43118e-10
7.81367e-10
6.40594e-11
6.42319e-09
8.0628e-10
7.81188e-10
-1.37842e-09
1.08451e-08
4.94623e-10
-3.12444e-09
7.95914e-09
-2.01793e-09
-2.28852e-09
1.34081e-08
4.04615e-10
1.27452e-09
3.71852e-09
-4.75258e-10
2.74608e-09
1.28286e-08
1.54473e-09
1.65204e-09
4.97064e-09
-2.32722e-10
1.79378e-08
2.31546e-11
-4.10006e-10
9.82764e-10
1.24124e-08
2.12468e-10
-4.76679e-11
8.72859e-10
8.29565e-09
1.26335e-09
8.57999e-10
1.11829e-08
7.05549e-10
1.42261e-10
8.14902e-09
2.41848e-09
5.5933e-10
1.34647e-08
-1.14846e-09
-4.25716e-10
1.14946e-08
-6.24309e-10
1.80155e-09
1.08156e-08
2.06553e-09
6.36045e-09
1.08302e-09
-4.57176e-10
3.46476e-09
1.01425e-08
-2.14441e-10
-2.64042e-10
7.26602e-10
6.79249e-09
4.25073e-10
1.0674e-09
7.31467e-09
7.4954e-10
5.13095e-10
7.85078e-09
5.40909e-10
1.18598e-09
1.25844e-08
9.24195e-10
-6.57041e-12
6.8297e-09
8.8914e-10
-1.96915e-10
1.07216e-08
-5.17622e-10
1.32452e-08
-3.80335e-10
-2.22099e-09
-2.05023e-09
2.97574e-08
-3.41616e-09
-6.5513e-10
1.36826e-10
5.99525e-09
-1.15643e-10
2.01618e-11
1.17728e-08
9.95983e-10
7.67279e-10
9.83957e-09
-5.40542e-10
1.0375e-09
7.94868e-09
4.88396e-10
1.07761e-10
9.4863e-09
4.17482e-10
-9.24163e-10
7.80063e-09
-1.44814e-09
1.15655e-08
-9.01125e-10
-2.06041e-10
1.21858e-08
1.37221e-09
-8.09749e-10
-4.79607e-10
8.57671e-09
-7.73981e-11
6.18379e-10
6.47662e-09
-7.2182e-11
1.99091e-09
7.28277e-09
-5.63963e-10
-1.66998e-09
1.79045e-08
-8.73854e-10
-1.70777e-10
1.04406e-08
4.26337e-10
-6.52835e-10
1.33483e-08
2.09278e-09
6.84487e-09
8.40335e-10
-1.5461e-10
-2.92595e-10
-1.95098e-09
1.85458e-08
-1.02376e-09
-1.56188e-09
-1.17412e-09
-4.96954e-10
9.88852e-09
8.85013e-11
-6.26487e-10
-3.42316e-09
1.28526e-08
6.52855e-10
-1.3205e-11
-1.51211e-09
1.30406e-08
-4.14992e-10
-1.63859e-10
-2.73202e-09
1.38026e-08
-7.90191e-11
-1.04796e-10
-1.51954e-09
9.76006e-09
4.60176e-11
8.6629e-10
-5.15922e-10
6.4486e-09
2.0754e-09
-1.13678e-09
1.35483e-08
-2.81001e-10
-2.52098e-09
1.06903e-09
1.62026e-10
1.14519e-08
8.12617e-10
-3.30364e-09
-3.72311e-10
1.28348e-08
-1.89291e-10
1.49723e-09
6.78415e-09
2.57212e-10
6.05102e-10
1.20987e-08
-1.55949e-10
-3.7899e-10
4.54313e-09
2.10082e-10
-1.05309e-09
4.99565e-09
9.697e-10
-1.64223e-09
9.03087e-09
-1.20676e-10
1.04872e-08
1.46639e-09
6.98269e-10
1.59311e-09
9.26935e-09
2.37311e-10
-6.08539e-10
7.48583e-10
8.66572e-09
-1.32388e-09
1.08111e-09
7.43746e-09
-6.96606e-10
6.37589e-10
8.22872e-09
-6.40892e-10
7.72526e-11
8.58031e-09
-1.75461e-09
-6.79906e-10
1.30821e-08
1.74923e-09
6.41465e-10
3.92034e-09
9.67724e-11
7.7494e-09
1.71152e-09
-7.94212e-12
-1.12362e-09
1.17665e-08
-2.61867e-09
-3.2342e-10
-6.25835e-10
1.2535e-08
-4.16147e-09
-2.19775e-09
1.5076e-08
-1.27971e-09
9.4427e-10
1.02197e-08
-7.84652e-10
8.95036e-10
2.4057e-09
-1.37741e-10
2.85937e-09
8.64239e-09
1.65733e-09
1.74483e-09
2.07222e-09
3.05776e-09
1.58465e-08
7.87605e-10
2.64671e-10
-1.32661e-10
1.33203e-08
-2.1635e-09
-7.7412e-10
4.56705e-10
8.25189e-09
6.0805e-10
9.39648e-10
6.66337e-09
2.27317e-10
-5.21228e-12
9.47926e-09
-1.67072e-09
-6.38593e-10
1.68964e-08
1.14311e-09
1.52898e-09
1.00112e-08
1.51908e-09
1.72971e-09
1.04547e-08
3.55923e-10
1.11937e-08
-6.12285e-10
1.0087e-09
1.55694e-09
7.46428e-09
-2.00617e-11
-5.05711e-10
1.79513e-10
8.58409e-09
-4.16356e-10
-1.33483e-09
9.4998e-09
-3.32253e-10
9.15903e-10
6.84557e-09
3.91643e-10
2.0438e-09
9.17814e-09
1.58404e-09
1.84539e-09
5.3209e-09
1.58301e-09
7.9119e-10
1.16611e-08
-3.72059e-10
1.60256e-08
-4.69423e-10
1.14505e-09
-1.31063e-09
3.076e-08
7.1993e-10
-2.11474e-09
-6.74707e-10
1.01093e-08
2.03646e-09
1.48322e-10
6.13845e-09
2.10784e-10
7.48392e-10
1.18328e-08
6.33284e-10
-6.50837e-10
1.02208e-08
3.77944e-10
-2.45666e-10
1.18327e-08
7.11291e-12
-4.49438e-11
9.0076e-09
-1.40713e-09
1.38565e-08
-1.24884e-09
5.7601e-10
1.46995e-08
-4.49847e-09
9.80854e-11
-8.5689e-10
9.45649e-09
-1.21582e-10
1.29974e-09
4.71519e-09
-2.46882e-10
-2.64537e-09
1.2724e-08
-7.47783e-10
1.65244e-09
1.20869e-08
8.68942e-10
3.78685e-10
1.16613e-08
-1.92621e-10
-8.20246e-10
1.60565e-08
-1.55422e-09
3.62375e-09
2.85392e-10
7.0836e-10
-3.59343e-09
-3.1963e-09
9.52517e-09
5.62017e-09
1.01901e-08
-1.29831e-09
9.99004e-12
1.17708e-08
-4.18701e-09
9.58175e-10
1.6363e-09
1.06855e-08
-1.72569e-09
-2.09466e-09
2.32715e-10
6.69779e-09
9.16301e-09
-4.91107e-10
6.93914e-11
1.22327e-08
-1.03147e-10
-1.69409e-10
4.70321e-10
8.56158e-09
4.06597e-10
-2.74421e-09
-2.73607e-10
7.89929e-09
1.39769e-09
9.66959e-10
1.44267e-08
-3.01344e-09
-1.57588e-09
-7.22138e-10
-2.31187e-09
1.21747e-08
-8.8475e-10
4.60001e-10
-2.86504e-09
1.45278e-08
1.93093e-09
4.71122e-10
6.47838e-09
2.4596e-09
1.68638e-09
1.01163e-08
3.81743e-10
2.17412e-10
6.47302e-09
6.63821e-10
-6.85236e-10
5.86909e-09
-4.19758e-10
-1.01829e-10
9.943e-09
8.32941e-10
1.10999e-08
-8.98462e-10
-3.43525e-09
-2.71092e-09
8.77e-09
4.33368e-09
-1.18674e-09
-4.04552e-09
7.5977e-09
-2.41204e-10
-7.14747e-10
7.67778e-09
-4.08554e-10
5.71023e-10
9.51152e-09
-1.29325e-09
-2.56447e-10
9.93876e-09
-2.05347e-09
-2.62309e-09
1.57805e-08
-5.88673e-10
2.84079e-09
-4.87148e-10
4.75234e-09
6.37405e-09
-3.1324e-09
-8.05074e-11
4.84069e-10
9.76392e-09
-1.1119e-09
-4.18047e-10
-2.29844e-09
1.11255e-08
-4.25754e-10
-6.50524e-10
1.50196e-08
-2.26603e-10
7.90886e-10
9.80066e-09
-8.94804e-10
-9.90429e-10
3.80796e-09
-8.5256e-10
-1.76736e-09
7.7443e-09
1.16737e-09
2.60406e-09
2.89331e-10
5.78762e-09
8.66872e-09
7.30962e-09
4.38689e-10
4.99772e-09
1.57141e-08
-7.34621e-09
-2.99072e-09
-1.35951e-09
1.07423e-08
-9.31587e-10
-1.54274e-09
5.49641e-09
-4.28401e-10
-4.00798e-12
9.77101e-09
4.44193e-10
1.41437e-09
1.36191e-08
1.05655e-09
-1.49224e-09
9.12384e-09
2.89451e-10
6.11488e-11
1.37645e-08
2.42564e-09
1.62553e-08
-1.40985e-09
-3.3937e-09
2.22326e-10
1.19723e-08
3.66107e-09
-9.38237e-10
-2.22472e-09
6.99388e-09
-7.83015e-10
1.28672e-10
7.67321e-09
-1.11401e-09
-6.78797e-10
7.85141e-09
-9.02691e-12
8.7049e-10
8.61703e-09
-1.33747e-10
-1.10196e-09
5.05532e-09
-3.34625e-10
1.14419e-09
1.07789e-08
3.08088e-09
1.54076e-08
-3.71755e-10
1.91288e-09
1.09971e-09
2.51279e-08
2.84181e-09
-3.08296e-09
-9.91546e-10
1.3872e-08
-2.74354e-09
-1.5396e-09
7.46731e-09
-1.51105e-09
-5.46326e-10
1.04679e-08
-3.11911e-09
-1.69866e-10
1.28692e-08
-3.12022e-09
-3.01197e-10
1.1033e-08
1.3237e-10
-3.46621e-10
7.24581e-09
9.47806e-09
9.79984e-09
-2.20816e-09
1.3855e-09
1.47535e-08
6.86557e-10
-1.0263e-09
-2.61823e-09
1.33974e-08
-9.28671e-10
-4.23424e-09
8.66301e-09
-3.87139e-09
-2.75251e-09
1.24577e-08
-1.7617e-09
-1.62844e-09
1.10891e-08
-2.96083e-10
2.48651e-10
1.11514e-08
-1.66839e-09
1.99777e-09
1.38157e-08
1.45109e-10
1.40198e-08
-2.41791e-09
3.49765e-09
-1.71361e-10
5.08335e-10
7.41216e-09
7.27021e-10
1.0493e-09
1.22851e-09
7.89435e-10
1.05864e-08
-1.00502e-09
1.87353e-09
6.18678e-10
9.84542e-09
-4.23575e-10
-1.48044e-10
-1.08688e-09
8.24661e-09
1.55976e-09
5.84236e-10
1.01232e-09
1.05696e-08
-8.17573e-11
5.41295e-10
5.36547e-10
7.28811e-09
7.79799e-10
-2.36916e-09
3.12405e-09
8.4538e-09
-7.68251e-10
7.99569e-10
1.21102e-08
2.93275e-10
-1.14548e-09
-1.76934e-09
-4.91534e-10
1.17079e-08
3.23602e-09
1.36763e-09
-2.37947e-10
1.24184e-08
8.84302e-10
-1.02547e-09
8.60593e-09
1.42268e-09
-1.03948e-09
9.53063e-09
1.96538e-09
2.19044e-11
6.92074e-09
1.24016e-09
3.76517e-10
6.75461e-09
-3.43172e-09
7.29985e-09
1.04396e-08
1.21156e-09
1.05502e-08
-3.29354e-09
-1.52289e-09
-2.30639e-09
1.01325e-08
1.97539e-09
3.44057e-11
-2.30572e-09
8.10823e-09
7.35157e-10
-1.86832e-09
7.81976e-09
2.00298e-09
-1.03061e-09
8.23527e-09
3.86282e-09
-6.35865e-10
8.7364e-09
8.61267e-09
-2.19973e-09
1.36073e-08
-5.96796e-09
-2.77135e-09
2.41651e-08
-9.21105e-10
7.55749e-09
-5.01855e-09
-1.30366e-09
-8.0065e-10
6.88302e-09
2.67888e-09
-2.05754e-10
-6.17977e-10
8.33991e-09
1.81134e-09
3.67593e-10
1.0767e-08
2.84525e-09
-1.0352e-09
8.77352e-09
3.7868e-09
-3.52529e-09
5.75514e-09
5.87315e-09
-6.0962e-09
9.55487e-09
-2.36118e-09
-8.08788e-09
1.38403e-08
-3.566e-09
1.04627e-08
-1.50956e-09
7.16455e-10
1.64381e-10
1.29271e-08
1.10537e-09
1.31795e-09
-2.29154e-10
9.75187e-09
-2.65018e-10
-1.28199e-09
8.7288e-09
4.47805e-10
-6.74622e-10
8.69693e-09
2.1792e-09
-1.31164e-09
9.67617e-09
1.16205e-10
-3.30427e-09
8.39517e-09
-2.07723e-09
-4.29255e-09
1.21631e-08
-2.08751e-09
1.34009e-08
-7.01343e-10
3.6652e-10
-1.91801e-09
1.39259e-08
-2.37729e-10
4.99116e-10
-1.57388e-09
8.20627e-09
-1.32253e-10
-5.86662e-10
7.6096e-09
-3.11872e-10
-7.3289e-10
8.08931e-09
-7.19217e-11
-9.64334e-10
8.03032e-09
-1.75344e-09
-2.70752e-09
6.14015e-09
-2.36545e-09
-1.53476e-09
8.63331e-09
3.09425e-10
1.14823e-08
-8.36968e-10
1.37216e-09
1.95574e-09
1.69102e-08
2.97186e-09
1.62435e-09
-1.46417e-10
1.21926e-08
-9.94091e-10
-3.45668e-10
9.84493e-09
-1.56739e-09
8.10465e-11
1.02273e-08
-1.78723e-09
3.72424e-10
1.17526e-08
-1.25753e-09
-5.12248e-10
8.30817e-09
-1.26148e-09
-9.36062e-10
6.65115e-09
1.77667e-09
9.22529e-09
-2.15399e-09
-8.80019e-11
1.39995e-08
9.90196e-10
1.80751e-09
6.12882e-10
1.26617e-08
-1.11442e-10
-1.55667e-09
1.07754e-08
-2.88461e-10
-1.47893e-09
1.07963e-08
1.66488e-09
-2.46823e-09
1.2772e-08
-3.21106e-10
-2.20858e-09
1.10673e-08
-6.8757e-10
-5.93624e-10
1.14311e-08
-1.66159e-10
1.70619e-08
-3.74135e-10
-1.48447e-09
1.87348e-09
2.07931e-09
1.10021e-08
-3.37882e-09
-4.16389e-09
1.7648e-09
1.43763e-09
1.12157e-08
-1.95842e-09
1.02656e-09
1.40118e-09
1.06706e-08
-1.48796e-09
8.13935e-11
1.00436e-09
1.02406e-08
-2.0532e-09
4.29133e-10
1.77034e-09
1.06727e-08
-2.22099e-09
-5.08952e-10
-1.77226e-10
9.76769e-09
-1.36423e-09
-1.33145e-09
-1.58498e-09
1.02765e-08
5.85244e-10
-6.00514e-10
1.11277e-08
1.11088e-09
-8.58847e-10
9.59079e-10
1.22387e-09
1.13117e-08
2.92361e-10
1.85183e-09
1.65687e-09
1.1307e-08
7.43569e-10
8.23516e-10
1.02919e-08
4.25808e-10
6.104e-10
1.02425e-08
-7.51603e-10
2.42576e-10
9.62586e-09
-2.14024e-09
-1.7969e-09
9.7634e-09
-7.78445e-10
-3.43763e-09
1.09309e-08
-4.59776e-10
1.09926e-08
-1.3611e-09
1.74867e-09
4.02383e-10
1.08395e-08
-1.6339e-09
1.17786e-09
1.99756e-10
1.01363e-08
1.66242e-10
-1.69547e-10
9.82433e-09
-9.3183e-10
1.61262e-10
9.78253e-09
-2.65483e-09
5.80679e-10
1.01215e-08
-3.16177e-09
7.73561e-10
1.15441e-08
2.36337e-09
2.01417e-09
1.31886e-08
-4.31543e-10
1.03317e-08
-4.38924e-10
7.67089e-10
-2.33112e-09
9.83714e-09
-9.8754e-10
4.07599e-10
-1.11099e-09
1.00103e-08
7.60786e-10
-1.74754e-10
1.04192e-08
1.18299e-10
-2.96917e-10
9.87589e-09
-2.02743e-09
-7.45887e-10
9.22627e-09
-2.57296e-09
5.59191e-10
1.0315e-08
9.07195e-11
1.5004e-09
1.16904e-08
-3.73289e-10
1.1087e-08
-5.91368e-10
2.88999e-09
-1.44232e-09
1.18749e-08
-2.72648e-09
1.74587e-09
-8.92964e-10
1.0678e-08
6.93571e-10
-5.65437e-10
1.01719e-08
-2.82891e-10
-6.2398e-10
9.99934e-09
-8.37957e-10
-6.98803e-10
1.01859e-08
-2.12966e-09
1.73468e-10
1.00729e-08
-9.36191e-10
1.13351e-09
1.13372e-08
1.41384e-10
1.19153e-08
3.46738e-11
3.40689e-09
-1.22801e-09
1.25373e-08
-2.23252e-09
2.02197e-09
-1.95066e-09
1.06491e-08
8.16206e-10
-1.76813e-09
1.00183e-08
8.73391e-11
-1.72118e-09
9.91535e-09
-2.54855e-10
-2.12057e-09
9.79459e-09
-1.80066e-09
-1.4843e-09
9.3437e-09
-1.99596e-09
-3.56013e-10
1.03182e-08
-6.2911e-10
1.13633e-08
-1.10643e-09
2.45475e-09
1.82414e-10
1.32326e-08
-1.87366e-10
2.08472e-09
-1.15047e-09
1.17627e-08
7.5084e-10
-1.44485e-09
1.08557e-08
-8.06062e-11
-1.46061e-09
1.07981e-08
3.90284e-10
-2.00223e-09
1.11635e-08
-7.15167e-10
-2.20619e-09
1.01355e-08
-2.20432e-09
-2.26161e-09
1.0046e-08
-2.04209e-09
1.10468e-08
-2.61271e-09
1.21276e-09
1.24699e-08
5.00051e-10
-5.14383e-13
1.4045e-09
1.19294e-08
-6.09862e-10
4.09647e-10
1.12261e-08
-9.00666e-10
-7.67229e-10
1.11712e-08
-6.5861e-10
-2.37124e-10
1.19158e-08
-1.67607e-09
-1.23003e-09
1.13055e-08
-1.45142e-09
-2.45293e-09
1.16044e-08
-1.21197e-09
1.3162e-08
6.04481e-10
-1.19949e-09
6.51053e-10
1.06498e-09
1.13978e-08
-3.78454e-10
-1.73353e-09
7.96119e-10
7.56347e-10
1.12193e-08
-9.04643e-10
5.76688e-10
6.33735e-10
1.09619e-08
-7.05322e-10
2.81227e-10
5.17052e-10
1.08267e-08
-8.07908e-10
3.52734e-10
5.74999e-10
1.08343e-08
-8.08371e-10
-3.73862e-11
-5.3633e-11
1.05976e-08
-3.8603e-10
-2.69821e-10
-5.83119e-10
1.07531e-08
3.39148e-10
-5.15352e-10
1.09207e-08
6.70582e-10
-2.17887e-10
3.36243e-10
5.33021e-10
1.11445e-08
3.6337e-10
7.02056e-10
6.42116e-10
1.1056e-08
4.48077e-10
4.11274e-10
1.07684e-08
2.56475e-10
2.90833e-10
1.066e-08
-1.42933e-10
6.78443e-11
1.05322e-08
-5.55035e-10
-4.89276e-10
1.06111e-08
-3.31581e-10
-8.5898e-10
1.09835e-08
-4.14152e-10
1.10082e-08
-4.48344e-10
6.03187e-10
1.17851e-10
1.10026e-08
-3.50815e-10
5.39933e-10
9.73818e-11
1.07444e-08
2.3574e-10
-3.0864e-11
1.05706e-08
-2.13784e-10
1.97928e-11
1.05029e-08
-7.26449e-10
8.95864e-11
1.06124e-08
-7.61793e-10
5.80246e-11
1.10323e-08
9.27761e-11
2.27301e-11
1.14524e-08
-5.20122e-10
1.0968e-08
-4.37455e-10
3.14624e-10
-9.5336e-10
1.07439e-08
-1.50099e-10
3.06945e-10
-5.47123e-10
1.06624e-08
3.32158e-10
-2.78485e-10
1.06415e-08
4.00977e-11
-2.96717e-10
1.04848e-08
-6.32881e-10
-4.03041e-10
1.03916e-08
-9.13306e-10
-6.1106e-11
1.07144e-08
-4.21845e-10
4.07951e-11
1.1181e-08
-4.49232e-10
1.11723e-08
-5.78391e-10
9.40348e-10
-7.9192e-10
1.14106e-08
-6.37477e-10
7.11832e-10
-5.94494e-10
1.0954e-08
3.64262e-10
-4.60291e-10
1.07013e-08
-3.8306e-11
-4.77613e-10
1.05826e-08
-3.75909e-10
-4.82314e-10
1.06031e-08
-8.6981e-10
-1.88118e-10
1.06941e-08
-6.25453e-10
-8.73096e-12
1.11422e-08
-2.34565e-10
1.13598e-08
-2.84485e-10
1.15003e-09
-4.94962e-10
1.17217e-08
-6.31348e-10
8.60632e-10
-7.68367e-10
1.11126e-08
4.25763e-10
-7.85558e-10
1.07786e-08
6.92573e-11
-8.54879e-10
1.06491e-08
-1.58151e-10
-1.05899e-09
1.05988e-08
-7.50378e-10
-7.90157e-10
1.0538e-08
-8.81268e-10
-4.46426e-10
1.08868e-08
-4.31199e-10
1.12672e-08
-5.88571e-10
7.97424e-10
9.47333e-11
1.18937e-08
-4.80761e-11
7.71706e-10
-4.18759e-10
1.14391e-08
3.39493e-10
-5.88582e-10
1.10911e-08
3.37882e-12
-7.26063e-10
1.10054e-08
5.65705e-11
-1.0275e-09
1.10789e-08
-4.21583e-10
-1.01643e-09
1.084e-08
-8.66746e-10
-9.0292e-10
1.09477e-08
-6.53972e-10
1.13251e-08
-9.22189e-10
2.94363e-10
1.17101e-08
3.02593e-10
2.57773e-10
4.72631e-10
1.15169e-08
-1.84436e-10
1.19165e-10
1.12661e-08
-2.75043e-10
-2.82915e-10
1.12395e-08
-3.92253e-10
-9.43875e-11
1.14766e-08
-7.76721e-10
-4.2156e-10
1.13e-08
-6.83739e-10
-7.20293e-10
1.14475e-08
-4.47145e-10
1.18422e-08
2.70487e-10
-3.24906e-10
4.35979e-10
6.74624e-10
1.13866e-08
-2.03606e-10
-8.95669e-10
4.63631e-10
4.7626e-10
1.12413e-08
-5.25628e-10
3.61051e-10
3.68678e-10
1.11043e-08
-4.08434e-10
2.44205e-10
2.92585e-10
1.10246e-08
-3.7382e-10
1.93082e-10
2.15671e-10
1.0983e-08
-3.13346e-10
2.82627e-11
-1.18567e-11
1.09114e-08
-1.37228e-10
-8.69826e-11
-2.26481e-10
1.09517e-08
1.42974e-10
-2.81981e-10
1.09915e-08
2.83531e-10
-1.59418e-10
2.4927e-10
3.29376e-10
1.11812e-08
5.95447e-11
3.59171e-10
3.14659e-10
1.11079e-08
2.75025e-10
2.29417e-10
1.09918e-08
1.50257e-10
1.55262e-10
1.09218e-08
-2.00513e-11
3.44235e-11
1.08837e-08
-1.80201e-10
-1.51915e-10
1.09112e-08
-1.64268e-10
-2.89832e-10
1.10308e-08
-2.75631e-10
1.10583e-08
-2.20863e-10
2.8507e-10
6.63051e-11
1.11013e-08
-1.20529e-10
2.93168e-10
5.70862e-11
1.09938e-08
1.79456e-10
1.08611e-11
1.09028e-08
-1.29699e-11
-4.49375e-12
1.08549e-08
-2.19624e-10
-2.76152e-11
1.08811e-08
-2.81862e-10
-6.56465e-11
1.10082e-08
-1.36628e-10
-1.30055e-10
1.11474e-08
-2.84862e-10
1.11036e-08
-2.63058e-10
2.10729e-10
-3.64881e-10
1.10317e-08
-6.73829e-11
2.27352e-10
-2.55369e-10
1.09582e-08
1.71083e-10
-1.90897e-10
1.08995e-08
7.03722e-12
-1.9476e-10
1.08389e-08
-2.4295e-10
-2.15259e-10
1.08299e-08
-3.83943e-10
-1.54409e-10
1.09442e-08
-2.97489e-10
-1.54884e-10
1.11193e-08
-2.62704e-10
1.11738e-08
-3.21114e-10
3.76303e-10
-3.79547e-10
1.12524e-08
-2.03526e-10
3.31625e-10
-3.36534e-10
1.10798e-08
1.87552e-10
-3.04063e-10
1.09587e-08
-5.64485e-12
-3.12553e-10
1.08943e-08
-1.95956e-10
-3.15654e-10
1.08935e-08
-3.85342e-10
-2.28439e-10
1.09574e-08
-3.47905e-10
-1.75214e-10
1.11251e-08
-2.36552e-10
1.12338e-08
-2.48112e-10
4.29382e-10
-2.51078e-10
1.13962e-08
-2.32334e-10
3.73899e-10
-3.54417e-10
1.11862e-08
2.04721e-10
-3.92845e-10
1.10367e-08
2.39031e-11
-4.46133e-10
1.09637e-08
-1.23924e-10
-5.15547e-10
1.09466e-08
-3.45957e-10
-4.2669e-10
1.09583e-08
-4.04405e-10
-3.26782e-10
1.10968e-08
-3.05757e-10
1.12473e-08
-3.15205e-10
3.06541e-10
-5.48881e-11
1.14621e-08
-7.09739e-11
3.13138e-10
-2.28977e-10
1.13073e-08
1.50153e-10
-3.09266e-10
1.11706e-08
-1.01365e-11
-3.99604e-10
1.11193e-08
-6.50672e-11
-5.16418e-10
1.11347e-08
-2.53495e-10
-4.90311e-10
1.10921e-08
-3.88254e-10
-4.14774e-10
1.11705e-08
-2.95616e-10
1.13195e-08
-3.92751e-10
1.33979e-10
1.14246e-08
3.62111e-11
6.06083e-11
1.9106e-10
1.13518e-08
-1.20732e-10
4.49773e-11
1.12559e-08
-1.52902e-10
-1.05881e-10
1.12434e-08
-2.52552e-10
-8.20973e-11
1.13177e-08
-3.81309e-10
-2.05187e-10
1.12793e-08
-3.46455e-10
-2.9198e-10
1.13461e-08
-2.26434e-10
1.14644e-08
9.56079e-12
-2.19196e-10
2.29166e-10
3.4601e-10
1.13143e-08
-8.40785e-11
-4.18595e-10
2.54405e-10
2.55504e-10
1.12366e-08
-2.7596e-10
2.18384e-10
1.95247e-10
1.11634e-08
-2.1826e-10
1.65657e-10
1.44236e-10
1.11117e-08
-1.78573e-10
1.16767e-10
8.35785e-11
1.1077e-08
-1.28786e-10
3.9845e-11
-1.4402e-11
1.1047e-08
-4.43077e-11
-1.92429e-11
-1.11322e-10
1.10512e-08
7.07931e-11
-1.66456e-10
1.10614e-08
1.47917e-10
-7.06672e-11
1.45828e-10
1.81743e-10
1.12016e-08
-1.90896e-12
1.9331e-10
1.58303e-10
1.11577e-08
1.63828e-10
1.15989e-10
1.11005e-08
1.00607e-10
7.02718e-11
1.10591e-08
2.14892e-11
8.47483e-12
1.10378e-08
-5.23805e-11
-7.38204e-11
1.10445e-08
-7.30799e-11
-1.41569e-10
1.10817e-08
-1.7791e-10
1.11013e-08
-1.04586e-10
1.35901e-10
3.82814e-11
1.11522e-08
-4.32695e-11
1.55693e-10
2.7609e-11
1.11047e-08
1.13409e-10
3.77348e-12
1.10573e-08
3.08978e-11
-1.96691e-11
1.10275e-08
-6.19001e-11
-4.63839e-11
1.10288e-08
-1.147e-10
-8.0712e-11
1.1068e-08
-1.07176e-10
-1.23993e-10
1.11222e-08
-1.78345e-10
1.11379e-08
-1.4109e-10
1.14031e-10
-1.42005e-10