/*--------------------------------*- C++ -*----------------------------------*\
| =========                 |                                                 |
| \\      /  F ield         | OpenFOAM: The Open Source CFD Toolbox           |
|  \\    /   O peration     | Version:  2506                                  |
|   \\  /    A nd           | Website:  www.openfoam.com                      |
|    \\/     M anipulation  |                                                 |
\*---------------------------------------------------------------------------*/
FoamFile
{
    version     2.0;
    format      ascii;
    arch        "LSB;label=32;scalar=64";
    class       volScalarField;
    location    "0.05";
    object      Ksl;
}
// * * * * * * * * * * * * * * * * * * * * * * * * * * * * * * * * * * * * * //

dimensions      [1 -3 -1 0 0 0 0];

internalField   nonuniform List<scalar> 
1152
(
134921
243404
134252
125233
77344.3
100107
146415
996188
140810
115548
109044
66162.3
105713
95505.1
127136
92881.3
211913
311926
163635
4.22315e+07
352066
241593
177034
168340
223734
255031
815671
160912
302423
166208
235398
397226
197630
559490
215475
147280
136642
146644
895059
171565
292679
213799
148619
246581
115567
511886
207135
319325
175254
4.71893e+06
258096
157502
220561
227010
241666
204864
961971
302406
295787
182960
383945
223689
233902
5.56605e+06
2.58939e+06
193164
187085
149472
190591
198152
264500
365197
352850
196986
280416
124860
170991
253578
174223
475427
111656
329865
277578
1.8844e+06
221775
205424
480354
193462
274833
296603
139265
361111
99617.2
169249
191622
4.63138e+06
93653.8
73971
69584.7
65100.6
50645.8
69903.3
103386
95198.8
54295.2
67658.3
100327
67659.4
44459
75765.9
160611
118992
0
0
0
0
0
0
0
0
0
0
0
0
0
0
0
0
0
0
0
0
0
0
0
0
0
0
0
0
0
0
0
0
0
0
0
0
0
0
0
0
0
0
0
0
0
0
0
0
0
0
0
0
0
0
0
0
0
0
0
0
0
0
0
0
0
0
0
0
0
0
0
0
0
0
0
0
0
0
0
0
0
0
0
0
0
0
0
0
0
0
0
0
0
0
0
0
0
0
0
0
0
0
0
0
0
0
0
0
0
0
0
0
0
0
0
0
0
0
0
0
0
0
0
0
0
0
0
0
0
0
0
0
0
0
0
0
0
0
0
0
0
0
0
0
0
0
0
0
0
0
0
0
0
0
0
0
0
0
0
0
0
0
0
0
0
0
0
0
0
0
0
0
0
0
0
0
0
0
0
0
0
0
0
0
0
0
0
0
0
0
0
0
0
0
0
0
0
0
0
0
0
0
0
0
0
0
0
0
0
0
0
0
0
0
0
0
0
0
0
0
0
0
0
0
0
0
0
0
0
0
0
0
0
0
0
0
0
0
0
0
0
0
0
0
0
0
0
0
0
0
0
0
0
0
0
0
0
0
0
0
0
0
0
0
0
0
0
0
0
0
0
0
77629.8
197910
66340.7
136009
120781
120268
131371
110845
101651
101706
102014
110316
92170.4
151934
90867.5
113154
123907
191249
222023
702702
167250
889957
288234
393014
419475
123323
208049
222683
181840
241249
184863
285965
367803
198782
202790
127668
271768
185210
458305
132885
194297
353042
156634
335706
194443
169586
219901
250381
241342
339733
464035
159451
173324
144559
274541
275118
208110
167681
173268
301553
162357
329010
214567
169502
116924
190706
154924
206334
962294
338020
316387
396121
414844
234266
128254
179971
207773
123406
639476
229841
3.92113e+06
431032
306738
794345
132595
166839
265974
105137
232503
182399
160026
4.96596e+06
156365
333602
248510
97634.6
39538
51833.8
51399.9
45008.6
61203.3
75975.8
42449
79640.3
73518.8
69444.1
43131.5
53998.9
53573.3
30028.5
67687.3
19848.5
0
0
0
0
0
0
0
0
0
0
0
0
0
0
0
0
0
0
0
0
0
0
0
0
0
0
0
0
0
0
0
0
0
0
0
0
0
0
0
0
0
0
0
0
0
0
0
0
0
0
0
0
0
0
0
0
0
0
0
0
0
0
0
0
0
0
0
0
0
0
0
0
0
0
0
0
0
0
0
0
0
0
0
0
0
0
0
0
0
0
0
0
0
0
0
0
0
0
0
0
0
0
0
0
0
0
0
0
0
0
0
0
0
0
0
0
0
0
0
0
0
0
0
0
0
0
0
0
0
0
0
0
0
0
0
0
0
0
0
0
0
0
0
0
0
0
0
0
0
0
0
0
0
0
0
0
0
0
0
0
0
0
0
0
0
0
0
0
0
0
0
0
0
0
0
0
0
0
0
0
0
0
0
0
0
0
0
0
0
0
0
0
0
0
0
0
0
0
0
0
0
0
0
0
0
0
0
0
0
0
0
0
0
0
0
0
0
0
0
0
0
0
0
0
0
0
0
0
0
0
0
0
0
0
0
0
0
0
0
0
0
0
0
0
0
0
0
0
0
0
0
0
0
0
0
0
0
0
0
0
0
0
0
0
0
0
0
0
0
0
0
0
112188
76566.6
154529
99695
294101
99041.6
130115
103534
100225
98828.6
143175
92408.2
124910
200827
71305.3
155697
492388
204296
643938
620369
142591
294240
209299
209183
118805
225110
263202
123295
218446
169722
277048
224688
160444
107856
243824
143006
934320
167377
216733
660737
131622
1e+06
184245
971681
267587
140044
219851
299200
306332
149046
262812
198617
281492
194395
197355
535302
174537
138345
5.83263e+06
106072
176570
293192
189115
318186
148242
238219
378402
170088
220507
236481
158681
256340
237416
182998
270554
220809
180080
228261
192709
286072
222519
91257.5
327223
161655
193674
173911
220809
377645
232443
128963
195794
131138
250059
284389
341283
464620
35156.7
15189.9
44917.6
22440.5
33520.6
97728.4
42517
97999
47214.9
54354.4
58005
59368.7
71260.2
75427.8
52262.5
34547
0
0
0
0
0
0
0
0
0
0
0
0
0
0
0
0
0
0
0
0
0
0
0
0
0
0
0
0
0
0
0
0
0
0
0
0
0
0
0
0
0
0
0
0
0
0
0
0
0
0
0
0
0
0
0
0
0
0
0
0
0
0
0
0
0
0
0
0
0
0
0
0
0
0
0
0
0
0
0
0
0
0
0
0
0
0
0
0
0
0
0
0
0
0
0
0
0
0
0
0
0
0
0
0
0
0
0
0
0
0
0
0
0
0
0
0
0
0
0
0
0
0
0
0
0
0
0
0
0
0
0
0
0
0
0
0
0
0
0
0
0
0
0
0
0
0
0
0
0
0
0
0
0
0
0
0
0
0
0
0
0
0
0
0
0
0
0
0
0
0
0
0
0
0
0
0
0
0
0
0
0
0
0
0
0
0
0
0
0
0
0
0
0
0
0
0
0
0
0
0
0
0
0
0
0
0
0
0
0
0
0
0
0
0
0
0
0
0
0
0
0
0
0
0
0
0
0
0
0
0
0
0
0
0
0
0
0
0
0
0
0
0
0
0
0
0
0
0
0
0
0
0
0
0
0
0
0
0
0
0
0
0
0
0
0
0
0
0
0
0
0
0
)
;

boundaryField
{
    inlet
    {
        type            zeroGradient;
    }
    outlet
    {
        type            zeroGradient;
    }
    wall
    {
        type            zeroGradient;
    }
    procBoundary2to0
    {
        type            processor;
        value           nonuniform List<scalar> 
192
(
134780
55884.2
100041
108801
178348
421653
212172
229787
426403
117967
562162
644122
348970
124873
229462
114810
156025
458255
392766
3.99199e+06
245031
157628
172970
214952
31594.5
109933
288388
82259.6
0
0
0
0
0
0
0
0
0
0
0
0
0
0
0
0
0
0
0
0
0
0
0
0
0
0
0
0
0
0
0
0
0
0
0
0
0
0
0
0
0
0
0
0
0
0
0
0
0
0
0
0
0
0
0
0
0
0
0
0
0
0
0
0
0
0
0
0
180718
181177
89587.2
94426.7
217759
198032
200636
195963
312527
450236
460317
165471
151236
931547
300753
219062
295606
217651
194912
221992
150555
288855
167700
162606
78756.3
42920.6
17379.9
35827.6
0
0
0
0
0
0
0
0
0
0
0
0
0
0
0
0
0
0
0
0
0
0
0
0
0
0
0
0
0
0
0
0
0
0
0
0
0
0
0
0
0
0
0
0
0
0
0
0
0
0
0
0
0
0
0
0
0
0
0
0
0
0
0
0
0
0
0
0
)
;
    }
    procBoundary2to3
    {
        type            processor;
        value           nonuniform List<scalar> 
192
(
49342.2
46589.5
403288
150958
103369
304904
1.03981e+07
146777
371268
320112
229585
230448
458170
202554
238365
159905
8.14443e+06
242176
312673
196264
98313.4
121999
381678
124407
955170
84319.6
82015.5
782123
0
0
0
0
0
0
0
0
0
0
0
0
0
0
0
0
0
0
0
0
0
0
0
0
0
0
0
0
0
0
0
0
0
0
0
0
0
0
0
0
0
0
0
0
0
0
0
0
0
0
0
0
0
0
0
0
0
0
0
0
0
0
0
0
0
0
0
0
78106.2
180467
85457.4
777354
177117
169561
234015
116213
445889
778735
226005
376913
429290
248231
161053
225663
230360
137251
1.59445e+07
283583
96192.7
5.97454e+06
133231
252403
264549
45523.4
33440.1
46330.8
0
0
0
0
0
0
0
0
0
0
0
0
0
0
0
0
0
0
0
0
0
0
0
0
0
0
0
0
0
0
0
0
0
0
0
0
0
0
0
0
0
0
0
0
0
0
0
0
0
0
0
0
0
0
0
0
0
0
0
0
0
0
0
0
0
0
0
0
)
;
    }
}


// ************************************************************************* //
