/*--------------------------------*- C++ -*----------------------------------*\
| =========                 |                                                 |
| \\      /  F ield         | OpenFOAM: The Open Source CFD Toolbox           |
|  \\    /   O peration     | Version:  2506                                  |
|   \\  /    A nd           | Website:  www.openfoam.com                      |
|    \\/     M anipulation  |                                                 |
\*---------------------------------------------------------------------------*/
FoamFile
{
    version     2.0;
    format      ascii;
    arch        "LSB;label=32;scalar=64";
    class       surfaceScalarField;
    location    "0.05";
    object      phi;
}
// * * * * * * * * * * * * * * * * * * * * * * * * * * * * * * * * * * * * * //

dimensions      [0 3 -1 0 0 0 0];

oriented        oriented;

internalField   nonuniform List<scalar> 
3120
(
-7.43969e-10
4.55312e-09
2.9074e-08
-4.82194e-10
3.45594e-09
2.72058e-09
1.41007e-08
9.88031e-09
-1.93852e-09
2.79511e-08
-4.08304e-09
5.94055e-08
-2.14131e-09
6.02344e-10
3.92109e-08
3.90385e-11
-1.4755e-10
4.12944e-10
3.31757e-08
2.45428e-09
8.13486e-10
2.77204e-08
1.31637e-09
1.6183e-08
-1.34829e-09
3.44057e-09
2.49552e-08
6.58336e-09
6.35416e-10
4.03476e-09
2.77167e-08
8.86828e-09
1.15564e-09
2.48831e-08
-6.39635e-09
5.29636e-08
-2.32768e-09
3.14055e-08
6.27974e-09
1.08165e-09
-2.34714e-09
3.71157e-08
-8.60764e-10
8.68885e-10
2.62142e-08
4.73065e-09
2.82469e-08
-2.16445e-09
-1.23302e-09
-1.16772e-09
3.52189e-08
-3.94136e-10
4.78282e-10
5.98283e-10
1.30789e-08
4.85779e-09
-3.53573e-10
2.91484e-08
5.59018e-10
1.09265e-07
1.42061e-09
1.09449e-11
3.88986e-08
-2.28706e-09
-2.27293e-09
-1.44417e-09
3.89117e-08
2.89574e-09
9.3885e-10
2.12593e-08
-7.31511e-09
3.64386e-08
1.92702e-10
2.9199e-09
2.37365e-08
-1.88298e-09
2.22021e-10
-1.20817e-09
2.74514e-08
-2.51807e-09
-4.64321e-10
2.90263e-08
2.1731e-10
3.56764e-08
-4.45618e-09
4.43782e-08
-3.47406e-09
-2.12255e-09
-2.14143e-10
2.74793e-08
4.1861e-09
-1.66623e-09
2.98094e-08
-2.60742e-09
1.70966e-08
3.14498e-09
-2.79066e-09
-2.47124e-09
3.83073e-08
4.56641e-09
-3.42247e-09
1.25548e-09
8.57615e-09
-1.04875e-08
2.31787e-09
3.00938e-08
1.43835e-08
6.57866e-08
-2.72949e-09
-3.7924e-09
4.42522e-08
-1.30296e-09
-3.10513e-09
-6.10236e-10
4.1153e-08
-1.15933e-09
4.10098e-09
1.75303e-08
4.91961e-09
4.18826e-08
6.8564e-10
2.01244e-09
1.42703e-08
2.97571e-09
1.72189e-09
-8.30971e-10
2.66358e-08
-1.43887e-09
1.0337e-09
3.52544e-08
2.13016e-09
3.55209e-08
-1.87446e-09
4.4868e-08
5.0752e-10
2.88961e-09
1.10675e-09
2.14318e-08
2.23533e-09
4.11922e-10
3.14321e-08
1.05761e-10
1.39501e-08
5.40769e-09
3.44376e-09
-2.68707e-09
2.94223e-08
2.92766e-09
-2.57285e-09
-5.15303e-09
2.50578e-08
-4.93338e-09
9.71585e-10
3.06482e-08
1.00587e-09
4.77226e-08
-1.74138e-10
1.66654e-09
3.56614e-08
4.4113e-09
1.17141e-09
1.87103e-09
3.27834e-08
-3.40731e-09
-1.15554e-09
2.42362e-08
7.4399e-09
2.76566e-08
-4.17286e-11
-4.18446e-10
1.14228e-08
4.97421e-09
-1.54685e-09
2.63889e-09
2.73731e-08
4.17956e-09
4.38068e-09
2.39917e-08
-1.48374e-09
4.99825e-08
3.09332e-09
3.42735e-08
5.27989e-09
1.80279e-09
-1.43388e-10
2.75523e-08
-2.44863e-10
-6.47955e-11
3.4961e-08
7.73245e-10
9.45494e-09
3.91967e-10
-5.30086e-09
-3.17497e-09
4.08587e-08
-1.01048e-09
-4.90093e-09
4.34942e-10
2.57905e-08
-5.72392e-09
4.45474e-10
2.96289e-08
4.49321e-09
2.89367e-08
-2.64083e-09
2.73863e-09
3.07558e-08
1.63286e-09
-3.63905e-09
2.50672e-09
3.17099e-08
-2.88509e-10
4.07269e-09
1.72584e-08
1.44462e-09
2.48546e-08
-2.56227e-09
2.73104e-09
1.8269e-08
-4.27631e-09
-4.54981e-10
2.08939e-09
2.56831e-08
-6.84239e-09
1.55024e-10
3.42968e-08
3.6483e-09
3.94814e-08
-4.01107e-09
6.01078e-08
-1.11217e-08
-7.97049e-09
-2.94562e-09
3.1732e-08
-3.15575e-09
-1.72454e-09
3.31364e-08
7.58549e-10
8.78341e-09
3.75301e-10
-2.66232e-09
2.12849e-09
2.63726e-08
9.91415e-09
-1.60423e-09
-1.29788e-10
2.59102e-08
-9.01445e-10
2.33863e-10
3.02443e-08
3.48357e-11
3.83477e-08
-3.29933e-09
1.15291e-09
3.45349e-08
4.95746e-10
-1.23704e-09
6.94873e-10
2.88229e-08
-9.59809e-10
-2.05696e-09
1.9272e-08
-8.85721e-10
2.63194e-08
-2.97498e-09
-4.07367e-09
2.97181e-08
-3.24752e-09
-5.542e-09
-4.15073e-10
2.93601e-08
-6.56705e-10
-1.06514e-09
2.84197e-08
2.32584e-09
3.4621e-08
-4.52745e-09
5.03846e-08
3.48671e-09
6.69027e-09
-5.72552e-09
2.97386e-08
2.77633e-09
3.94602e-09
1.69464e-08
5.45321e-09
2.33913e-08
4.28204e-10
-5.48797e-10
2.62567e-11
2.87229e-08
-1.1356e-10
-7.69723e-10
3.31352e-10
2.60262e-08
-6.03263e-10
8.69e-10
2.81047e-08
1.05726e-09
3.56062e-08
-2.22996e-10
7.49261e-10
3.23571e-08
1.6778e-09
2.98355e-10
4.68923e-10
2.81639e-08
-7.47314e-10
-3.02669e-11
2.1217e-08
-1.0047e-10
2.81081e-08
-8.15092e-10
-1.26393e-09
3.20358e-08
5.10582e-10
-4.36027e-10
7.5033e-11
2.93749e-08
-4.32909e-10
7.86825e-10
2.75995e-08
6.39216e-10
3.26871e-08
1.85257e-12
4.34068e-08
7.26215e-10
4.98577e-09
-7.38683e-11
2.90492e-08
8.40222e-10
-7.86612e-10
1.90516e-08
-6.05583e-10
2.35038e-08
2.65952e-10
4.76437e-09
2.22572e-09
3.13543e-08
-7.47514e-09
3.19868e-09
1.46057e-09
2.70673e-08
1.87129e-09
7.99477e-10
2.87644e-08
6.35169e-10
3.84562e-08
3.36324e-09
2.57355e-09
3.0997e-08
-2.35093e-09
2.93604e-09
1.5512e-09
2.85004e-08
1.15875e-09
2.67388e-10
2.35265e-08
-4.64966e-10
3.12654e-08
1.85482e-09
2.03609e-09
3.22444e-08
-1.52597e-09
1.1204e-09
1.75614e-09
2.99041e-08
5.22204e-11
6.71246e-10
2.82638e-08
5.35653e-11
3.23123e-08
1.10898e-09
4.15536e-08
2.78007e-09
1.06968e-13
7.59997e-11
3.00126e-08
1.82553e-09
-1.87924e-09
2.11041e-08
5.73738e-10
2.19769e-08
2.92899e-09
2.85642e-09
9.74436e-12
3.22384e-08
-2.9883e-09
6.34344e-10
-4.32516e-10
3.0329e-08
-1.54763e-09
-6.86637e-10
3.05632e-08
1.37026e-09
3.49563e-08
2.18182e-09
-2.34267e-09
3.17085e-08
-5.40983e-10
1.60208e-09
-1.67349e-09
3.03208e-08
-2.77687e-09
-1.61951e-09
2.88383e-08
3.9822e-10
3.20214e-08
2.3235e-09
-3.94305e-09
3.29215e-08
-1.40036e-09
1.23148e-09
-1.97087e-09
3.12932e-08
-7.19307e-10
-1.48244e-09
3.00775e-08
-8.66711e-11
3.15813e-08
4.2012e-09
3.54824e-08
-2.3425e-09
2.69399e-10
3.79602e-09
3.15054e-08
-3.05876e-09
1.03093e-09
2.83276e-08
-5.94096e-09
2.82946e-08
-6.23111e-09
1.68717e-09
3.42481e-10
3.26916e-08
-2.03779e-09
4.09516e-10
2.16094e-10
3.19815e-08
-9.89161e-10
2.48775e-10
3.18992e-08
1.15962e-09
3.35949e-08
1.29299e-09
-7.46566e-10
3.2322e-08
-8.17387e-10
6.33528e-10
-5.44178e-10
3.17404e-08
-1.27292e-09
-2.91468e-10
3.12849e-08
5.93823e-10
3.25803e-08
1.37632e-09
-1.0428e-09
3.2903e-08
-1.06171e-09
8.02864e-10
-8.25456e-10
3.21478e-08
-3.00885e-10
-7.38907e-10
3.16286e-08
-7.2492e-11
3.21893e-08
1.48548e-09
3.35427e-08
-5.7203e-10
-1.66074e-11
1.39536e-09
3.22343e-08
-1.46423e-09
3.48023e-10
3.12049e-08
-2.56893e-09
3.12157e-08
-2.63663e-09
7.51416e-10
-3.04619e-11
3.30332e-08
-8.98828e-10
2.35383e-10
2.63791e-11
3.27564e-08
-4.35066e-10
8.68994e-11
3.26708e-08
4.17189e-10
3.32798e-08
6.12985e-10
-6.71287e-10
3.28323e-08
-4.82585e-10
2.5673e-10
-4.79315e-10
3.26022e-08
-4.95533e-10
-3.19936e-10
3.24439e-08
1.01167e-10
3.29299e-08
8.00185e-10
-9.27058e-10
3.30796e-08
-7.21059e-10
4.82375e-10
-7.77683e-10
3.27639e-08
-8.93272e-11
-6.63693e-10
3.25441e-08
-3.80653e-10
3.27773e-08
9.06595e-10
3.32387e-08
-1.03076e-09
-4.98984e-10
6.99857e-10
3.28388e-08
-1.17544e-09
1.93375e-10
3.25024e-08
-1.45473e-09
3.2543e-08
-1.50981e-09
3.78847e-10
1.3344e-11
3.31987e-08
-4.68645e-10
1.54424e-10
2.02028e-11
3.31024e-08
-1.45142e-10
3.43039e-11
3.30613e-08
1.38811e-10
3.32755e-08
2.92369e-10
-2.69209e-10
3.30903e-08
-2.67858e-10
1.35833e-10
-2.40947e-10
3.30198e-08
-1.69557e-10
-1.89861e-10
3.29733e-08
-4.03747e-11
3.3153e-08
3.50775e-10
-3.71544e-10
3.31687e-08
-3.37621e-10
2.0606e-10
-4.07343e-10
3.3075e-08
-3.47785e-11
-4.07466e-10
3.30025e-08
-3.08799e-10
3.30971e-08
2.83896e-10
3.31753e-08
-4.50702e-10
-1.41316e-10
2.2465e-10
3.30991e-08
-6.08244e-10
4.67442e-11
3.30188e-08
-7.45901e-10
3.30592e-08
-8.12774e-10
1.99821e-10
-7.7854e-12
3.32937e-08
-2.47624e-10
9.99621e-11
-7.15868e-12
3.32702e-08
-3.51706e-11
-3.98705e-12
3.32575e-08
2.58141e-11
3.33294e-08
1.5467e-10
-1.55061e-10
3.32344e-08
-1.51465e-10
8.47973e-11
-1.46265e-10
3.32287e-08
-4.04326e-11
-1.26793e-10
3.32213e-08
-7.45665e-11
3.32866e-08
1.8297e-10
-2.26533e-10
3.3245e-08
-1.8772e-10
1.17396e-10
-2.45788e-10
3.32402e-08
9.88057e-12
-2.45059e-10
3.32283e-08
-2.1418e-10
3.32663e-08
1.47131e-10
3.32043e-08
-2.92043e-10
-1.10518e-10
1.13154e-10
3.32332e-08
-3.45674e-10
4.07251e-11
3.32329e-08
-3.86686e-10
3.32618e-08
-4.17479e-10
1.06791e-10
-1.10618e-11
3.33425e-08
-1.31243e-10
6.15369e-11
-1.54459e-11
3.33513e-08
2.40944e-12
-1.585e-11
3.33528e-08
-8.05657e-12
3.33772e-08
8.27945e-11
-8.42413e-11
3.33063e-08
-8.16084e-11
5.27473e-11
-8.56452e-11
3.3329e-08
1.42865e-12
-8.00067e-11
3.33367e-08
-6.31609e-11
3.33609e-08
9.15915e-11
-1.22458e-10
3.32869e-08
-9.52614e-11
6.40453e-11
-1.38032e-10
3.33204e-08
2.10592e-11
-1.40843e-10
3.33322e-08
-1.31963e-10
3.33511e-08
6.86838e-11
3.32217e-08
-1.55681e-10
-5.26994e-11
5.76064e-11
3.32899e-08
-1.83267e-10
3.16608e-11
3.33181e-08
-1.99877e-10
3.33398e-08
-2.14459e-10
5.88577e-11
-1.27432e-11
3.33668e-08
-7.09894e-11
3.83545e-11
-1.72406e-11
3.33908e-08
1.23606e-11
-1.83097e-11
3.33993e-08
-1.57099e-11
3.34095e-08
4.69495e-11
-4.90041e-11
3.33415e-08
-4.58415e-11
3.41502e-11
-5.19209e-11
3.33766e-08
1.26956e-11
-5.06812e-11
3.33904e-08
-4.47692e-11
3.34019e-08
4.88177e-11
-6.91046e-11
3.33083e-08
-5.00878e-11
3.76432e-11
-7.83286e-11
3.33582e-08
2.01358e-11
-8.07525e-11
3.33798e-08
-7.78333e-11
3.33923e-08
3.63434e-11
3.32306e-08
-8.54761e-11
-2.8605e-11
3.33341e-11
3.33133e-08
-9.83107e-11
2.4443e-11
3.3352e-08
-1.05584e-10
3.33706e-08
-1.11935e-10
3.33339e-11
-1.16812e-11
3.33791e-08
-3.86452e-11
2.4277e-11
-1.48286e-11
3.34108e-08
1.25534e-11
-1.55963e-11
3.34228e-08
-1.44563e-11
3.34287e-08
2.77048e-11
-2.93716e-11
3.33582e-08
-2.66546e-11
2.23678e-11
-3.19077e-11
3.33991e-08
1.3052e-11
-3.19674e-11
3.3416e-08
-2.96366e-11
3.34236e-08
2.73528e-11
-3.95289e-11
3.33183e-08
-2.70759e-11
2.32365e-11
-4.48203e-11
3.33754e-08
1.62022e-11
-4.65353e-11
3.34014e-08
-4.54565e-11
3.34121e-08
2.06152e-11
3.32336e-08
-4.6917e-11
-1.59291e-11
2.06825e-11
3.33221e-08
-5.3314e-11
1.79905e-11
3.33651e-08
-5.6888e-11
3.3383e-08
-5.96153e-11
1.95288e-11
-9.55472e-12
3.33852e-08
-2.13989e-11
1.56246e-11
-1.14494e-11
3.34207e-08
1.02027e-11
-1.19257e-11
3.34347e-08
-1.13391e-11
3.34397e-08
1.68589e-11
-1.8121e-11
3.33658e-08
-1.59241e-11
1.47572e-11
-1.98938e-11
3.34097e-08
1.06269e-11
-2.02178e-11
3.34283e-08
-1.91722e-11
3.3435e-08
1.60987e-11
-2.30657e-11
3.33225e-08
-1.53043e-11
1.48467e-11
-2.60764e-11
3.3383e-08
1.2004e-11
-2.71553e-11
3.34111e-08
-2.67241e-11
3.34217e-08
1.24059e-11
3.32338e-08
-2.62075e-11
-9.24508e-12
1.34336e-11
3.3325e-08
-2.95414e-11
1.28804e-11
3.337e-08
-3.13217e-11
3.33879e-08
-3.25076e-11
1.18152e-11
-7.30347e-12
3.3388e-08
-1.22489e-11
1.01772e-11
-8.4154e-12
3.34256e-08
7.62411e-12
-8.71115e-12
3.34408e-08
-8.36513e-12
3.34458e-08
1.05097e-11
-1.1363e-11
3.33691e-08
-9.72713e-12
9.78582e-12
-1.25217e-11
3.34146e-08
7.91787e-12
-1.28044e-11
3.34342e-08
-1.2332e-11
3.3441e-08
9.86309e-12
-1.36434e-11
3.33239e-08
-9.01269e-12
9.67486e-12
-1.53811e-11
3.33862e-08
8.5284e-12
-1.59923e-11
3.34154e-08
-1.59213e-11
3.34263e-08
7.73559e-12
3.3233e-08
-1.47607e-11
-5.59916e-12
8.89138e-12
3.33254e-08
-1.66665e-11
9.07416e-12
3.33715e-08
-1.75983e-11
3.33898e-08
-1.81566e-11
7.36926e-12
-5.29754e-12
3.33892e-08
-7.29548e-12
6.75202e-12
-5.97499e-12
3.3428e-08
5.58239e-12
-6.1956e-12
3.34439e-08
-6.03546e-12
3.34491e-08
6.71161e-12
-7.15969e-12
3.33703e-08
-6.07091e-12
6.52407e-12
-7.8602e-12
3.34167e-08
5.72591e-12
-8.10857e-12
3.3437e-08
-7.9533e-12
3.3444e-08
6.26677e-12
-8.13873e-12
3.33241e-08
-5.5116e-12
6.36305e-12
-9.03063e-12
3.33872e-08
5.93587e-12
-9.44372e-12
3.34172e-08
-9.66473e-12
3.34285e-08
4.90946e-12
3.32319e-08
-8.4476e-12
-3.4322e-12
5.96204e-12
3.3325e-08
-9.57605e-12
6.35195e-12
3.33718e-08
-1.00683e-11
3.33905e-08
-1.0506e-11
4.73578e-12
-3.68538e-12
3.33897e-08
-4.51755e-12
4.56894e-12
-4.11686e-12
3.34291e-08
4.10137e-12
-4.32609e-12
3.34454e-08
-4.29868e-12
3.34508e-08
4.3667e-12
-4.46324e-12
3.33706e-08
-3.88574e-12
4.3772e-12
-4.93132e-12
3.34176e-08
4.12168e-12
-5.1813e-12
3.34382e-08
-5.14147e-12
3.34455e-08
4.04453e-12
-4.76403e-12
3.33238e-08
-3.51223e-12
4.17492e-12
-5.3596e-12
3.33874e-08
4.18284e-12
-5.87097e-12
3.34178e-08
-5.87753e-12
3.34294e-08
3.17196e-12
3.32309e-08
-4.77756e-12
-2.17127e-12
4.05479e-12
3.33244e-08
-5.6383e-12
4.44093e-12
3.33715e-08
-6.03683e-12
3.33904e-08
-6.04365e-12
3.10832e-12
-2.46622e-12
3.33899e-08
-2.88541e-12
3.1092e-12
-2.75033e-12
3.34295e-08
2.96154e-12
-2.92852e-12
3.34461e-08
-2.96657e-12
3.34516e-08
2.88128e-12
-2.74136e-12
3.33706e-08
-2.5483e-12
2.95108e-12
-3.0704e-12
3.34178e-08
2.92368e-12
-3.26727e-12
3.34387e-08
-3.28413e-12
3.34461e-08
2.63985e-12
-2.72504e-12
3.33234e-08
-2.32564e-12
2.7829e-12
-3.21039e-12
3.33873e-08
2.91635e-12
-3.56095e-12
3.3418e-08
-3.55058e-12
3.34296e-08
2.09905e-12
3.32301e-08
-2.65494e-12
-1.46258e-12
2.78133e-12
3.33238e-08
-3.35987e-12
3.05768e-12
3.33711e-08
-3.50596e-12
3.33902e-08
-3.49565e-12
2.06399e-12
-1.54656e-12
3.33898e-08
-1.88408e-12
2.10893e-12
-1.72545e-12
3.34297e-08
2.09126e-12
-1.84593e-12
3.34464e-08
-1.89924e-12
3.3452e-08
1.92616e-12
-1.61124e-12
3.33705e-08
-1.7092e-12
2.00343e-12
-1.82261e-12
3.34178e-08
2.04412e-12
-1.95531e-12
3.34389e-08
-1.98811e-12
3.34464e-08
1.7674e-12
-1.51728e-12
3.33231e-08
-1.58004e-12
1.88861e-12
-1.81444e-12
3.33871e-08
2.01642e-12
-2.0393e-12
3.34179e-08
-2.04931e-12
3.34297e-08
1.43814e-12
3.32295e-08
-1.41215e-12
-1.0613e-12
1.91963e-12
3.33233e-08
-1.85926e-12
2.07714e-12
3.33707e-08
-1.89622e-12
3.339e-08
-1.95559e-12
1.46975e-12
-7.86007e-13
3.33896e-08
-1.31598e-12
1.53018e-12
-8.91191e-13
3.34296e-08
1.57269e-12
-9.53401e-13
3.34464e-08
-9.99984e-13
3.34521e-08
1.38996e-12
-7.71862e-13
3.33703e-08
-1.23366e-12
1.47724e-12
-9.05629e-13
3.34177e-08
1.53611e-12
-9.79991e-13
3.34389e-08
-1.01133e-12
3.34464e-08
1.28766e-12
-6.71414e-13
3.33228e-08
-1.15543e-12
1.41362e-12
-8.90874e-13
3.33869e-08
1.50796e-12
-9.81251e-13
3.34178e-08
-1.00727e-12
3.34296e-08
1.12041e-12
3.32291e-08
-5.93105e-13
-8.71351e-13
1.41434e-12
3.3323e-08
-8.5626e-13
1.51442e-12
3.33704e-08
-8.66637e-13
3.33898e-08
-9.43869e-13
1.42299e-12
-2.92324e-13
-1.2277e-12
1.55247e-12
-3.53721e-13
1.64695e-12
-3.90315e-13
-4.20483e-13
1.37628e-12
-2.44477e-13
-1.17509e-12
1.52039e-12
-3.27985e-13
1.61778e-12
-3.88847e-13
-4.28891e-13
1.30813e-12
-1.65257e-13
-1.11746e-12
1.46354e-12
-2.85822e-13
1.57864e-12
-3.67467e-13
-4.23974e-13
1.18943e-12
-6.51188e-14
-9.46178e-13
1.41269e-12
-2.39199e-13
1.53672e-12
-3.1117e-13
-3.95126e-13
-4.83739e-09
-6.70868e-10
3.34904e-08
-1.64706e-09
1.96802e-09
1.29642e-11
1.93267e-08
-5.59592e-09
-4.97899e-09
4.83874e-08
2.0672e-10
2.25689e-08
-2.89619e-09
1.17613e-09
2.47059e-08
4.05407e-10
-5.38104e-10
9.51265e-09
1.92469e-08
-7.5044e-10
6.52663e-09
2.56414e-08
3.24173e-09
3.45408e-08
5.936e-10
6.84706e-09
2.19003e-08
-1.44269e-11
-1.99627e-09
-3.32466e-09
5.0793e-08
-3.00085e-09
4.21457e-09
4.45029e-08
-1.4301e-09
4.17998e-08
-2.66302e-09
4.1544e-08
2.78952e-10
1.32569e-09
3.23194e-08
-5.22438e-09
5.65216e-08
4.17641e-08
1.71916e-09
3.53246e-09
2.46712e-08
9.35552e-11
-4.97932e-09
2.42299e-09
2.77883e-08
5.78881e-09
2.67993e-09
3.23319e-08
-8.82627e-10
3.73464e-08
1.01761e-09
2.79044e-09
2.47853e-08
-3.54998e-10
-1.49258e-09
1.46213e-09
2.2718e-08
3.07861e-09
5.05946e-09
1.86907e-08
-5.80617e-09
4.54033e-08
-3.32563e-10
5.32188e-10
2.24018e-08
2.08929e-09
-8.44179e-10
6.15732e-09
4.66094e-08
-2.40877e-09
-2.76444e-09
5.38914e-08
5.90503e-10
3.25459e-08
1.3255e-09
3.86411e-08
1.63534e-09
-2.69625e-09
4.24488e-08
2.8381e-11
5.13074e-08
3.84054e-08
3.00797e-09
6.75693e-09
1.48561e-08
5.5767e-10
4.96704e-10
1.0358e-08
2.21769e-08
6.0457e-09
3.51973e-09
2.33689e-08
-5.50057e-10
5.56131e-08
3.4392e-09
4.4296e-09
2.37638e-08
-9.04088e-11
-1.52816e-09
-5.59222e-09
4.36355e-08
-4.49109e-10
1.29294e-09
1.98384e-08
3.80996e-10
4.66566e-08
-6.57744e-10
4.95897e-10
2.84128e-08
-1.41955e-09
2.28708e-09
1.05129e-09
3.70211e-08
3.02392e-11
-3.63791e-09
6.10791e-08
4.28271e-09
2.82191e-08
-1.14871e-09
4.04274e-08
-2.45177e-10
2.40769e-10
4.22234e-08
4.21743e-09
4.42083e-08
5.23801e-08
-8.4015e-10
-6.65802e-09
2.91538e-08
-1.51971e-09
4.79055e-10
-1.28647e-09
2.18994e-08
-4.40411e-09
-3.86395e-10
2.94117e-08
4.36277e-10
4.3357e-08
1.21453e-09
-2.55851e-09
1.8983e-08
-5.33206e-10
2.54824e-09
5.75769e-09
3.52576e-08
-2.31004e-09
1.27002e-09
2.30403e-08
9.14796e-09
2.62456e-08
3.7075e-09
3.03208e-09
1.97454e-08
-6.30663e-10
2.26643e-09
4.67829e-09
3.95415e-08
3.68563e-09
-7.9136e-09
6.88435e-08
-1.03925e-09
3.96899e-08
3.1371e-09
4.03547e-08
-8.00041e-11
-1.60049e-09
5.16032e-08
6.48979e-09
2.84918e-08
5.94937e-08
-3.65216e-09
-1.99065e-09
2.54756e-08
-1.80066e-09
-2.13745e-10
-4.14395e-09
1.94492e-08
-3.06358e-09
1.47993e-09
3.15402e-08
1.00935e-08
2.1673e-08
-1.04413e-09
-2.0263e-09
2.13998e-08
-1.33704e-09
1.46638e-09
1.50266e-09
2.71005e-08
3.20508e-09
-2.44047e-10
2.30256e-08
-2.89575e-09
4.5248e-08
7.85856e-10
4.24562e-10
1.66612e-08
-1.52542e-10
3.17617e-09
2.53099e-09
3.61229e-08
7.30141e-09
-2.05037e-09
6.65246e-08
7.86087e-09
3.21383e-08
2.29011e-09
3.99632e-08
-1.36994e-09
1.04246e-09
5.47967e-08
4.74211e-09
2.26481e-08
7.48228e-08
1.86578e-10
-4.1137e-09
3.27771e-08
1.12332e-10
-4.13519e-10
-1.48707e-09
2.43127e-08
1.11029e-09
3.11112e-09
3.23585e-08
-2.62395e-09
3.6664e-08
-1.55632e-09
-1.89673e-09
2.04128e-08
3.26404e-10
2.50642e-09
-1.24913e-09
2.27998e-08
-2.98178e-09
-5.25402e-09
3.68789e-08
6.98522e-09
3.22404e-08
-6.14295e-10
-4.17771e-09
2.01042e-08
-5.477e-10
2.37205e-10
3.08285e-09
3.09394e-08
2.80984e-09
6.30897e-09
5.23889e-08
-3.35826e-09
4.78237e-08
1.64587e-09
3.53319e-08
-8.53804e-10
7.86542e-10
5.89514e-08
2.40869e-09
2.75588e-08
7.5126e-08
1.50815e-09
3.33391e-09
2.68919e-08
1.76939e-09
-4.05369e-10
1.30686e-09
2.57595e-08
-3.45648e-10
1.52406e-09
3.01691e-08
2.57875e-09
3.34035e-08
4.1451e-10
2.67764e-10
2.26008e-08
4.63593e-10
6.13899e-11
-3.01752e-10
2.47616e-08
8.26849e-10
9.43798e-10
3.66936e-08
2.26607e-09
3.72685e-08
-4.6784e-10
-2.11223e-09
2.28534e-08
9.87513e-11
3.96264e-10
-2.80852e-09
3.25819e-08
1.71394e-09
2.91743e-09
4.90975e-08
-4.15071e-09
6.13519e-08
5.44524e-10
3.25638e-08
-2.15155e-11
6.07194e-09
5.19385e-08
2.75789e-09
3.35761e-08
7.59671e-08
1.48717e-09
3.77668e-09
2.57112e-08
-1.30378e-09
3.11352e-10
2.48664e-09
2.62741e-08
-3.50094e-10
1.87321e-09
2.9531e-08
7.88637e-09
3.03448e-08
1.16278e-09
1.96679e-09
2.45806e-08
-1.33302e-09
7.04469e-10
3.03431e-10
2.7403e-08
2.78088e-10
2.13761e-09
3.68555e-08
3.82509e-09
4.60762e-08
8.35294e-10
-1.39633e-10
2.5191e-08
-1.0665e-09
3.32382e-09
-3.87466e-09
3.42712e-08
1.05731e-09
1.7782e-09
5.17232e-08
-4.80345e-09
7.65055e-08
2.48491e-10
3.29001e-08
-7.24407e-10
3.46682e-09
4.48453e-08
-1.03057e-10
3.8924e-08
7.17766e-08
1.11315e-09
1.72231e-10
2.1004e-08
1.07872e-09
1.94949e-10
-2.55891e-09
2.66924e-08
-4.45111e-10
-6.68055e-09
3.09106e-08
-1.15126e-08
3.31031e-08
-1.89283e-10
4.31444e-11
2.42319e-08
6.66812e-10
-2.13525e-09
-3.96405e-09
3.0754e-08
-3.97841e-09
-5.54561e-09
3.75635e-08
-1.45308e-08
4.30807e-08
-1.31642e-09
-1.67476e-09
2.75678e-08
6.57528e-10
-3.44102e-09
-3.68127e-09
3.61129e-08
-5.35058e-09
2.66806e-09
4.54188e-08
-3.1825e-09
5.41094e-08
-7.32085e-10
3.13267e-08
6.3094e-10
-9.67172e-10
4.1399e-08
-3.5365e-09
4.41614e-08
5.94834e-08
-4.26647e-11
-2.17346e-10
2.04318e-08
2.59859e-10
-2.44674e-10
-1.64213e-09
2.70722e-08
-4.37344e-10
-3.13501e-09
3.16694e-08
-4.60847e-09
3.42856e-08
-5.07396e-10
1.62186e-11
2.43222e-08
1.8338e-10
-1.12998e-09
-1.71031e-09
3.14447e-08
-1.48266e-09
-2.37236e-09
3.71535e-08
-4.65692e-09
4.13496e-08
-8.90666e-10
2.46756e-10
2.80466e-08
1.81555e-10
-1.60289e-09
-8.21242e-10
3.5936e-08
-1.74484e-09
5.94185e-10
4.25942e-08
-2.08472e-09
4.87077e-08
-8.60534e-10
3.22472e-08
1.86948e-10
-9.95154e-10
4.07123e-08
-1.77765e-09
4.55381e-08
5.38998e-08
3.80384e-11
-8.07208e-10
1.99527e-08
2.17401e-10
1.61167e-11
-1.22901e-09
2.71478e-08
-1.38337e-10
-1.75577e-09
3.21249e-08
-2.4056e-09
3.48511e-08
-1.02121e-10
-6.45409e-10
2.40407e-08
2.21701e-10
-2.90857e-10
-1.17828e-09
3.15827e-08
-5.39161e-10
-1.44887e-09
3.70949e-08
-2.50161e-09
4.0528e-08
-2.29451e-10
-5.90941e-10
2.80042e-08
2.17537e-10
-4.74752e-10
-9.36085e-10
3.59391e-08
-7.37097e-10
-4.33884e-10
4.18415e-08
-1.45916e-09
4.61878e-08
-2.30248e-10
3.16888e-08
1.97872e-10
-3.65125e-10
3.99112e-08
-7.2931e-10
4.54685e-08
5.07588e-08
-1.2071e-10
-4.42305e-10
1.99376e-08
1.27427e-10
-1.17873e-10
-6.9445e-10
2.72312e-08
-1.1809e-10
-9.16333e-10
3.22956e-08
-1.20772e-09
3.49903e-08
-2.03533e-10
-3.25295e-10
2.39896e-08
1.37688e-10
-2.53759e-10
-5.98727e-10
3.15372e-08
-2.74444e-10
-7.32198e-10
3.69314e-08
-1.1928e-09
3.99894e-08
-2.59964e-10
-1.12903e-10
2.79184e-08
1.33531e-10
-3.341e-10
-2.92055e-10
3.57066e-08
-3.69518e-10
-2.14852e-10
4.13595e-08
-6.30404e-10
4.48607e-08
-2.73787e-10
3.1725e-08
1.24867e-10
-3.24902e-10
3.96703e-08
-3.88117e-10
4.53169e-08
4.9254e-08
-5.75202e-11
-2.82239e-10
1.99129e-08
7.27578e-11
-4.58572e-11
-3.82858e-10
2.72569e-08
-3.72755e-11
-4.61086e-10
3.23616e-08
-5.89725e-10
3.50229e-08
-9.17771e-11
-2.26114e-10
2.39464e-08
7.89497e-11
-9.52468e-11
-3.36451e-10
3.14943e-08
-8.54162e-11
-3.88583e-10
3.68491e-08
-5.71917e-10
3.97411e-08
-1.14325e-10
-1.39046e-10
2.78669e-08
7.88669e-11
-1.28957e-10
-2.07094e-10
3.5592e-08
-1.29881e-10
-1.80392e-10
4.11523e-08
-3.46448e-10
4.42931e-08
-1.20333e-10
3.16324e-08
7.4061e-11
-1.35166e-10
3.94781e-08
-1.4082e-10
4.51423e-08
4.85172e-08
-3.57288e-11
-1.51725e-10
1.99047e-08
4.05119e-11
-2.09931e-11
-2.01898e-10
2.72611e-08
-6.54904e-12
-2.32544e-10
3.23799e-08
-2.87656e-10
3.50227e-08
-5.21394e-11
-1.2114e-10
2.39242e-08
4.39686e-11
-4.39117e-11
-1.75301e-10
3.14596e-08
-2.73005e-11
-1.98825e-10
3.67989e-08
-2.80626e-10
3.96152e-08
-6.35688e-11
-6.66321e-11
2.78324e-08
4.36363e-11
-5.77661e-11
-1.04874e-10
3.55159e-08
-4.29581e-11
-1.04414e-10
4.10432e-08
-1.76187e-10
4.40349e-08
-6.77071e-11
3.15922e-08
4.13218e-11
-6.36261e-11
3.93693e-08
-4.65642e-11
4.5021e-08
4.81624e-08
-1.8458e-11
-8.34478e-11
1.98995e-08
2.22403e-11
-7.08889e-12
-1.07521e-10
2.72591e-08
5.11101e-12
-1.20652e-10
3.23828e-08
-1.42934e-10
3.50166e-08
-2.57413e-11
-6.77018e-11
2.39109e-08
2.36397e-11
-1.61487e-11
-9.40089e-11
3.14365e-08
-3.38782e-12
-1.0399e-10
3.67695e-08
-1.3871e-10
3.95519e-08
-3.12085e-11
-3.90496e-11
2.78116e-08
2.33944e-11
-2.37146e-11
-5.71538e-11
3.54717e-08
-1.10336e-11
-5.8417e-11
4.0985e-08
-8.95418e-11
4.39096e-08
-3.28204e-11
3.15639e-08
2.21286e-11
-2.71212e-11
3.93065e-08
-1.35321e-11
4.4949e-08
4.79899e-08
-9.18601e-12
-4.55101e-11
1.98957e-08
1.21728e-11
-1.06016e-12
-5.77421e-11
2.72556e-08
7.93609e-12
-6.4043e-11
3.2381e-08
-7.29182e-11
3.50111e-08
-1.23095e-11
-3.70156e-11
2.39024e-08
1.25792e-11
-5.03493e-12
-5.03091e-11
3.14217e-08
4.34565e-12
-5.56004e-11
3.67517e-08
-6.94416e-11
3.95198e-08
-1.49387e-11
-2.13042e-11
2.77986e-08
1.23125e-11
-8.18432e-12
-3.06294e-11
3.54454e-08
8.45607e-13
-3.21872e-11
4.09526e-08
-4.50298e-11
4.38478e-08
-1.55274e-11
3.15468e-08
1.14615e-11
-9.49268e-12
3.92699e-08
2.52409e-13
4.49072e-08
4.79034e-08
-3.90375e-12
-2.53199e-11
1.98929e-08
6.46868e-12
1.38193e-12
-3.14925e-11
2.72525e-08
7.38183e-12
-3.46577e-11
3.23784e-08
-3.83131e-11
3.50072e-08
-5.46348e-12
-2.05277e-11
2.3897e-08
6.44467e-12
-5.17853e-13
-2.73004e-11
3.14126e-08
5.90009e-12
-3.01595e-11
3.67408e-08
-3.57536e-11
3.95033e-08
-6.69114e-12
-1.18731e-11
2.77905e-08
6.21767e-12
-1.95901e-12
-1.66326e-11
3.54301e-08
4.43103e-12
-1.77747e-11
4.09339e-08
-2.30282e-11
4.38172e-08
-6.75286e-12
3.1536e-08
5.75063e-12
-2.25078e-12
3.92488e-08
4.59027e-12
4.48826e-08
4.78604e-08
-1.51626e-12
-1.42318e-11
1.98908e-08
3.60766e-12
1.98397e-12
-1.7526e-11
2.725e-08
5.90515e-12
-1.9181e-11
3.2376e-08
-2.06679e-11
3.50046e-08
-2.17422e-12
-1.15102e-11
2.38933e-08
3.31469e-12
1.02985e-12
-1.5046e-11
3.14069e-08
5.11736e-12
-1.6626e-11
3.67341e-08
-1.89217e-11
3.94944e-08
-2.76671e-12
-6.62644e-12
2.77854e-08
3.10155e-12
4.14582e-13
-9.12123e-12
3.54211e-08
4.57857e-12
-9.89074e-12
4.0923e-08
-1.20385e-11
4.38015e-08
-2.59396e-12
3.15292e-08
2.74044e-12
5.63838e-13
3.92366e-08
5.04294e-12
4.48683e-08
4.78385e-08
-3.72228e-13
-8.26257e-12
1.98893e-08
1.96369e-12
1.91141e-12
-9.99045e-12
2.72481e-08
4.48048e-12
-1.08876e-11
3.23743e-08
-1.14739e-11
3.50028e-08
-6.50943e-13
-6.56258e-12
2.38909e-08
1.50168e-12
1.36195e-12
-8.46905e-12
3.14033e-08
3.94869e-12
-9.35072e-12
3.67299e-08
-1.02871e-11
3.94895e-08
-8.99142e-13
-3.74316e-12
2.7782e-08
1.37358e-12
1.10329e-12
-5.01557e-12
3.54155e-08
3.72874e-12
-5.48128e-12
4.09165e-08
-6.47993e-12
4.37931e-08
-7.02116e-13
3.15249e-08
1.16743e-12
1.41666e-12
3.92294e-08
4.35133e-12
4.48599e-08
4.7827e-08
1.264e-13
-4.74154e-12
1.98882e-08
1.00557e-12
1.62577e-12
-5.91925e-12
2.72468e-08
3.23027e-12
-6.40495e-12
3.23729e-08
-6.5515e-12
3.50016e-08
3.9961e-14
-3.74721e-12
2.38892e-08
5.7928e-13
1.2632e-12
-4.92424e-12
3.14008e-08
2.86652e-12
-5.40343e-12
3.67271e-08
-5.7377e-12
3.94865e-08
-6.73449e-14
-2.18145e-12
2.77798e-08
5.17665e-13
1.16907e-12
-2.91995e-12
3.54121e-08
2.83381e-12
-3.17893e-12
4.09124e-08
-3.51403e-12
4.37884e-08
1.00863e-13
3.1522e-08
3.84329e-13
1.47778e-12
3.9225e-08
3.35269e-12
4.48547e-08
4.78207e-08
3.38764e-13
-2.72855e-12
1.98874e-08
4.33862e-13
1.25129e-12
-3.4332e-12
2.72458e-08
2.30037e-12
-3.68861e-12
3.23719e-08
-3.64894e-12
3.50006e-08
3.02863e-13
-2.20881e-12
2.38881e-08
1.29959e-13
1.04587e-12
-2.85099e-12
3.13992e-08
2.02281e-12
-3.12247e-12
3.67253e-08
-3.23043e-12
3.94847e-08
2.49573e-13
-1.28474e-12
2.77783e-08
7.69673e-14
1.01662e-12
-1.71089e-12
3.541e-08
2.0476e-12
-1.86654e-12
4.09099e-08
-2.0045e-12
4.37856e-08
3.92419e-13
3.15202e-08
5.05238e-16
1.26856e-12
3.92223e-08
2.44119e-12
4.48516e-08
4.78171e-08
3.94206e-13
-1.509e-12
1.98869e-08
9.64911e-14
9.74487e-13
-1.91942e-12
2.72452e-08
1.62741e-12
-2.00845e-12
3.23712e-08
-2.0141e-12
3.5e-08
3.98281e-13
-1.24407e-12
2.38874e-08
-9.96761e-14
8.46106e-13
-1.58221e-12
3.13983e-08
1.4423e-12
-1.73445e-12
3.67242e-08
-1.78909e-12
3.94836e-08
3.76563e-13
-7.45823e-13
2.77774e-08
-1.3489e-13
8.38362e-13
-9.54959e-13
3.54087e-08
1.45611e-12
-1.06742e-12
4.09084e-08
-1.15716e-12
4.37841e-08
4.59765e-13
3.15191e-08
-1.82197e-13
1.01688e-12
3.92206e-08
1.72467e-12
4.48497e-08
4.78151e-08
4.88415e-13
-7.15846e-13
1.98866e-08
-1.53924e-13
8.6985e-13
-9.32021e-13
2.72448e-08
1.25531e-12
-9.388e-13
3.23708e-08
-9.80325e-13
3.49996e-08
4.86115e-13
-6.18942e-13
2.3887e-08
-2.61023e-13
7.7718e-13
-7.78425e-13
3.13977e-08
1.14301e-12
-8.57295e-13
3.67236e-08
-8.88711e-13
3.9483e-08
4.67186e-13
-3.8664e-13
2.77769e-08
-2.75886e-13
7.65503e-13
-4.97286e-13
3.5408e-08
1.13248e-12
-5.65761e-13
4.09076e-08
-6.01337e-13
4.37832e-08
5.14093e-13
3.15184e-08
-3.00688e-13
8.60015e-13
3.92197e-08
1.26682e-12
4.48486e-08
4.7814e-08
7.09078e-13
-2.3957e-13
-3.67433e-13
1.04129e-12
-3.54284e-13
1.35099e-12
-4.13944e-13
-4.36656e-13
6.84842e-13
-2.59939e-13
-4.19914e-13
9.72304e-13
-3.27606e-13
1.25712e-12
-3.84962e-13
-3.99321e-13
6.5073e-13
-1.64247e-13
-4.18497e-13
9.29371e-13
-2.0613e-13
1.21127e-12
-2.40187e-13
-2.63701e-13
6.48649e-13
-4.29613e-13
9.35803e-13
1.22033e-12
7.62076e-09
2.14579e-09
4.45633e-08
-1.10995e-08
6.41574e-10
6.93419e-08
3.57124e-09
2.62665e-09
1.98488e-08
4.62744e-09
3.17271e-08
-4.59798e-12
6.22701e-09
3.96301e-08
-3.82783e-09
4.79694e-09
4.07389e-08
2.49512e-09
2.69189e-09
3.03139e-08
6.11864e-09
3.30651e-08
-1.39591e-08
-4.75371e-09
6.48193e-08
-7.41657e-09
-1.83169e-09
3.50588e-08
1.86498e-09
2.24167e-09
2.24645e-08
-5.14717e-10
4.21357e-08
-2.56307e-09
2.95e-08
1.85471e-09
2.17815e-08
-4.67945e-09
3.22815e-08
1.3857e-08
1.70352e-09
-9.50641e-10
4.44245e-08
-2.51927e-09
-1.76092e-09
8.10357e-08
-2.58199e-11
-7.45091e-10
2.22182e-08
-2.12678e-09
3.53114e-08
-7.9914e-10
1.02817e-09
3.8476e-08
-2.1518e-09
-1.63749e-09
4.19681e-08
-6.7249e-09
-8.95161e-10
3.50371e-08
1.88364e-09
2.00427e-08
-1.15016e-08
-1.27269e-09
7.85605e-08
-3.34369e-10
2.21621e-09
2.00379e-08
-6.2869e-09
-1.01528e-09
2.85372e-08
2.69597e-09
3.31535e-08
2.91722e-09
2.71934e-08
-1.08337e-08
3.98379e-08
2.40889e-10
1.98367e-08
1.47649e-08
-2.63841e-09
-6.09671e-09
5.0272e-08
2.41125e-10
-2.15636e-09
8.61892e-08
-2.69024e-09
-1.95e-09
3.00018e-08
-5.35653e-09
4.64756e-08
9.91969e-09
1.3585e-09
2.18703e-08
-1.02955e-09
-5.41778e-10
5.13028e-08
-3.36316e-09
-1.65749e-09
3.70782e-08
6.03583e-10
9.41644e-09
1.11967e-08
2.89195e-09
6.70053e-08
-2.05177e-09
-1.97997e-09
3.47246e-08
4.48969e-10
-7.44265e-10
2.51232e-08
-1.74552e-09
3.89273e-08
-3.20995e-09
3.295e-08
4.96162e-10
3.27323e-08
-4.3151e-09
2.38132e-08
1.21516e-08
-9.87899e-09
2.28759e-10
5.68156e-08
2.17684e-09
2.38504e-09
6.49707e-08
-5.01128e-11
1.32542e-09
2.58394e-08
1.50188e-09
4.55099e-08
-7.28395e-09
-6.6184e-09
3.58776e-08
1.93519e-09
1.08678e-10
4.436e-08
2.92143e-10
-5.65546e-09
4.57021e-08
-1.89022e-09
1.7512e-08
1.45221e-08
1.7205e-09
4.47216e-08
3.51611e-11
-2.77912e-09
5.20993e-08
3.3516e-09
-3.0937e-10
1.64607e-08
-1.68652e-09
4.70494e-08
-4.44455e-09
3.8659e-08
3.7135e-09
2.11645e-08
1.92719e-09
2.4757e-08
1.26754e-08
3.6314e-09
-1.06146e-09
5.69963e-08
-4.33261e-09
-3.89087e-09
7.72879e-08
5.47e-10
-1.73039e-09
1.95422e-08
-2.23954e-09
4.52682e-08
-3.812e-09
-5.36862e-09
4.41063e-08
-1.86853e-09
-2.52239e-09
4.10481e-08
2.57516e-10
4.29914e-10
4.14157e-08
-1.82402e-09
1.89869e-08
6.24569e-09
-1.157e-09
3.46321e-08
4.41075e-09
-1.95924e-09
5.33711e-08
-2.76336e-09
-2.32817e-09
2.63929e-08
2.16856e-09
3.60172e-08
3.74726e-09