/*--------------------------------*- C++ -*----------------------------------*\
| =========                 |                                                 |
| \\      /  F ield         | OpenFOAM: The Open Source CFD Toolbox           |
|  \\    /   O peration     | Version:  2506                                  |
|   \\  /    A nd           | Website:  www.openfoam.com                      |
|    \\/     M anipulation  |                                                 |
\*---------------------------------------------------------------------------*/
FoamFile
{
    version     2.0;
    format      ascii;
    arch        "LSB;label=32;scalar=64";
    class       volVectorField;
    location    "0.05";
    object      Us;
}
// * * * * * * * * * * * * * * * * * * * * * * * * * * * * * * * * * * * * * //

dimensions      [0 1 -1 0 0 0 0];

internalField   nonuniform List<vector> 
1152
(
(0.000377282 0.000114193 0.000192141)
(0.000119891 6.28141e-06 0.000131272)
(9.50438e-05 3.07614e-05 0.000131453)
(2.86949e-05 0.000190073 0.000339326)
(0.00028382 0.00025113 0.000163868)
(0.000197393 0.000112977 4.81763e-05)
(0.000175297 9.12537e-06 0.000122883)
(0.000229769 -0.000199283 0.000178714)
(0.000232122 6.01277e-05 0.000106949)
(0.000163311 0.000190015 0.00021575)
(7.96773e-05 -5.00904e-05 0.000267603)
(-0.000101007 0.000118568 9.79777e-05)
(3.57677e-06 3.81606e-05 9.88466e-05)
(-0.000325113 -0.000130427 -0.00019839)
(3.17388e-05 -0.000167318 9.94022e-05)
(0.000158324 -0.000449964 0.000123528)
(0.000172042 -6.46785e-05 0.000621749)
(-1.17893e-05 -0.000377103 0.000299579)
(0.000238742 -4.13433e-05 0.000652117)
(-0.000282583 -6.62311e-05 0.00081963)
(0.000357373 0.000178318 0.000243236)
(6.95024e-05 -0.000320683 0.000368516)
(-0.000109717 4.16841e-05 0.000489369)
(-6.01152e-05 0.000203487 0.000771199)
(-4.35387e-05 0.000133784 0.00032552)
(-8.53924e-05 0.000121462 0.000690512)
(0.000160912 0.00019394 0.000541355)
(7.28431e-05 0.0001984 0.00058709)
(8.46682e-06 0.000258935 0.000667185)
(-0.000134067 1.77844e-05 0.000448212)
(-0.000321703 1.83123e-05 0.000899769)
(-4.1259e-05 -0.000172345 0.000679526)
(0.000358112 8.05374e-05 0.000900346)
(0.000439766 0.000124763 0.00099946)
(5.94098e-05 -0.000112916 0.000893103)
(-0.000143484 -0.000383888 0.001552)
(0.000411313 4.44625e-05 0.0010828)
(6.40819e-05 -0.000233607 0.00188823)
(-5.3212e-05 8.25685e-05 0.000793421)
(0.000342869 -0.0004997 0.00162987)
(-2.59686e-06 -0.000450003 0.000813862)
(5.75463e-05 -0.000278955 0.000761885)
(0.000243322 6.86694e-05 0.000676035)
(4.85714e-05 -0.000172531 0.00163633)
(-0.000211881 0.000343034 0.00123345)
(-7.82844e-05 -0.000315903 0.000821413)
(-0.000512518 -0.000494675 0.00129142)
(0.00024763 0.000125431 0.00120497)
(9.13875e-05 -9.90835e-05 0.0012824)
(0.000117352 -8.26228e-05 0.00116264)
(-0.000146329 0.00016816 0.001137)
(-0.000246777 -0.000718974 0.00174867)
(0.000216152 -0.000357209 0.00120502)
(7.60692e-05 -0.000516685 0.00163716)
(5.09203e-05 -0.000251586 0.000926505)
(-1.59061e-05 -0.000406293 0.00272227)
(0.000123441 -6.77382e-05 0.00109416)
(0.000187258 -0.000182931 0.00110899)
(0.000312542 -0.000278746 0.00118866)
(7.4933e-05 -0.000157911 0.00110912)
(0.000156653 3.52842e-05 0.00103635)
(0.000225474 2.54586e-05 0.00141632)
(0.000331525 -0.000176138 0.00107638)
(4.26284e-05 7.50078e-05 0.0011422)
(-0.000130364 2.07986e-05 0.00110215)
(-0.000135628 0.000115454 0.00137756)
(-0.000186486 6.12901e-06 0.00142044)
(-0.000236996 -2.96946e-05 0.00108822)
(-7.86744e-05 -1.31284e-05 0.00115494)
(-0.000272777 0.000270607 0.00134409)
(-4.26688e-05 6.57012e-06 0.00111809)
(-5.82085e-05 3.15696e-05 0.00121279)
(8.20889e-05 0.000180123 0.00111551)
(2.34648e-05 -0.000107052 0.00100068)
(-5.13436e-05 1.71858e-05 0.00107993)
(7.10832e-05 1.30869e-05 0.00118164)
(0.000211284 0.00015163 0.00128169)
(2.75519e-05 -7.50302e-05 0.000833297)
(7.4686e-05 4.65137e-06 0.000940604)
(2.97122e-05 8.18603e-05 0.00130033)
(-0.000145424 8.00163e-05 0.00121283)
(-0.000215044 0.000173238 0.00131194)
(-0.000122547 0.000114193 0.00127947)
(-0.000220555 -2.14595e-05 0.00103928)
(-0.000144564 0.000110009 0.00122353)
(-0.000124336 0.00017841 0.00131163)
(-0.000133878 0.000131465 0.00119438)
(-1.83227e-05 8.29074e-05 0.00103761)
(-0.000153045 0.00013241 0.00101868)
(-0.000125986 0.000193906 0.00106043)
(-0.000170855 0.000190523 0.00108493)
(-0.000183462 2.35723e-05 0.000986024)
(0.000167208 0.000155467 0.00102208)
(8.78294e-05 -0.000122357 0.000980488)
(-5.93258e-05 -6.11209e-05 0.000966984)
(-6.49339e-05 8.35269e-05 0.00105034)
(-0.000121758 0.000182331 0.001193)
(-0.000295315 0.00023475 0.00115394)
(-0.000293631 0.000140899 0.00135709)
(-0.000122485 0.000213674 0.00109138)
(-0.000117227 0.000186505 0.000973488)
(-0.0001423 0.000271831 0.00122474)
(-0.000114722 0.000260987 0.00118753)
(-0.0003761 0.000298162 0.000991535)
(-0.000357948 3.30633e-05 0.00123197)
(-0.000101351 5.77877e-05 0.000972964)
(-6.68006e-05 0.000204475 0.00116724)
(-0.0001914 0.000209249 0.000932496)
(-0.000301127 4.92438e-05 0.000886254)
(-0.000147803 1.76413e-05 0.000759249)
(-0.000309883 0.000100514 0.00102471)
(-8.86746e-05 8.60375e-05 0.00109098)
(0 0 0)
(0 0 0)
(0 0 0)
(0 0 0)
(0 0 0)
(0 0 0)
(0 0 0)
(0 0 0)
(0 0 0)
(0 0 0)
(0 0 0)
(0 0 0)
(0 0 0)
(0 0 0)
(0 0 0)
(0 0 0)
(0 0 0)
(0 0 0)
(0 0 0)
(0 0 0)
(0 0 0)
(0 0 0)
(0 0 0)
(0 0 0)
(0 0 0)
(0 0 0)
(0 0 0)
(0 0 0)
(0 0 0)
(0 0 0)
(0 0 0)
(0 0 0)
(0 0 0)
(0 0 0)
(0 0 0)
(0 0 0)
(0 0 0)
(0 0 0)
(0 0 0)
(0 0 0)
(0 0 0)
(0 0 0)
(0 0 0)
(0 0 0)
(0 0 0)
(0 0 0)
(0 0 0)
(0 0 0)
(0 0 0)
(0 0 0)
(0 0 0)
(0 0 0)
(0 0 0)
(0 0 0)
(0 0 0)
(0 0 0)
(0 0 0)
(0 0 0)
(0 0 0)
(0 0 0)
(0 0 0)
(0 0 0)
(0 0 0)
(0 0 0)
(0 0 0)
(0 0 0)
(0 0 0)
(0 0 0)
(0 0 0)
(0 0 0)
(0 0 0)
(0 0 0)
(0 0 0)
(0 0 0)
(0 0 0)
(0 0 0)
(0 0 0)
(0 0 0)
(0 0 0)
(0 0 0)
(0 0 0)
(0 0 0)
(0 0 0)
(0 0 0)
(0 0 0)
(0 0 0)
(0 0 0)
(0 0 0)
(0 0 0)
(0 0 0)
(0 0 0)
(0 0 0)
(0 0 0)
(0 0 0)
(0 0 0)
(0 0 0)
(0 0 0)
(0 0 0)
(0 0 0)
(0 0 0)
(0 0 0)
(0 0 0)
(0 0 0)
(0 0 0)
(0 0 0)
(0 0 0)
(0 0 0)
(0 0 0)
(0 0 0)
(0 0 0)
(0 0 0)
(0 0 0)
(0 0 0)
(0 0 0)
(0 0 0)
(0 0 0)
(0 0 0)
(0 0 0)
(0 0 0)
(0 0 0)
(0 0 0)
(0 0 0)
(0 0 0)
(0 0 0)
(0 0 0)
(0 0 0)
(0 0 0)
(0 0 0)
(0 0 0)
(0 0 0)
(0 0 0)
(0 0 0)
(0 0 0)
(0 0 0)
(0 0 0)
(0 0 0)
(0 0 0)
(0 0 0)
(0 0 0)
(0 0 0)
(0 0 0)
(0 0 0)
(0 0 0)
(0 0 0)
(0 0 0)
(0 0 0)
(0 0 0)
(0 0 0)
(0 0 0)
(0 0 0)
(0 0 0)
(0 0 0)
(0 0 0)
(0 0 0)
(0 0 0)
(0 0 0)
(0 0 0)
(0 0 0)
(0 0 0)
(0 0 0)
(0 0 0)
(0 0 0)
(0 0 0)
(0 0 0)
(0 0 0)
(0 0 0)
(0 0 0)
(0 0 0)
(0 0 0)
(0 0 0)
(0 0 0)
(0 0 0)
(0 0 0)
(0 0 0)
(0 0 0)
(0 0 0)
(0 0 0)
(0 0 0)
(0 0 0)
(0 0 0)
(0 0 0)
(0 0 0)
(0 0 0)
(0 0 0)
(0 0 0)
(0 0 0)
(0 0 0)
(0 0 0)
(0 0 0)
(0 0 0)
(0 0 0)
(0 0 0)
(0 0 0)
(0 0 0)
(0 0 0)
(0 0 0)
(0 0 0)
(0 0 0)
(0 0 0)
(0 0 0)
(0 0 0)
(0 0 0)
(0 0 0)
(0 0 0)
(0 0 0)
(0 0 0)
(0 0 0)
(0 0 0)
(0 0 0)
(0 0 0)
(0 0 0)
(0 0 0)
(0 0 0)
(0 0 0)
(0 0 0)
(0 0 0)
(0 0 0)
(0 0 0)
(0 0 0)
(0 0 0)
(0 0 0)
(0 0 0)
(0 0 0)
(0 0 0)
(0 0 0)
(0 0 0)
(0 0 0)
(0 0 0)
(0 0 0)
(0 0 0)
(0 0 0)
(0 0 0)
(0 0 0)
(0 0 0)
(0 0 0)
(0 0 0)
(0 0 0)
(0 0 0)
(0 0 0)
(0 0 0)
(0 0 0)
(0 0 0)
(0 0 0)
(0 0 0)
(0 0 0)
(0 0 0)
(0 0 0)
(0 0 0)
(0 0 0)
(0 0 0)
(0 0 0)
(0 0 0)
(0 0 0)
(0 0 0)
(0 0 0)
(0 0 0)
(0 0 0)
(0 0 0)
(0 0 0)
(0 0 0)
(0 0 0)
(0 0 0)
(0 0 0)
(0 0 0)
(0 0 0)
(0 0 0)
(0 0 0)
(0 0 0)
(0 0 0)
(0 0 0)
(0 0 0)
(0 0 0)
(-7.78544e-05 0.000393421 0.000247126)
(-0.000118666 -3.06845e-05 6.4831e-05)
(0.000112493 -0.00015718 -0.000299299)
(1.47783e-05 -0.000226887 0.000242829)
(-0.000311243 0.00047745 0.000149931)
(-4.55087e-05 -0.000150641 -5.24416e-06)
(-4.71521e-06 -0.000294077 0.00020604)
(9.79059e-05 -0.000268295 0.000127238)
(-0.000133066 5.96819e-05 0.000127436)
(-0.00020966 -1.38062e-05 -5.33638e-06)
(-0.000197554 -0.000183749 0.000124847)
(-1.35263e-05 -0.000181757 9.57872e-05)
(-0.000446606 -0.000488649 4.06689e-05)
(0.000154398 0.000126049 2.55922e-05)
(-0.000185661 -2.92376e-05 0.000163929)
(-3.12944e-05 -8.95724e-05 5.79781e-05)
(-0.000190593 0.000117469 0.00028219)
(-0.000118605 0.000278226 0.000374095)
(-0.000204195 -9.30961e-05 0.000670465)
(-8.26706e-06 -0.000349416 0.000685674)
(-0.000144801 0.000187356 0.000326046)
(-0.000350429 0.000472968 1.60672e-05)
(-0.000146533 1.40151e-05 0.000503357)
(-5.42259e-05 -0.000218746 0.000254927)
(-0.000757477 -1.76127e-05 0.000386503)
(-0.000258119 -0.000135554 0.000523965)
(-0.000185879 -9.76608e-05 0.000644937)
(-0.000260051 -0.000315759 0.000298802)
(-0.00060227 -0.000253612 2.35313e-05)
(0.000218013 0.000138892 0.000617884)
(-0.000127609 -0.000149747 0.000421932)
(0.00035696 -0.000207025 0.000278101)
(-0.000141404 0.000991302 0.00134654)
(8.73208e-05 -0.000302701 0.000897647)
(-0.000286154 -0.000278013 0.000828846)
(-4.41021e-05 8.72329e-05 0.000691467)
(-0.000148648 0.000384742 0.000646235)
(6.94156e-06 -4.2119e-05 0.00145879)
(-0.000216302 8.01211e-05 0.000816489)
(-4.16577e-05 -0.00017016 0.000518105)
(-6.15602e-05 0.000217216 0.000398727)
(0.000303278 0.000321255 0.00141089)
(0.000247519 0.000345768 0.000816855)
(-5.073e-05 -0.000189458 0.000733755)
(-0.000162912 -8.13561e-05 0.00047906)
(-0.00016562 -0.000139104 0.00214192)
(0.000561162 -4.53685e-05 0.00146021)
(0.000295616 9.88033e-05 0.000597551)
(0.000288449 -2.33694e-05 0.000559207)
(6.56201e-05 -0.000207234 0.000950756)
(-2.76192e-05 -6.47598e-05 0.000769032)
(0.00013769 -7.41934e-05 0.000811349)
(0.000374427 4.08694e-05 0.000500266)
(0.00036231 0.000121919 0.00145421)
(6.33141e-05 -0.000234833 0.000837711)
(0.000482878 8.78474e-05 0.00101917)
(-2.32884e-05 0.000190381 0.000583799)
(0.000378428 0.000664539 0.00128593)
(0.000339238 -0.000286309 0.000713154)
(-3.56063e-05 -0.000273841 0.000634173)
(-0.000100351 -5.91765e-05 0.000587871)
(0.000112833 7.67396e-05 0.000869809)
(0.000557661 4.82815e-05 0.00111104)
(-0.000163732 -0.000137334 0.00176863)
(0.000210741 -2.32141e-05 0.000892183)
(0.000162284 -0.000348303 0.000967156)
(-0.000342427 -0.000384996 0.00107637)
(-7.42365e-05 3.71952e-05 0.000886911)
(0.000120854 8.90486e-05 0.00082221)
(-0.000139392 -0.000334903 0.000796723)
(-0.000335262 -8.71857e-05 0.000874023)
(6.42556e-05 -7.18548e-05 0.000822159)
(-0.000129593 -9.22662e-05 0.000666401)
(0.000230221 4.59479e-05 0.000510802)
(0.000115854 2.05724e-05 0.000915589)
(0.000107989 -0.000164896 0.000907241)
(6.80268e-06 -4.72182e-05 0.000510076)
(1.85877e-06 0.000247332 0.00150755)
(0.00019909 0.000105854 0.000326084)
(8.55488e-05 6.9308e-06 0.000456562)
(0.000171875 -4.7755e-05 0.000601043)
(8.89872e-05 1.41536e-05 0.000413057)
(-0.00015887 1.93555e-05 0.000924632)
(-2.14889e-05 0.000125462 0.00101106)
(0.000127713 -0.000274882 0.000478254)
(0.000173369 -0.000228535 0.000405451)
(0.000141643 2.67254e-05 0.000668214)
(-8.59262e-05 -6.42845e-05 0.00083002)
(6.78885e-05 -0.000116996 0.000631254)
(0.000202706 -0.000158156 0.000336777)
(1.46831e-06 -0.000185046 0.000588051)
(-8.14532e-05 -0.000110656 0.000652783)
(0.000104802 -8.53687e-05 0.000367994)
(0.000154636 -1.52844e-05 0.000248964)
(9.99518e-06 -9.49127e-05 0.000154935)
(-0.00022943 -0.000133965 0.000457832)
(-6.74395e-05 6.4381e-05 0.0008523)
(-1.99012e-05 0.000218125 0.000596093)
(-0.000181599 -2.89768e-05 0.000908007)
(7.80249e-05 0.000126743 0.00107634)
(0.000288842 -5.35742e-05 0.000493458)
(-0.000117822 0.000233075 0.000310483)
(-1.32965e-06 0.000359088 0.00065207)
(-1.88682e-05 0.00016674 0.000506273)
(-9.95652e-05 -0.000167104 0.000334798)
(6.93821e-05 -3.60711e-05 0.000115176)
(-1.67986e-05 0.000435225 0.000485489)
(-0.000420017 9.20223e-05 0.000534726)
(0.000147335 0.000175194 0.00015164)
(0.000499038 -0.000248502 0.000103165)
(0.00280049 0.000912054 7.19878e-05)
(-0.000746369 0.000141668 0.000377447)
(0 0 0)
(0 0 0)
(0 0 0)
(0 0 0)
(0 0 0)
(0 0 0)
(0 0 0)
(0 0 0)
(0 0 0)
(0 0 0)
(0 0 0)
(0 0 0)
(0 0 0)
(0 0 0)
(0 0 0)
(0 0 0)
(0 0 0)
(0 0 0)
(0 0 0)
(0 0 0)
(0 0 0)
(0 0 0)
(0 0 0)
(0 0 0)
(0 0 0)
(0 0 0)
(0 0 0)
(0 0 0)
(0 0 0)
(0 0 0)
(0 0 0)
(0 0 0)
(0 0 0)
(0 0 0)
(0 0 0)
(0 0 0)
(0 0 0)
(0 0 0)
(0 0 0)
(0 0 0)
(0 0 0)
(0 0 0)
(0 0 0)
(0 0 0)
(0 0 0)
(0 0 0)
(0 0 0)
(0 0 0)
(0 0 0)
(0 0 0)
(0 0 0)
(0 0 0)
(0 0 0)
(0 0 0)
(0 0 0)
(0 0 0)
(0 0 0)
(0 0 0)
(0 0 0)
(0 0 0)
(0 0 0)
(0 0 0)
(0 0 0)
(0 0 0)
(0 0 0)
(0 0 0)
(0 0 0)
(0 0 0)
(0 0 0)
(0 0 0)
(0 0 0)
(0 0 0)
(0 0 0)
(0 0 0)
(0 0 0)
(0 0 0)
(0 0 0)
(0 0 0)
(0 0 0)
(0 0 0)
(0 0 0)
(0 0 0)
(0 0 0)
(0 0 0)
(0 0 0)
(0 0 0)
(0 0 0)
(0 0 0)
(0 0 0)
(0 0 0)
(0 0 0)
(0 0 0)
(0 0 0)
(0 0 0)
(0 0 0)
(0 0 0)
(0 0 0)
(0 0 0)
(0 0 0)
(0 0 0)
(0 0 0)
(0 0 0)
(0 0 0)
(0 0 0)
(0 0 0)
(0 0 0)
(0 0 0)
(0 0 0)
(0 0 0)
(0 0 0)
(0 0 0)
(0 0 0)
(0 0 0)
(0 0 0)
(0 0 0)
(0 0 0)
(0 0 0)
(0 0 0)
(0 0 0)
(0 0 0)
(0 0 0)
(0 0 0)
(0 0 0)
(0 0 0)
(0 0 0)
(0 0 0)
(0 0 0)
(0 0 0)
(0 0 0)
(0 0 0)
(0 0 0)
(0 0 0)
(0 0 0)
(0 0 0)
(0 0 0)
(0 0 0)
(0 0 0)
(0 0 0)
(0 0 0)
(0 0 0)
(0 0 0)
(0 0 0)
(0 0 0)
(0 0 0)
(0 0 0)
(0 0 0)
(0 0 0)
(0 0 0)
(0 0 0)
(0 0 0)
(0 0 0)
(0 0 0)
(0 0 0)
(0 0 0)
(0 0 0)
(0 0 0)
(0 0 0)
(0 0 0)
(0 0 0)
(0 0 0)
(0 0 0)
(0 0 0)
(0 0 0)
(0 0 0)
(0 0 0)
(0 0 0)
(0 0 0)
(0 0 0)
(0 0 0)
(0 0 0)
(0 0 0)
(0 0 0)
(0 0 0)
(0 0 0)
(0 0 0)
(0 0 0)
(0 0 0)
(0 0 0)
(0 0 0)
(0 0 0)
(0 0 0)
(0 0 0)
(0 0 0)
(0 0 0)
(0 0 0)
(0 0 0)
(0 0 0)
(0 0 0)
(0 0 0)
(0 0 0)
(0 0 0)
(0 0 0)
(0 0 0)
(0 0 0)
(0 0 0)
(0 0 0)
(0 0 0)
(0 0 0)
(0 0 0)
(0 0 0)
(0 0 0)
(0 0 0)
(0 0 0)
(0 0 0)
(0 0 0)
(0 0 0)
(0 0 0)
(0 0 0)
(0 0 0)
(0 0 0)
(0 0 0)
(0 0 0)
(0 0 0)
(0 0 0)
(0 0 0)
(0 0 0)
(0 0 0)
(0 0 0)
(0 0 0)
(0 0 0)
(0 0 0)
(0 0 0)
(0 0 0)
(0 0 0)
(0 0 0)
(0 0 0)
(0 0 0)
(0 0 0)
(0 0 0)
(0 0 0)
(0 0 0)
(0 0 0)
(0 0 0)
(0 0 0)
(0 0 0)
(0 0 0)
(0 0 0)
(0 0 0)
(0 0 0)
(0 0 0)
(0 0 0)
(0 0 0)
(0 0 0)
(0 0 0)
(0 0 0)
(0 0 0)
(0 0 0)
(0 0 0)
(0 0 0)
(0 0 0)
(0 0 0)
(0 0 0)
(0 0 0)
(0 0 0)
(0 0 0)
(0 0 0)
(0 0 0)
(0 0 0)
(0 0 0)
(0 0 0)
(0 0 0)
(0 0 0)
(0 0 0)
(0 0 0)
(0 0 0)
(0 0 0)
(0 0 0)
(0 0 0)
(0 0 0)
(0 0 0)
(0 0 0)
(0 0 0)
(0.000134622 -5.69508e-05 0.000165841)
(0.000126157 -0.000186844 0.000160016)
(0.000195274 -0.000239137 0.0001429)
(0.000312801 -6.87447e-05 3.45312e-06)
(0.000146265 -0.000195024 -0.000507456)
(9.21242e-05 -0.000155084 9.04249e-05)
(0.000225413 -0.000199804 0.000129195)
(0.000221882 -5.24844e-05 6.88039e-05)
(-8.38359e-05 -2.66954e-05 0.00012535)
(-0.000262173 2.64805e-05 -0.000140982)
(-1.81373e-05 2.05327e-05 6.73007e-05)
(0.000190786 0.0002969 9.23243e-05)
(-0.000534832 -0.000834118 -0.000313664)
(-0.000225757 -0.000268287 7.75668e-05)
(2.68368e-05 0.000101395 -0.000361648)
(0.00013498 0.000250323 -3.46373e-05)
(-5.99114e-05 -0.000366758 0.00032829)
(1.46188e-05 1.05653e-06 0.000473448)
(0.000253421 -2.59425e-05 0.000451323)
(0.000537281 0.000160227 0.000378208)
(-5.68104e-05 -0.000219993 0.00040337)
(0.000117658 -0.000129568 0.000197252)
(0.000120805 -3.0336e-05 0.000314145)
(0.000228053 0.000384917 0.000556329)
(-1.85345e-05 1.11848e-05 0.000576188)
(-1.17815e-05 -0.000215176 0.000517369)
(7.83029e-05 -7.80612e-05 0.000406045)
(0.00033913 0.000155645 0.000290687)
(-0.000195166 -0.000390662 -0.000413508)
(-0.000324191 -0.000241992 0.000441762)
(0.00010951 -0.000115755 0.000402074)
(5.12579e-05 0.000101851 0.000458499)
(0.000199477 -0.000575519 0.000480109)
(0.000150141 -8.12052e-05 0.000756825)
(0.000169693 5.77059e-05 0.000735993)
(0.000263805 -0.000172413 0.000660244)
(0.000331366 -0.000119372 0.000355942)
(0.00017047 -0.000232728 0.000499309)
(1.62239e-05 -0.000368847 0.00105458)
(0.000357518 -0.000144274 0.000743758)
(0.000588083 0.000183824 0.00182755)
(-3.57932e-05 -0.000146896 0.000711136)
(-0.000157099 -0.000211017 0.000993463)
(-0.000108096 -2.64642e-05 0.000796789)
(-0.000209052 -0.000192421 0.000375164)
(-0.000183102 -0.00012445 0.00111656)
(9.71719e-05 -0.000170948 0.000496594)
(-8.63347e-05 3.05692e-06 0.000511039)
(-9.34691e-06 -0.000221381 0.000526424)
(-4.96307e-06 -7.2743e-05 0.000588837)
(0.000189396 -0.00026279 0.000789851)
(8.23088e-05 -9.19198e-05 0.000748522)
(-0.000190348 -0.0004447 0.000792143)
(-0.000132691 -2.72749e-05 0.000713676)
(-6.25199e-05 -0.000502413 0.000897144)
(0.000125462 -0.000141322 0.000802981)
(0.000122081 -0.000235119 0.00125178)
(-8.3195e-06 -3.85104e-05 0.000769836)
(4.8332e-05 -0.000465956 0.00113952)
(-0.000149457 -0.000233656 0.00152)
(-0.000339238 -0.000189507 3.38463e-05)
(-9.0786e-05 0.000133659 0.000268409)
(0.000136765 0.000237779 0.000374129)
(0.00010802 6.51449e-05 0.000612586)
(0.000119037 -2.16937e-05 0.000644837)
(0.000128078 9.97295e-05 0.000700252)
(-5.22018e-05 -8.685e-05 0.000780883)
(-1.7662e-05 1.55277e-05 0.00094014)
(2.81843e-05 -5.99659e-05 0.000389627)
(0.000242476 -0.000116393 0.000549913)
(7.25958e-05 -2.30838e-05 0.00140954)
(-0.000101354 -4.24886e-06 0.00095899)
(5.39275e-05 -0.000223106 0.000619762)
(0.000217194 -5.8119e-05 0.000352559)
(0.000300481 -7.28641e-05 0.000644789)
(0.000244137 -1.76166e-05 0.000952087)
(2.43835e-05 -1.29969e-05 8.45187e-05)
(-1.99799e-05 -0.000173164 0.000275305)
(3.65451e-05 -8.11814e-05 0.000476799)
(0.000526732 0.000347305 0.000869977)
(-0.000135468 -9.3524e-05 0.000368929)
(-5.72327e-05 -3.77826e-05 0.000744935)
(-0.000145841 4.91362e-05 0.00083536)
(-0.000242816 6.01122e-05 0.00115312)
(-8.98813e-06 -5.86093e-05 0.000178063)
(-0.000175855 -0.00013982 0.000415431)
(-0.000110882 0.000102321 0.000576305)
(-0.000175895 5.26776e-06 0.000971822)
(4.25146e-05 6.05018e-05 0.000218107)
(-6.08783e-05 -1.53398e-05 0.000357417)
(-4.55385e-05 0.000144805 0.000778222)
(-3.75872e-06 0.000163422 0.000781915)
(-2.29732e-05 -7.81971e-05 0.00037629)
(7.13067e-05 -4.00162e-05 0.000437979)
(0.000113626 -6.61473e-05 0.000580016)
(5.17011e-05 -4.09353e-05 0.000581549)
(-8.51215e-05 -8.80559e-05 0.000275495)
(-6.52081e-05 4.01903e-05 0.000819679)
(-0.000535043 8.65095e-05 0.000740916)
(-0.000499109 0.000290966 0.00107422)
(-0.000398611 0.000197499 0.000157816)
(-0.00120868 -2.83805e-05 -0.000156917)
(-0.000450818 1.43791e-05 0.000583263)
(-0.000242219 0.000117218 0.000914083)
(1.1737e-05 -5.41581e-05 0.000478175)
(-0.00189353 -0.000636818 0.000161475)
(0.000248263 -0.000463619 0.000303958)
(-0.000436171 6.29665e-05 0.000870681)
(7.3156e-05 -7.62461e-05 0.00037651)
(2.37031e-05 -0.000113978 0.000367108)
(-0.00112219 -0.000140946 0.000575888)
(-0.00118186 -4.33322e-05 0.00058843)
(0 0 0)
(0 0 0)
(0 0 0)
(0 0 0)
(0 0 0)
(0 0 0)
(0 0 0)
(0 0 0)
(0 0 0)
(0 0 0)
(0 0 0)
(0 0 0)
(0 0 0)
(0 0 0)
(0 0 0)
(0 0 0)
(0 0 0)
(0 0 0)
(0 0 0)
(0 0 0)
(0 0 0)
(0 0 0)
(0 0 0)
(0 0 0)
(0 0 0)
(0 0 0)
(0 0 0)
(0 0 0)
(0 0 0)
(0 0 0)
(0 0 0)
(0 0 0)
(0 0 0)
(0 0 0)
(0 0 0)
(0 0 0)
(0 0 0)
(0 0 0)
(0 0 0)
(0 0 0)
(0 0 0)
(0 0 0)
(0 0 0)
(0 0 0)
(0 0 0)
(0 0 0)
(0 0 0)
(0 0 0)
(0 0 0)
(0 0 0)
(0 0 0)
(0 0 0)
(0 0 0)
(0 0 0)
(0 0 0)
(0 0 0)
(0 0 0)
(0 0 0)
(0 0 0)
(0 0 0)
(0 0 0)
(0 0 0)
(0 0 0)
(0 0 0)
(0 0 0)
(0 0 0)
(0 0 0)
(0 0 0)
(0 0 0)
(0 0 0)
(0 0 0)
(0 0 0)
(0 0 0)
(0 0 0)
(0 0 0)
(0 0 0)
(0 0 0)
(0 0 0)
(0 0 0)
(0 0 0)
(0 0 0)
(0 0 0)
(0 0 0)
(0 0 0)
(0 0 0)
(0 0 0)
(0 0 0)
(0 0 0)
(0 0 0)
(0 0 0)
(0 0 0)
(0 0 0)
(0 0 0)
(0 0 0)
(0 0 0)
(0 0 0)
(0 0 0)
(0 0 0)
(0 0 0)
(0 0 0)
(0 0 0)
(0 0 0)
(0 0 0)
(0 0 0)
(0 0 0)
(0 0 0)
(0 0 0)
(0 0 0)
(0 0 0)
(0 0 0)
(0 0 0)
(0 0 0)
(0 0 0)
(0 0 0)
(0 0 0)
(0 0 0)
(0 0 0)
(0 0 0)
(0 0 0)
(0 0 0)
(0 0 0)
(0 0 0)
(0 0 0)
(0 0 0)
(0 0 0)
(0 0 0)
(0 0 0)
(0 0 0)
(0 0 0)
(0 0 0)
(0 0 0)
(0 0 0)
(0 0 0)
(0 0 0)
(0 0 0)
(0 0 0)
(0 0 0)
(0 0 0)
(0 0 0)
(0 0 0)
(0 0 0)
(0 0 0)
(0 0 0)
(0 0 0)
(0 0 0)
(0 0 0)
(0 0 0)
(0 0 0)
(0 0 0)
(0 0 0)
(0 0 0)
(0 0 0)
(0 0 0)
(0 0 0)
(0 0 0)
(0 0 0)
(0 0 0)
(0 0 0)
(0 0 0)
(0 0 0)
(0 0 0)
(0 0 0)
(0 0 0)
(0 0 0)
(0 0 0)
(0 0 0)
(0 0 0)
(0 0 0)
(0 0 0)
(0 0 0)
(0 0 0)
(0 0 0)
(0 0 0)
(0 0 0)
(0 0 0)
(0 0 0)
(0 0 0)
(0 0 0)
(0 0 0)
(0 0 0)
(0 0 0)
(0 0 0)
(0 0 0)
(0 0 0)
(0 0 0)
(0 0 0)
(0 0 0)
(0 0 0)
(0 0 0)
(0 0 0)
(0 0 0)
(0 0 0)
(0 0 0)
(0 0 0)
(0 0 0)
(0 0 0)
(0 0 0)
(0 0 0)
(0 0 0)
(0 0 0)
(0 0 0)
(0 0 0)
(0 0 0)
(0 0 0)
(0 0 0)
(0 0 0)
(0 0 0)
(0 0 0)
(0 0 0)
(0 0 0)
(0 0 0)
(0 0 0)
(0 0 0)
(0 0 0)
(0 0 0)
(0 0 0)
(0 0 0)
(0 0 0)
(0 0 0)
(0 0 0)
(0 0 0)
(0 0 0)
(0 0 0)
(0 0 0)
(0 0 0)
(0 0 0)
(0 0 0)
(0 0 0)
(0 0 0)
(0 0 0)
(0 0 0)
(0 0 0)
(0 0 0)
(0 0 0)
(0 0 0)
(0 0 0)
(0 0 0)
(0 0 0)
(0 0 0)
(0 0 0)
(0 0 0)
(0 0 0)
(0 0 0)
(0 0 0)
(0 0 0)
(0 0 0)
(0 0 0)
(0 0 0)
(0 0 0)
(0 0 0)
(0 0 0)
(0 0 0)
(0 0 0)
(0 0 0)
(0 0 0)
(0 0 0)
(0 0 0)
(0 0 0)
(0 0 0)
(0 0 0)
(0 0 0)
(0 0 0)
(0 0 0)
(0 0 0)
(0 0 0)
(0 0 0)
(0 0 0)
(0 0 0)
(0 0 0)
(0 0 0)
(0 0 0)
(0 0 0)
)
;

boundaryField
{
    inlet
    {
        type            zeroGradient;
    }
    outlet
    {
        type            zeroGradient;
    }
    wall
    {
        type            zeroGradient;
    }
    procBoundary2to0
    {
        type            processor;
        value           nonuniform List<vector> 
192
(
(0.000189675 1.04063e-05 7.84273e-05)
(0.000217328 -1.24413e-05 5.38422e-05)
(0.00124478 0.000177242 -0.000638555)
(9.21929e-06 -6.29073e-05 0.000188539)
(-6.93194e-05 0.000204598 0.000714958)
(0.000102243 -0.000277227 0.000737415)
(0.000113391 -0.000269627 0.000595022)
(-0.000126747 -0.000144583 0.000483505)
(0.00056634 -4.56948e-05 0.00113451)
(0.000385086 0.000518996 0.0028336)
(9.37722e-05 -0.000141604 0.000971159)
(-4.81787e-05 -0.000118247 0.000988042)
(-0.000264219 -0.00037253 0.00200841)
(-0.000133908 -0.000121338 0.00137036)
(0.000220466 -8.48036e-05 0.00131304)
(-3.10304e-05 4.54191e-05 0.000888664)
(-0.000425865 0.000100018 0.00110598)
(-0.000212919 4.57099e-05 0.00120481)
(-9.37777e-05 0.000108193 0.00111024)
(-0.000167563 3.26269e-05 0.000748438)
(-0.000229864 0.000201946 0.00130646)
(-0.00031393 0.000103371 0.00121301)
(-0.000241593 7.71308e-05 0.00130226)
(-0.000168792 -0.00014012 0.0011481)
(-0.000298408 0.000146938 0.00140128)
(-0.000249404 0.000171614 0.00136178)
(0.000167521 -0.000190325 0.00107215)
(2.62761e-05 0.000235479 0.00112375)
(0 0 0)
(0 0 0)
(0 0 0)
(0 0 0)
(0 0 0)
(0 0 0)
(0 0 0)
(0 0 0)
(0 0 0)
(0 0 0)
(0 0 0)
(0 0 0)
(0 0 0)
(0 0 0)
(0 0 0)
(0 0 0)
(0 0 0)
(0 0 0)
(0 0 0)
(0 0 0)
(0 0 0)
(0 0 0)
(0 0 0)
(0 0 0)
(0 0 0)
(0 0 0)
(0 0 0)
(0 0 0)
(0 0 0)
(0 0 0)
(0 0 0)
(0 0 0)
(0 0 0)
(0 0 0)
(0 0 0)
(0 0 0)
(0 0 0)
(0 0 0)
(0 0 0)
(0 0 0)
(0 0 0)
(0 0 0)
(0 0 0)
(0 0 0)
(0 0 0)
(0 0 0)
(0 0 0)
(0 0 0)
(0 0 0)
(0 0 0)
(0 0 0)
(0 0 0)
(0 0 0)
(0 0 0)
(0 0 0)
(0 0 0)
(0 0 0)
(0 0 0)
(0 0 0)
(0 0 0)
(0 0 0)
(0 0 0)
(0 0 0)
(0 0 0)
(0 0 0)
(0 0 0)
(0 0 0)
(0 0 0)
(2.91182e-05 -3.94552e-05 2.95476e-05)
(7.10032e-05 -4.8993e-05 0.000109978)
(6.52313e-05 -0.000105835 0.00027115)
(0.000280471 -2.29532e-05 5.29904e-05)
(1.43257e-05 -0.000256781 0.000571441)
(-9.29296e-05 -1.66475e-05 0.000296457)
(4.59976e-05 -0.000104491 0.000457737)
(-2.21609e-05 -4.54418e-05 0.000300929)
(2.19846e-05 -0.000160451 0.000966377)
(-7.81735e-05 -0.000371445 0.000659333)
(-1.85967e-05 4.17706e-05 0.000816565)
(0.000160009 -2.30696e-05 0.000735028)
(6.98714e-06 -0.000281471 0.00112385)
(-4.82101e-05 4.05807e-05 0.000821036)
(7.84983e-05 0.000104613 0.00105035)
(6.63268e-05 -6.12502e-05 0.00109459)
(0.000170654 4.06576e-05 0.000633436)
(0.000153316 0.000104234 0.000734738)
(0.000181415 8.08896e-05 0.0012098)
(-0.000222728 -4.96832e-07 0.00144385)
(7.52244e-05 -7.86656e-05 0.000443049)
(5.23341e-05 -0.000150197 0.00078835)
(2.6793e-05 -4.73846e-05 0.00108332)
(-0.000245571 0.000146246 0.00125372)
(0.000354233 0.00040902 0.000239849)
(0.000286925 -0.000441959 0.000704697)
(-0.000240642 -9.47492e-05 0.000938972)
(-0.000135693 0.000284465 0.00131457)
(0 0 0)
(0 0 0)
(0 0 0)
(0 0 0)
(0 0 0)
(0 0 0)
(0 0 0)
(0 0 0)
(0 0 0)
(0 0 0)
(0 0 0)
(0 0 0)
(0 0 0)
(0 0 0)
(0 0 0)
(0 0 0)
(0 0 0)
(0 0 0)
(0 0 0)
(0 0 0)
(0 0 0)
(0 0 0)
(0 0 0)
(0 0 0)
(0 0 0)
(0 0 0)
(0 0 0)
(0 0 0)
(0 0 0)
(0 0 0)
(0 0 0)
(0 0 0)
(0 0 0)
(0 0 0)
(0 0 0)
(0 0 0)
(0 0 0)
(0 0 0)
(0 0 0)
(0 0 0)
(0 0 0)
(0 0 0)
(0 0 0)
(0 0 0)
(0 0 0)
(0 0 0)
(0 0 0)
(0 0 0)
(0 0 0)
(0 0 0)
(0 0 0)
(0 0 0)
(0 0 0)
(0 0 0)
(0 0 0)
(0 0 0)
(0 0 0)
(0 0 0)
(0 0 0)
(0 0 0)
(0 0 0)
(0 0 0)
(0 0 0)
(0 0 0)
(0 0 0)
(0 0 0)
(0 0 0)
(0 0 0)
)
;
    }
    procBoundary2to3
    {
        type            processor;
        value           nonuniform List<vector> 
192
(
(-2.16393e-05 0.000211467 0.000249464)
(-7.85239e-05 -0.000134843 0.000334948)
(0.000112698 -0.000281694 0.000227287)
(-4.54994e-05 -0.000155406 0.000164337)
(-0.000115219 -0.000684153 0.00105523)
(0.000257571 -6.73588e-05 0.000725468)
(0.000129267 -0.00028956 0.000878996)
(9.55922e-05 -0.000524912 0.000878442)
(-0.000391835 -0.000713471 0.00182967)
(-8.8216e-05 2.0693e-05 0.00153052)
(0.000455661 -0.000216403 0.00113928)
(0.000345642 -0.000353369 0.000604055)
(-2.2937e-05 -0.000414975 0.00126734)
(-0.000264016 -0.000464365 0.00113677)
(-0.000255004 -0.000318976 0.000997185)
(-0.000129428 -0.000230719 0.00104612)
(-0.000165433 -9.92507e-05 0.000883231)
(-3.89658e-05 -0.000142127 0.00106454)
(-0.000178553 8.45486e-06 0.000808397)
(-3.02993e-05 2.26219e-05 0.000951497)
(-0.000334624 -0.000229872 0.000815989)
(8.37138e-05 3.25676e-05 0.00083324)
(-0.000221265 0.000224343 0.000790928)
(-9.29887e-05 0.000202687 0.000965859)
(-3.27757e-05 -3.61777e-05 0.00104587)
(-0.000705888 -0.000599158 0.000172847)
(-0.000274231 0.000135722 0.000885885)
(-0.000368272 0.000407918 0.00102193)
(0 0 0)
(0 0 0)
(0 0 0)
(0 0 0)
(0 0 0)
(0 0 0)
(0 0 0)
(0 0 0)
(0 0 0)
(0 0 0)
(0 0 0)
(0 0 0)
(0 0 0)
(0 0 0)
(0 0 0)
(0 0 0)
(0 0 0)
(0 0 0)
(0 0 0)
(0 0 0)
(0 0 0)
(0 0 0)
(0 0 0)
(0 0 0)
(0 0 0)
(0 0 0)
(0 0 0)
(0 0 0)
(0 0 0)
(0 0 0)
(0 0 0)
(0 0 0)
(0 0 0)
(0 0 0)
(0 0 0)
(0 0 0)
(0 0 0)
(0 0 0)
(0 0 0)
(0 0 0)
(0 0 0)
(0 0 0)
(0 0 0)
(0 0 0)
(0 0 0)
(0 0 0)
(0 0 0)
(0 0 0)
(0 0 0)
(0 0 0)
(0 0 0)
(0 0 0)
(0 0 0)
(0 0 0)
(0 0 0)
(0 0 0)
(0 0 0)
(0 0 0)
(0 0 0)
(0 0 0)
(0 0 0)
(0 0 0)
(0 0 0)
(0 0 0)
(0 0 0)
(0 0 0)
(0 0 0)
(0 0 0)
(-0.000186471 -0.000463438 -0.000169598)
(0.000160296 -6.33528e-05 8.60246e-05)
(0.000179362 -7.16515e-05 0.000211521)
(-0.000210612 8.05241e-05 0.000135809)
(0.000318907 -0.00018608 0.000422499)
(0.000115879 -0.000201757 0.000403443)
(0.000326401 -0.000238507 0.000438765)
(0.000241772 5.16862e-05 0.00061766)
(0.000192314 -9.91996e-05 0.000527105)
(2.14164e-05 -0.000175952 0.00045212)
(-8.4003e-05 -0.000190702 0.000597412)
(-2.58069e-05 -3.62316e-05 0.000706698)
(-0.000142627 0.000356465 0.00144549)
(0.000102974 -0.000243003 0.000770433)
(-0.000383825 -5.96286e-05 0.00113938)
(-0.00103729 8.34332e-05 0.00100948)
(-1.07774e-05 0.000117669 0.00113082)
(0.000102587 -4.88363e-05 0.00098691)
(9.27647e-05 -0.000176167 0.000980931)
(-0.000295434 -7.29064e-05 0.000609138)
(-2.81904e-05 0.00036096 0.000894112)
(-0.000140696 0.000183619 0.000978231)
(8.0313e-05 3.21528e-05 0.000795574)
(-4.60825e-05 1.73133e-05 0.000304581)
(0.000105831 0.000162893 0.000962241)
(6.09271e-06 0.000583208 0.000892964)
(-0.00012933 0.000362526 0.00054189)
(-0.000170165 0.000372528 0.000210882)
(0 0 0)
(0 0 0)
(0 0 0)
(0 0 0)
(0 0 0)
(0 0 0)
(0 0 0)
(0 0 0)
(0 0 0)
(0 0 0)
(0 0 0)
(0 0 0)
(0 0 0)
(0 0 0)
(0 0 0)
(0 0 0)
(0 0 0)
(0 0 0)
(0 0 0)
(0 0 0)
(0 0 0)
(0 0 0)
(0 0 0)
(0 0 0)
(0 0 0)
(0 0 0)
(0 0 0)
(0 0 0)
(0 0 0)
(0 0 0)
(0 0 0)
(0 0 0)
(0 0 0)
(0 0 0)
(0 0 0)
(0 0 0)
(0 0 0)
(0 0 0)
(0 0 0)
(0 0 0)
(0 0 0)
(0 0 0)
(0 0 0)
(0 0 0)
(0 0 0)
(0 0 0)
(0 0 0)
(0 0 0)
(0 0 0)
(0 0 0)
(0 0 0)
(0 0 0)
(0 0 0)
(0 0 0)
(0 0 0)
(0 0 0)
(0 0 0)
(0 0 0)
(0 0 0)
(0 0 0)
(0 0 0)
(0 0 0)
(0 0 0)
(0 0 0)
(0 0 0)
(0 0 0)
(0 0 0)
(0 0 0)
)
;
    }
}


// ************************************************************************* //
