/*--------------------------------*- C++ -*----------------------------------*\
| =========                 |                                                 |
| \\      /  F ield         | OpenFOAM: The Open Source CFD Toolbox           |
|  \\    /   O peration     | Version:  2506                                  |
|   \\  /    A nd           | Website:  www.openfoam.com                      |
|    \\/     M anipulation  |                                                 |
\*---------------------------------------------------------------------------*/
FoamFile
{
    version     2.0;
    format      ascii;
    arch        "LSB;label=32;scalar=64";
    class       volScalarField;
    location    "0.05";
    object      voidfraction;
}
// * * * * * * * * * * * * * * * * * * * * * * * * * * * * * * * * * * * * * //

dimensions      [0 0 0 0 0 0 0];

internalField   nonuniform List<scalar> 
1152
(
0.42593
0.381163
0.407496
0.357463
0.47333
0.43383
0.420663
0.339029
0.428563
0.42593
0.444363
0.525997
0.452263
0.44963
0.439097
0.454897
0.415396
0.378529
0.41803
0.317962
0.39433
0.41013
0.423296
0.431196
0.412763
0.40223
0.354829
0.428563
0.41803
0.44173
0.396963
0.381163
0.444363
0.357463
0.399596
0.47333
0.462797
0.454897
0.354829
0.439097
0.38643
0.41803
0.446997
0.39433
0.46543
0.365363
0.407496
0.365363
0.420663
0.367996
0.396963
0.452263
0.415396
0.391696
0.396963
0.420663
0.331129
0.373263
0.38643
0.43383
0.365363
0.38643
0.396963
0.325862
0.349563
0.399596
0.412763
0.412763
0.396963
0.404863
0.389063
0.378529
0.354829
0.404863
0.396963
0.45753
0.43383
0.41013
0.439097
0.344296
0.475963
0.391696
0.383796
0.339029
0.404863
0.407496
0.346929
0.404863
0.404863
0.399596
0.44963
0.38643
0.510197
0.444363
0.41013
0.317962
0.633964
0.615531
0.599731
0.604998
0.697165
0.610264
0.568131
0.597097
0.702431
0.639231
0.562864
0.604998
0.705065
0.631331
0.510197
0.602364
1
1
1
1
1
1
1
1
1
1
1
1
1
1
1
1
1
1
1
1
1
1
1
1
1
1
1
1
1
1
1
1
1
1
1
1
1
1
1
1
1
1
1
1
1
1
1
1
1
1
1
1
1
1
1
1
1
1
1
1
1
1
1
1
1
1
1
1
1
1
1
1
1
1
1
1
1
1
1
1
1
1
1
1
1
1
1
1
1
1
1
1
1
1
1
1
1
1
1
1
1
1
1
1
1
1
1
1
1
1
1
1
1
1
1
1
1
1
1
1
1
1
1
1
1
1
1
1
1
1
1
1
1
1
1
1
1
1
1
1
1
1
1
1
1
1
1
1
1
1
1
1
1
1
1
1
1
1
1
1
1
1
1
1
1
1
1
1
1
1
1
1
1
1
1
1
1
1
1
1
1
1
1
1
1
1
1
1
1
1
1
1
1
1
1
1
1
1
1
1
1
1
1
1
1
1
1
1
1
1
1
1
1
1
1
1
1
1
1
1
1
1
1
1
1
1
1
1
1
1
1
1
1
1
1
1
1
1
1
1
1
1
1
1
1
1
1
1
1
1
1
1
1
1
1
1
1
1
1
1
1
1
1
1
1
1
1
1
1
1
1
1
0.496182
0.425487
0.537121
0.408616
0.459614
0.418323
0.444441
0.427367
0.427599
0.461609
0.454508
0.461951
0.503604
0.436883
0.485457
0.446992
0.478658
0.422277
0.409896
0.355993
0.44148
0.346306
0.370841
0.389782
0.387377
0.471354
0.429136
0.402607
0.433461
0.421663
0.437815
0.395092
0.382276
0.409439
0.40719
0.466251
0.394332
0.423863
0.361344
0.469375
0.430693
0.393397
0.443936
0.37887
0.433461
0.43036
0.418757
0.395092
0.404181
0.383763
0.363879
0.453722
0.44148
0.470951
0.401705
0.378727
0.430693
0.446992
0.456622
0.400629
0.457741
0.410792
0.416852
0.438044
0.465515
0.415858
0.442379
0.398593
0.339931
0.376775
0.375589
0.376516
0.350248
0.422631
0.471422
0.42041
0.430763
0.47167
0.350152
0.40762
0.364752
0.364505
0.377414
0.371029
0.434226
0.412784
0.401705
0.471586
0.390471
0.427503
0.443936
0.329416
0.438857
0.406444
0.397795
0.493524
0.728377
0.675833
0.645396
0.70932
0.669965
0.642684
0.731717
0.64625
0.67203
0.678427
0.670168
0.788341
0.66817
0.743445
0.716049
0.833561
1
1
1
1
1
1
1
1
1
1
1
1
1
1
1
1
1
1
1
1
1
1
1
1
1
1
1
1
1
1
1
1
1
1
1
1
1
1
1
1
1
1
1
1
1
1
1
1
1
1
1
1
1
1
1
1
1
1
1
1
1
1
1
1
1
1
1
1
1
1
1
1
1
1
1
1
1
1
1
1
1
1
1
1
1
1
1
1
1
1
1
1
1
1
1
1
1
1
1
1
1
1
1
1
1
1
1
1
1
1
1
1
1
1
1
1
1
1
1
1
1
1
1
1
1
1
1
1
1
1
1
1
1
1
1
1
1
1
1
1
1
1
1
1
1
1
1
1
1
1
1
1
1
1
1
1
1
1
1
1
1
1
1
1
1
1
1
1
1
1
1
1
1
1
1
1
1
1
1
1
1
1
1
1
1
1
1
1
1
1
1
1
1
1
1
1
1
1
1
1
1
1
1
1
1
1
1
1
1
1
1
1
1
1
1
1
1
1
1
1
1
1
1
1
1
1
1
1
1
1
1
1
1
1
1
1
1
1
1
1
1
1
1
1
1
1
1
1
1
1
1
1
1
1
1
1
1
1
1
1
1
1
1
1
1
1
1
1
1
1
1
1
0.454151
0.461951
0.378727
0.456228
0.416852
0.435479
0.401705
0.480276
0.491238
0.456737
0.432173
0.524984
0.44695
0.387377
0.503135
0.421705
0.362878
0.426344
0.341141
0.358499
0.464495
0.403764
0.408828
0.41531
0.499934
0.41045
0.404474
0.470421
0.430763
0.436882
0.405212
0.426086
0.446992
0.503491
0.418524
0.453722
0.353963
0.446051
0.411202
0.344931
0.473844
0.356855
0.404474
0.32599
0.42267
0.45854
0.412466
0.377895
0.411199
0.459973
0.418524
0.436181
0.38636
0.443936
0.423073
0.358465
0.449928
0.456737
0.335227
0.486469
0.452346
0.412129
0.423346
0.395419
0.439834
0.398651
0.356617
0.423652
0.41304
0.414336
0.43257
0.404483
0.402096
0.434812
0.390625
0.419068
0.438857
0.402847
0.405212
0.395419
0.441623
0.497557
0.38536
0.438687
0.43972
0.439708
0.411202
0.369293
0.40427
0.461609
0.426633
0.444744
0.395692
0.368812
0.358065
0.369133
0.753026
0.859553
0.805438
0.794519
0.761786
0.649024
0.703227
0.645396
0.699961
0.666246
0.695312
0.669414
0.61961
0.625619
0.688099
0.759044
1
1
1
1
1
1
1
1
1
1
1
1
1
1
1
1
1
1
1
1
1
1
1
1
1
1
1
1
1
1
1
1
1
1
1
1
1
1
1
1
1
1
1
1
1
1
1
1
1
1
1
1
1
1
1
1
1
1
1
1
1
1
1
1
1
1
1
1
1
1
1
1
1
1
1
1
1
1
1
1
1
1
1
1
1
1
1
1
1
1
1
1
1
1
1
1
1
1
1
1
1
1
1
1
1
1
1
1
1
1
1
1
1
1
1
1
1
1
1
1
1
1
1
1
1
1
1
1
1
1
1
1
1
1
1
1
1
1
1
1
1
1
1
1
1
1
1
1
1
1
1
1
1
1
1
1
1
1
1
1
1
1
1
1
1
1
1
1
1
1
1
1
1
1
1
1
1
1
1
1
1
1
1
1
1
1
1
1
1
1
1
1
1
1
1
1
1
1
1
1
1
1
1
1
1
1
1
1
1
1
1
1
1
1
1
1
1
1
1
1
1
1
1
1
1
1
1
1
1
1
1
1
1
1
1
1
1
1
1
1
1
1
1
1
1
1
1
1
1
1
1
1
1
1
1
1
1
1
1
1
1
1
1
1
1
1
1
1
1
1
1
1
)
;

boundaryField
{
    inlet
    {
        type            fixedValue;
        value           uniform 1;
    }
    outlet
    {
        type            fixedValue;
        value           uniform 1;
    }
    wall
    {
        type            zeroGradient;
    }
    procBoundary2to0
    {
        type            processor;
        value           nonuniform List<scalar> 
192
(
0.41013
0.544431
0.475963
0.42593
0.431196
0.38643
0.415396
0.360096
0.373263
0.483863
0.328496
0.383796
0.39433
0.478597
0.415396
0.49703
0.431196
0.354829
0.331129
0.370629
0.44173
0.428563
0.415396
0.352196
0.747198
0.602364
0.539164
0.599731
1
1
1
1
1
1
1
1
1
1
1
1
1
1
1
1
1
1
1
1
1
1
1
1
1
1
1
1
1
1
1
1
1
1
1
1
1
1
1
1
1
1
1
1
1
1
1
1
1
1
1
1
1
1
1
1
1
1
1
1
1
1
1
1
1
1
1
1
0.418358
0.410519
0.471586
0.468757
0.387933
0.418432
0.416313
0.41864
0.386144
0.376891
0.33893
0.441193
0.45773
0.353154
0.367672
0.411122
0.411199
0.396673
0.422946
0.408616
0.436254
0.414476
0.445055
0.446204
0.665332
0.762625
0.843024
0.754425
1
1
1
1
1
1
1
1
1
1
1
1
1
1
1
1
1
1
1
1
1
1
1
1
1
1
1
1
1
1
1
1
1
1
1
1
1
1
1
1
1
1
1
1
1
1
1
1
1
1
1
1
1
1
1
1
1
1
1
1
1
1
1
1
1
1
1
1
)
;
    }
    procBoundary2to3
    {
        type            processor;
        value           nonuniform List<scalar> 
192
(
0.573397
0.560231
0.341663
0.446997
0.499664
0.407496
0.328496
0.439097
0.38643
0.360096
0.40223
0.40223
0.281096
0.404863
0.41803
0.43383
0.286362
0.373263
0.38643
0.428563
0.533897
0.48123
0.365363
0.460163
0.462797
0.594464
0.589197
0.47333
1
1
1
1
1
1
1
1
1
1
1
1
1
1
1
1
1
1
1
1
1
1
1
1
1
1
1
1
1
1
1
1
1
1
1
1
1
1
1
1
1
1
1
1
1
1
1
1
1
1
1
1
1
1
1
1
1
1
1
1
1
1
1
1
1
1
1
1
0.463745
0.391992
0.497557
0.382564
0.431169
0.436211
0.422388
0.489944
0.358499
0.358828
0.390738
0.375406
0.355993
0.394203
0.434257
0.400461
0.421146
0.453899
0.323482
0.370037
0.511357
0.374305
0.438213
0.40762
0.53391
0.717
0.71515
0.774502
1
1
1
1
1
1
1
1
1
1
1
1
1
1
1
1
1
1
1
1
1
1
1
1
1
1
1
1
1
1
1
1
1
1
1
1
1
1
1
1
1
1
1
1
1
1
1
1
1
1
1
1
1
1
1
1
1
1
1
1
1
1
1
1
1
1
1
1
)
;
    }
}


// ************************************************************************* //
