/*--------------------------------*- C++ -*----------------------------------*\
| =========                 |                                                 |
| \\      /  F ield         | OpenFOAM: The Open Source CFD Toolbox           |
|  \\    /   O peration     | Version:  2506                                  |
|   \\  /    A nd           | Website:  www.openfoam.com                      |
|    \\/     M anipulation  |                                                 |
\*---------------------------------------------------------------------------*/
FoamFile
{
    version     2.0;
    format      ascii;
    arch        "LSB;label=32;scalar=64";
    class       volScalarField;
    location    "0.005";
    object      p;
}
// * * * * * * * * * * * * * * * * * * * * * * * * * * * * * * * * * * * * * //

dimensions      [0 2 -2 0 0 0 0];

internalField   nonuniform List<scalar> 
512
(
2.53906
4.58712
5.4009
4.93012
5.24771
7.60031
9.10266
7.46627
6.01497
4.46675
0.425839
-1.31115
0.860372
3.40037
3.52602
2.67217
2.43594
2.3233
2.06827
2.95502
3.08153
3.56992
6.45373
9.31854
7.63588
5.09468
4.09186
3.06182
1.78734
0.956228
0.278353
-0.11108
2.71557
5.37895
5.71742
4.6868
4.74082
7.54067
9.42425
7.4413
5.64216
4.28877
0.491479
-1.28582
0.604058
2.7147
2.95108
2.88249
3.00541
2.88243
2.96851
3.13202
2.99653
2.75248
5.26436
8.70809
7.56297
5.17886
4.42314
3.99657
2.65757
0.822141
-0.0771906
-0.290147
2.54688
5.61744
6.01289
4.90017
5.04367
8.19012
9.38259
6.38513
4.23198
3.04493
0.612877
-0.0566806
0.468107
1.49137
2.30128
3.29054
3.61059
3.07824
3.33276
3.73854
3.42334
2.75248
3.84157
6.6473
6.9184
5.22139
4.48599
4.3867
4.34181
1.92416
0.0372636
-0.259414
2.78001
5.2843
5.73867
5.02028
6.30322
8.88643
8.7409
5.1802
2.40828
0.489268
-0.415198
0.616559
1.07511
0.940399
1.56885
3.23149
3.84398
3.00129
3.21255
4.47662
3.91628
3.38225
3.60802
4.34967
5.01238
4.67702
4.36314
5.14738
5.61558
3.11702
1.14207
0.700052
4.95652
6.44614
5.89227
6.30799
8.10552
9.10474
6.63143
2.92189
1.30358
-0.51417
-1.4058
-0.115529
1.53899
1.47829
1.65182
2.64623
3.03899
4.00496
4.04587
3.70925
4.20223
3.71653
2.56131
2.91474
4.97913
5.46071
4.68333
5.22732
6.26677
4.48991
2.55427
2.6327
5.36279
6.59605
7.5311
8.29173
8.01218
6.91071
4.48458
1.04454
-0.297321
-0.845175
-1.16522
-0.37056
0.740953
1.46178
2.16976
3.17368
3.48909
3.53133
4.1557
4.60518
3.8346
1.62729
1.04631
2.35199
4.97529
5.88151
4.44325
4.42646
6.03321
6.30587
4.43139
4.38827
5.29439
6.88369
9.33021
10.2801
7.19408
4.91634
2.72941
0.0124433
-1.06791
-0.920623
-0.959935
-0.476882
0.637338
1.76772
2.52403
2.88146
3.22156
3.73718
4.68463
4.8801
2.97055
0.918041
0.522471
2.84214
5.20285
5.26512
3.50304
2.62575
4.95133
7.93291
7.90256
5.57087
5.44819
7.87056
10.9728
9.43228
5.90351
4.45778
2.69027
0.0701811
-1.29035
-0.965818
-0.712694
-0.388109
0.604076
2.22664
3.05388
2.9393
3.0487
3.66089
4.30309
4.13893
2.45913
1.11919
0.933138
2.93708
5.05011
3.9651
2.63202
3.14775
4.71353
7.00147
8.33054
5.99496
4.35244
6.74314
6.58176
5.08074
5.1246
8.09166
9.54165
6.94867
4.98337
3.49684
-0.389716
-2.31786
-0.296231
2.99336
4.28502
2.15034
0.953229
2.20146
2.81732
3.49438
4.25098
3.66732
4.29997
5.93149
6.22141
5.0775
5.04621
4.0304
1.83656
2.01359
1.84597
1.70842
3.72276
6.98513
7.11134
5.40687
5.32422
8.62158
9.76364
6.58885
3.90252
2.35759
-0.273304
-1.27924
-0.508124
2.34526
3.77832
2.39355
1.48601
2.15507
2.76963
3.51552
4.29849
3.27962
3.07783
4.82898
5.97624
5.62722
5.71369
4.53743
2.71908
2.40781
2.00355
1.24742
3.99603
7.131
6.48293
5.72744
6.3215
9.54959
10.165
5.91134
2.51703
1.60102
0.519649
-1.02213
0.0300862
1.75769
2.27509
2.19954
3.24975
3.35696
2.71569
3.10594
3.24113
2.7704
2.78117
4.24275
4.60834
4.87547
5.44752
5.58101
4.25408
3.12397
2.1059
1.41985
4.41783
6.34338
6.26305
5.96552
7.1408
9.33907
9.44977
4.8398
1.12453
-0.32391
-0.958241
0.0796444
1.10036
0.266538
0.470132
2.57897
3.32626
2.98631
3.02143
3.02863
2.73942
3.02415
3.79665
4.83002
4.34441
4.12393
4.94033
5.93011
5.85143
3.53757
2.3904
2.26641
5.16319
6.00659
6.46487
6.79309
7.746
8.20721
7.00243
3.58039
0.0899297
-0.487508
-1.08135
-0.925149
0.434563
1.15037
1.50894
1.85029
2.20846
2.80563
3.23881
3.32923
3.02561
3.34539
3.28372
4.17068
5.28952
5.41932
5.01016
5.35487
5.67336
4.52402
3.42692
4.06098
5.04602
5.94387
7.70652
9.24398
7.91294
5.45901
3.91208
2.33463
0.727368
-0.0499493
-0.511094
-1.08486
0.0418105
0.915491
1.14917
1.77625
2.55455
3.16064
4.0076
4.45733
3.51529
2.14411
1.86359
3.21663
5.09036
5.82709
4.24383
3.70536
5.46147
6.50448
5.39097
5.04955
4.79431
6.79966
9.81008
11.058
7.03992
3.60623
2.82741
2.31831
1.0247
0.23161
-0.689621
-1.63273
-0.209166
1.42976
2.13177
2.16225
2.57156
3.43972
4.29093
4.83394
3.0693
1.55371
1.12851
2.68169
4.67742
4.5722
3.65653
3.03996
4.59065
7.39498
7.88219
5.19559
5.29864
8.42602
10.6737
9.39504
6.85977
4.68221
3.31642
2.4128
0.718378
-0.268582
-1.20561
-1.8108
-0.0734582
2.0673
3.51513
2.67924
2.27357
3.37133
3.57018
2.91041
2.05254
1.81732
1.77482
2.65483
4.31148
4.02251
3.44539
3.77185
4.68335
6.26621
7.68193
5.63854
)
;

boundaryField
{
    wall
    {
        type            zeroGradient;
    }
    outlet
    {
        type            cyclic;
    }
    inlet
    {
        type            cyclic;
    }
    procBoundary1to0
    {
        type            processor;
        value           nonuniform List<scalar> 
256
(
0.394933
3.43657
6.00717
5.97589
5.22479
7.01754
9.03352
7.68128
4.81145
2.69795
1.5799
1.15523
1.51175
2.41456
3.17277
3.57645
3.87624
3.21548
3.01098
3.54306
3.20421
3.3531
6.38346
9.79679
9.07
5.97297
3.65161
2.79883
2.13808
0.166187
-1.5046
-2.27764
1.01164
3.59509
5.14046
5.1406
5.51196
7.80449
9.20763
7.29687
4.41658
2.39925
1.22929
0.88577
1.37354
2.13064
2.96875
3.68563
4.62252
4.36624
3.61395
3.61571
3.49355
3.32548
5.35912
8.7408
8.8664
6.08323
4.1275
3.82335
2.84076
-0.039771
-1.80069
-2.22147
1.33831
4.04253
5.50662
5.37646
5.62153
7.97799
8.91267
6.4069
3.46092
1.67605
0.765664
0.650475
0.907869
1.99346
3.20557
4.05801
4.25894
3.92674
4.21516
3.89531
3.9646
4.14068
4.64258
5.75165
6.87997
6.61465
4.49558
4.04295
3.50656
0.543218
-1.43673
-1.80563
1.9766
4.55488
4.99037
4.78135
6.37767
8.93631
8.44266
4.78101
2.07748
0.379466
-0.694077
-0.0633425
1.18294
2.31692
3.17463
3.96864
3.92073
3.62914
4.05477
4.61165
5.39911
4.91852
3.566
3.73793
5.71939
5.57266
3.86545
4.51142
4.96523
2.29931
0.000812377
-0.538294
2.9479
5.77244
6.37142
6.03305
7.31057
9.24068
6.70288
2.30568
-0.0527349
-0.480731
-0.362185
0.21111
1.19714
2.24035
3.1254
4.12651
3.93542
3.36518
4.23593
5.11029
5.5311
3.71079
1.97349
2.92458
5.02078
5.06892
4.20252
4.93933
6.19747
4.36233
1.87339
1.09358
4.96576
7.59342
8.03506
7.43279
7.7465
7.406
4.10846
-0.0195124
-1.73095
-1.14298
-0.268392
0.150552
0.837144
2.01171
3.056
4.16093
3.87558
3.19307
4.86383
6.14519
4.5846
1.91332
0.0604138
2.21497
5.25257
6.25181
4.50058
4.50474
6.0787
6.40026
3.97432
2.93431
5.98242
8.13613
9.08665
9.08
8.22512
5.66028
1.35411
-1.70572
-2.65845
-1.15061
-0.0717554
0.10643
0.737821
2.24558
3.4763
3.43118
3.11204
3.94262
5.51964
5.90897
3.5042
0.838362
-0.388572
2.34854
5.51546
5.81839
3.60688
2.44306
4.91813
7.60206
7.03529
5.35239
6.33907
8.30719
9.57993
9.32191
7.92848
5.36123
1.00436
-2.29884
-3.12185
-0.946447
0.703473
0.380952
0.658986
2.30099
3.44683
3.28932
3.27966
4.37157
5.45925
5.43558
3.0161
0.548923
-0.569186
2.09872
5.31129
4.46061
2.7166
2.82355
4.87677
6.6841
7.34919
6.08447
)
;
    }
    procBoundary1to2
    {
        type            processor;
        value           nonuniform List<scalar> 
256
(
6.02975
6.27795
4.73208
4.84095
7.28186
10.4981
10.5802
5.9382
2.48461
1.7833
0.199926
-1.10534
0.496494
2.30894
1.60273
0.393958
1.29238
2.67663
4.03798
4.10246
3.60744
3.3197
2.70609
3.30653
4.32715
4.53408
4.77857
5.0991
3.77649
2.83742
2.71569
3.50988
4.59809
5.24309
4.95621
5.98935
8.31066
10.9219
10.5306
5.55784
2.03589
0.867646
-0.486587
-0.558716
0.768104
2.06124
1.98326
1.11633
1.0692
2.41035
3.88241
4.40419
4.55801
3.08021
1.6214
2.97978
4.44285
4.81627
5.11656
5.08252
3.94811
3.86703
3.96072
3.7503
4.29464
5.41233
5.36249
6.3015
8.51958
10.9113
10.6416
5.1705
1.4779
1.23936
0.907654
-0.211821
-0.907907
0.0136709
1.51439
1.6984
1.81299
2.95548
3.67658
4.08649
3.97589
2.78172
1.69579
2.39856
3.27255
4.49559
5.88971
6.33565
4.80026
4.12363
3.66137
3.02137
5.61892
7.20599
6.32125
5.34756
6.75952
8.97318
10.0206
6.70653
1.9428
-0.373396
-1.69175
-1.10488
-0.0896061
0.68987
1.09317
1.85459
2.14131
2.11015
2.84519
3.79686
3.6659
3.06263
3.22243
3.46583
3.24862
4.11139
6.06884
6.93814
4.75959
3.09808
3.42493
4.08693
5.86258
6.2554
6.97361
6.61629
6.29019
6.37614
6.43283
6.21259
3.3087
0.0587513
-1.4661
-1.59909
-1.15716
0.453587
2.62177
2.55105
1.33172
1.49114
3.0581
3.71944
2.98979
3.11229
4.1364
4.39972
3.85995
4.72587
5.85381
5.74093
4.65256
3.84706
4.2297
5.72428
4.12806
6.60582
8.92773
9.28122
7.32635
5.00397
3.82223
4.00586
3.55437
0.436207
-1.4087
-1.34972
-0.194297
1.49287
2.01515
1.42011
1.69526
2.53292
3.02082
3.16994
2.74805
2.36231
3.12992
3.83664
4.16162
4.94773
4.53267
4.0237
5.38344
6.97361
5.90427
4.23123
4.29088
8.14054
10.5492
9.33074
6.56363
4.29113
2.92648
3.48511
3.91202
1.243
-1.27825
-1.72638
-0.0439871
1.36416
2.59232
1.88108
1.45099
3.41532
4.03298
3.24113
2.53762
1.93578
1.96686
2.62292
3.50021
3.77041
3.82933
4.10289
5.05507
6.75436
6.82294
4.67934
5.30052
8.75287
10.999
9.67171
7.15429
4.90287
3.08932
3.61332
3.08212
0.133066
-2.01924
-1.82672
0.464361
3.32431
3.85091
1.65232
1.46344
3.71208
3.90708
2.26974
1.66695
2.03563
2.2653
2.16425
2.9589
4.12761
4.53518
4.80503
4.92075
5.37306
5.37774
4.75183
)
;
    }
}


// ************************************************************************* //
