/*--------------------------------*- C++ -*----------------------------------*\
| =========                 |                                                 |
| \\      /  F ield         | OpenFOAM: The Open Source CFD Toolbox           |
|  \\    /   O peration     | Version:  2506                                  |
|   \\  /    A nd           | Website:  www.openfoam.com                      |
|    \\/     M anipulation  |                                                 |
\*---------------------------------------------------------------------------*/
FoamFile
{
    version     2.0;
    format      ascii;
    arch        "LSB;label=32;scalar=64";
    class       surfaceScalarField;
    location    "0.005";
    object      phi;
}
// * * * * * * * * * * * * * * * * * * * * * * * * * * * * * * * * * * * * * //

dimensions      [0 3 -1 0 0 0 0];

oriented        oriented;

internalField   nonuniform List<scalar> 
1200
(
0.0015158
6.58471e-06
2.76277e-05
0.00153317
-8.09401e-07
-2.38495e-05
0.00154775
-8.76143e-06
-1.87235e-05
0.00154112
-3.12907e-06
3.13152e-06
0.00153548
6.20117e-06
1.80323e-05
0.00153685
6.46317e-06
6.40459e-06
0.00155616
-7.93496e-06
-1.42957e-05
0.00157833
-5.4849e-06
-9.48807e-06
0.00158781
-2.15163e-06
8.83881e-07
0.00157829
-2.33454e-06
-3.71728e-06
0.00155409
2.52774e-06
-5.5773e-06
0.00154382
-2.30359e-07
2.27922e-06
0.00155601
-6.11897e-06
7.31146e-06
0.00156553
-6.29345e-06
-3.41762e-06
0.00156246
6.44236e-06
-2.23945e-05
0.00155258
8.28736e-06
-1.59116e-05
0.00153842
3.29885e-06
5.59525e-06
0.001525
3.40331e-06
7.97034e-06
0.00152858
-7.03886e-07
-2.51992e-07
0.00153711
-3.69586e-06
-1.51613e-06
0.0015372
-1.49875e-06
1.00146e-06
0.00155715
-5.06612e-06
-3.13141e-05
0.00157517
-6.25339e-06
-2.46628e-05
0.00157885
-2.49239e-06
-1.13028e-05
0.00156511
3.49699e-06
1.63198e-06
0.00155325
6.63908e-06
5.27544e-06
0.00154999
5.13222e-06
1.72397e-06
0.00154276
5.61769e-06
-1.75242e-06
0.00153464
1.35497e-06
1.31234e-05
0.00154338
-2.42693e-06
1.99803e-05
0.00155115
8.54388e-07
2.19728e-05
8.4273e-06
3.38111e-05
0.00157654
8.07449e-06
1.48138e-05
0.00157808
6.56298e-06
-5.12246e-06
0.00154964
8.10017e-07
-1.08303e-06
0.00152429
4.28973e-06
7.98949e-06
0.00153075
4.19747e-07
9.69379e-06
0.00155403
-7.83817e-06
-1.81959e-06
0.00157717
-1.39083e-05
-1.8526e-05
0.00160297
-9.24553e-06
-1.34386e-05
0.00160545
-1.07788e-06
5.00065e-06
0.00158926
1.39961e-06
-3.13744e-07
0.00156651
4.56251e-06
-3.55491e-06
0.00157152
-8.43115e-06
-2.33775e-06
0.00156944
-7.78485e-06
1.30032e-05
0.0015568
-1.24341e-06
1.79786e-06
0.00156538
6.26636e-06
-2.25529e-05
0.00157503
2.21365e-06
-2.11769e-05
0.00157368
-3.53594e-07
-3.21036e-06
0.00156595
6.41512e-06
1.53599e-06
0.00155585
6.45131e-06
5.56669e-06
0.00155463
-4.53101e-06
6.25188e-06
0.00155228
-1.77431e-07
2.80893e-06
0.00157469
-1.30689e-05
-3.09228e-05
0.00159443
-1.69456e-05
-2.35039e-05
0.00159749
-1.06796e-05
-5.01346e-06
0.00158135
6.6564e-06
4.93835e-06
0.00158669
1.24607e-06
-2.09473e-06
0.0015856
6.44256e-06
1.63791e-06
0.00156374
2.66073e-05
2.87902e-06
0.00154979
1.36323e-05
1.20101e-05
0.00156038
-7.76174e-06
2.13603e-05
0.00156551
-5.56459e-06
2.698e-05
5.0396e-06
2.21162e-05
0.00158051
2.71333e-06
9.34471e-06
0.00158561
5.68661e-06
1.17142e-06
0.00155232
2.19181e-05
7.59535e-06
0.00152539
1.90849e-05
1.66229e-05
0.00153172
-1.40824e-06
6.58806e-06
0.00155507
-2.19513e-05
-2.77342e-06
0.00157556
-1.8598e-05
-1.49546e-05
0.00161254
-2.02615e-05
-2.092e-05
0.00162917
-1.31705e-05
5.47788e-06
0.00162638
8.2862e-07
1.01931e-06
0.00161312
6.28493e-06
-3.72576e-06
0.00158994
-4.82029e-07
5.48784e-06
0.00158754
-6.94981e-06
-1.29604e-07
0.00158675
-2.25758e-08
-7.32048e-06
0.00159462
5.22444e-06
-1.68861e-05
0.00159271
4.20282e-07
-6.21704e-06
0.00158345
3.1529e-06
-3.37153e-06
0.00158282
1.03639e-05
-1.28551e-05
0.00156928
1.43493e-05
-4.62398e-06
0.00156067
-2.24209e-06
6.44826e-06
0.00154707
1.30099e-06
4.14924e-07
0.00156203
-1.81992e-05
-2.6605e-05
0.00160825
-3.75714e-05
-2.37795e-05
0.00160919
-2.45355e-05
-2.26595e-06
0.00157715
1.43729e-05
4.07424e-07
0.00157766
2.02183e-06
4.85377e-06
0.00159012
5.36013e-06
-2.07053e-06
0.0016154
1.77502e-05
1.36863e-06
0.00161229
2.07147e-05
1.57946e-05
0.00158595
4.27367e-06
3.04885e-05
0.00157647
1.60479e-07
2.22002e-05
8.07649e-06
1.64786e-05
0.00154909
6.8895e-06
1.92645e-05
0.00154898
1.27806e-06
7.73901e-07
0.00155346
1.43764e-05
1.06734e-06
0.00154893
2.2342e-05
3.67277e-06
0.00155144
-5.47464e-07
1.86805e-06
0.00158104
-3.85095e-05
-7.72749e-06
0.00159703
-1.85547e-05
-6.58367e-06
0.00160951
-1.82879e-05
-8.62104e-06
0.00161871
-1.62744e-05
2.4404e-06
0.00163093
-9.19816e-06
-5.83045e-07
0.00162476
1.57991e-06
3.08257e-06
0.00160888
6.56839e-06
2.00378e-06
0.00159869
-1.08826e-08
-6.04384e-06
0.00159229
6.41637e-08
-4.53009e-06
0.0015918
1.55019e-07
-5.31286e-06
0.00159569
5.20821e-07
-1.14546e-05
0.00159717
1.07046e-05
-8.13679e-06
0.00162723
-2.16097e-06
-1.17915e-05
0.00164671
1.34067e-07
-8.37527e-06
0.00161336
9.78381e-06
1.49175e-06
0.00160645
-3.84158e-06
-6.85816e-06
0.00161001
-1.57336e-05
-9.42041e-06
0.00158937
-9.89752e-06
-3.48097e-06
0.00157242
-1.08004e-05
-8.9617e-06
0.00157942
4.60453e-06
-4.30123e-06
0.00158771
-7.40252e-06
1.58745e-05
0.00158308
-1.38696e-07
1.46558e-05
0.00159791
1.09653e-05
-4.5668e-07
0.00160375
2.41566e-05
6.31286e-06
0.00158795
1.50473e-05
1.70241e-05
0.00157089
1.85104e-05
8.46888e-06
1.79009e-05
1.59028e-05
0.00160868
3.88023e-05
7.13537e-06
0.00155205
3.68297e-05
4.53425e-06
0.00155013
1.57453e-05
6.72786e-07
0.00158938
9.47557e-07
-5.10686e-06
0.00161998
-1.68223e-05
-1.33327e-05
0.00162677
-3.26843e-05
-1.51145e-05
0.00163703
-2.10592e-05
4.76445e-06
0.00163153
-1.01013e-05
5.45004e-06
0.0016009
3.05741e-07
1.20063e-05
0.00158295
-1.04512e-06
-1.10287e-06
0.00160521
-1.06525e-05
-1.52993e-05
0.00161949
-3.02073e-06
-2.97314e-06
0.00160665
8.31123e-06
-8.29222e-07
0.00159442
7.63846e-06
-7.49856e-06
0.00158944
-1.69645e-07
-8.50336e-06
0.00159257
-4.4419e-06
-8.44258e-07
0.00161976
-3.9896e-06
-6.22106e-06
0.00161229
6.28364e-06
-6.45824e-06
0.00158411
1.24889e-05
-2.20462e-06
0.00160763
-1.2353e-05
-4.80628e-06
0.00161528
-1.41479e-05
-3.96406e-06
0.00158788
-5.93673e-06
1.18751e-05
0.00157169
1.51569e-07
7.28515e-06
0.00156952
-9.28704e-07
-3.28883e-06
0.00157985
-2.44825e-06
-2.43623e-06
0.00156868
-2.82983e-06
1.26131e-05
0.00156973
-1.17607e-06
6.26187e-06
0.00159985
-1.10141e-05
-3.78e-06
0.00160458
2.00934e-05
1.15302e-05
0.00160556
1.51334e-05
1.05815e-05
0.00164582
-4.81253e-06
1.49633e-06
1.68921e-05
9.16772e-06
0.00162263
2.33291e-05
-2.48205e-06
0.00160119
4.54493e-05
1.03592e-05
0.00158388
2.88155e-05
1.54181e-05
0.00161888
-2.29464e-05
-1.62596e-05
0.00164453
-2.87835e-05
-2.4364e-05
0.00164259
-2.08577e-05
-6.9969e-06
0.00162765
-1.34308e-05
2.28602e-05
0.00161276
-5.17448e-06
2.21537e-05
0.00159301
3.20044e-06
1.89324e-05
0.00157925
4.29357e-06
-1.5543e-06
0.00157742
-2.29831e-06
-1.50543e-05
0.00157765
-1.90548e-06
8.29909e-07
0.00158373
9.21894e-07
2.0051e-06
0.00158557
2.92452e-06
-7.79363e-06
0.00157674
8.65193e-07
-1.15126e-05
0.00157235
-8.59365e-08
-1.52835e-06
0.00156864
-1.02629e-06
2.67787e-06
0.00157475
-3.6344e-07
-6.73e-06
0.00159543
7.73076e-07
-1.47881e-05
0.00160043
-7.80172e-06
-2.19911e-06
0.00159254
-9.14572e-06
5.14227e-07
0.00157772
-7.44185e-06
1.42585e-05
0.00156024
3.00893e-06
1.39933e-05
0.00157248
-6.76714e-06
-5.43793e-06
0.00160123
-1.38914e-05
-2.27961e-05
0.00159329
4.82029e-06
4.91949e-06
0.00160487
-1.18331e-05
2.93367e-06
0.00159976
-4.24551e-06
7.42069e-07
0.00158788
2.78393e-05
4.65345e-06
0.00157051
2.82582e-05
-1.6295e-07
0.00157458
-8.91856e-06
-2.35477e-06
-1.08529e-05
-2.55099e-06
0.00159293
9.69433e-06
-8.30884e-06
0.00163393
1.21496e-05
-5.72434e-07
0.00167689
6.39696e-06
-1.10588e-06
0.00166537
-5.23132e-06
-1.0496e-05
0.00165159
-2.43224e-06
-9.2415e-06
0.0016397
-1.98198e-06
9.80737e-06
0.00161387
-5.73832e-06
3.29772e-05
0.00159748
-3.88378e-06
2.65745e-05
0.00158222
2.72311e-06
1.83332e-05
0.00158432
4.01479e-06
-7.93472e-06
0.00159204
6.27278e-07
-1.56971e-05
0.00158959
8.83114e-07
5.85848e-07
0.00158348
6.73395e-07
7.00652e-06
0.00158179
-1.95931e-07
-2.14755e-06
0.00158031
-6.91618e-07
-9.58786e-06
0.00158568
-2.19556e-06
-3.70263e-06
0.00158223
-8.40892e-07
1.92035e-06
0.00157675
-1.90126e-06
2.11379e-07
0.00158462
-5.27072e-06
-6.715e-06
0.00158681
-1.46526e-06
-1.28028e-06
0.00157543
1.76074e-07
5.14171e-06
0.00156894
-5.10657e-06
5.67811e-06
0.00157373
-1.55617e-07
-2.44507e-06
0.00156972
9.34093e-07
-4.9105e-06
0.00155588
1.71677e-06
-3.82816e-06
0.00155645
2.33368e-06
4.47721e-06
0.00155349
-1.22188e-05
1.01113e-05
0.00156766
-1.65085e-05
-2.4898e-06
0.00160139
-6.08157e-07
-1.12784e-05
0.00160398
3.46982e-05
-1.38014e-05
0.00158618
3.82527e-06
-2.89768e-06
-1.3105e-05
-5.86007e-06
0.00155028
-1.38905e-05
0.001573
-1.83556e-05
0.00157394
1.83811e-07
0.00155679
1.51322e-05
0.00158618
-2.62832e-07
0.00160943
5.94713e-06
0.00158542
3.34844e-05
0.00156411
2.59746e-05
0.00155769
9.76181e-06
0.00156411
-1.24484e-05
0.00157571
-1.3653e-05
0.00157611
3.05239e-06
0.00156855
7.29293e-06
0.00156171
4.97806e-06
0.00156361
-9.28664e-06
0.00157116
-1.27753e-05
0.00156415
1.59302e-08
0.00155642
-4.78007e-06
0.00155193
-1.53651e-05
0.00155835
-1.75139e-06
0.00156587
3.28481e-06
0.00156494
8.59949e-06
0.00156185
2.61608e-06
0.00156104
-3.00107e-06
0.00155721
4.31772e-07
0.0015578
2.37691e-06
0.00153922
1.8353e-05
0.00151273
1.10142e-05
0.00152025
-1.47808e-05
0.00157211
-2.1788e-05
0.00156176
-1.80014e-07
2.84484e-06
0.00158801
4.49747e-06
0.00157487
2.18089e-06
0.00153509
8.09088e-06
0.00150132
1.00292e-05
0.00150375
6.02953e-06
0.00153407
2.69166e-08
0.00155558
-1.05498e-05
0.00157827
-8.54868e-06
0.00158315
-1.03274e-06
0.00157391
3.62435e-06
0.00156089
5.48915e-06
0.00157712
-6.69432e-06
0.00160601
-6.2169e-06
0.00162231
-3.51655e-06
0.00159298
2.04191e-07
0.0015613
4.41983e-06
0.00156603
1.14637e-06
0.00157007
-2.28378e-06
0.00156937
-4.95164e-06
0.00156163
2.79116e-07
0.00155009
7.72384e-07
0.0015517
-2.6454e-06
0.0015765
-3.49872e-06
0.00158711
1.26795e-06
0.00157766
4.474e-06
0.00158624
3.98941e-07
0.00157706
3.2447e-06
0.0015396
4.83866e-06
0.0015292
-8.33243e-07
0.00154315
-4.45734e-06
0.00154621
-7.42047e-07
4.89285e-06
0.00159758
2.5013e-06
0.00159751
-2.75299e-06
0.00155215
2.2212e-05
0.00151916
1.80193e-05
0.00151636
4.10568e-06
0.00154462
-3.95365e-06
0.00156121
-1.57636e-05
0.00158922
-2.47032e-05
0.00161092
-7.47209e-06
0.00162569
-6.54071e-06
0.00162381
-5.91741e-07
0.001611
1.33896e-06
0.0016414
-9.92697e-06
0.00165747
-1.10136e-05
0.00161697
8.41304e-06
0.00157788
1.60443e-05
0.00158111
-1.5173e-06
0.00157747
-4.16629e-06
0.0015749
1.14834e-07
0.00158066
9.63666e-07
0.00157529
1.32417e-06
0.0015539
1.10589e-07
0.00156308
-7.62506e-06
0.00158704
-7.47327e-06
0.00158712
3.82411e-06
0.00159031
1.51106e-06
0.00157876
9.29495e-06
0.00154689
1.64477e-05
0.00153753
4.7486e-06
0.0015497
-4.74139e-06
0.00155508
-6.70022e-07
6.41428e-06
0.00157214
4.78028e-06
0.00155575
3.9423e-06
0.00154635
1.54251e-05
0.00155133
1.3596e-05
0.00155187
2.3425e-06
0.00159028
-1.96316e-05
0.00160045
-2.0352e-05
0.00158363
-1.68535e-05
0.00160353
-1.75368e-05
0.00160107
2.41335e-06
0.00159235
8.60221e-06
0.00161338
-8.34543e-06
0.00162743
-1.89618e-05
0.00161056
-2.00896e-06
0.00158772
1.37e-05
0.00161616
-2.22511e-06
0.00161074
-1.89148e-06
0.00156201
1.56132e-05
0.00154044
7.77404e-06
0.00155345
-4.84222e-06
0.00154694
4.55759e-06
0.0015387
2.36733e-06
0.00154439
-1.09025e-05
0.00155772
-1.34807e-05
0.00156734
-3.34714e-06
0.00156528
3.62695e-06
0.00156238
6.39825e-06
0.00154928
2.23688e-05
0.00155
6.79704e-06
0.00155856
9.12094e-07
0.00155513
7.01897e-06
8.25862e-06
0.00159161
5.98476e-06
0.00158676
1.24094e-05
0.00158518
1.52982e-05
0.00158095
1.26954e-05
0.00160321
-1.64809e-05
0.00161694
-3.44374e-05
0.00159438
-5.40429e-06
0.00157902
-1.18654e-08
0.00157488
7.83067e-07
0.00158538
-4.32284e-06
0.00161513
-9.95615e-06
0.00160836
-1.5784e-07
0.00157756
6.00825e-07
0.00157765
-1.05649e-05
0.00159904
-8.34289e-06
0.00159846
2.54908e-06
0.00158377
5.18342e-06
0.0015788
8.42852e-06
0.00157064
8.02915e-06
0.00157099
1.62805e-06
0.00157119
7.26423e-07
0.00158315
-5.94876e-06
0.00157847
-3.00215e-06
0.00156197
-5.7077e-06
0.00155259
-2.65889e-06
0.00156772
-4.58387e-06
0.00160001
-1.12352e-05
0.0016211
6.47224e-06
0.00159335
2.84065e-05
0.00158487
5.18991e-06
0.00158099
1.1236e-05
1.30664e-05
0.00162144
2.25618e-05
0.00159593
3.65241e-05
0.00158428
2.90068e-05
0.0016107
-1.35929e-05
0.00163782
-5.21573e-05
0.00162118
-3.50063e-05
0.00159857
6.5294e-06
0.00159884
9.37714e-06
0.00162182
-3.03465e-07
0.00161795
8.10696e-07
0.00160658
-1.5799e-05
0.00162668
-1.24318e-05
0.00160947
5.00561e-06
0.00156375
4.25891e-06
0.00154524
1.14756e-07
0.00155787
5.03278e-07
0.00156202
-1.18638e-07
0.00155568
7.45108e-06
0.00154573
1.50724e-05
0.00154809
9.39232e-07
0.00156041
-5.10884e-06
0.00156316
-9.78413e-07
0.00157172
-4.06125e-06
0.00158008
-1.47879e-05
0.00157446
-2.19039e-06
0.00158214
-5.74065e-06
0.00158957
-6.65793e-06
0.00161161
-5.53402e-06
0.00161543
2.61256e-05
0.00159498
9.70805e-06
0.00160779
-6.99144e-06
9.59357e-06
0.00159947
1.70995e-05
0.00163734
1.82777e-05
0.00168112
7.15798e-06
0.00166915
-1.45551e-05
0.00160222
-1.36495e-05
0.001556
-3.21468e-06
0.00156687
3.76679e-06
0.00159188
-8.35853e-07
0.00161209
-2.39743e-06
0.00160104
-1.23739e-06
0.00156766
-2.24598e-06
0.00155513
-1.43502e-06
0.00154502
7.23212e-06
0.00152771
1.30009e-05
0.00153289
-6.13804e-07
0.00154859
-8.0415e-06
0.00155579
-2.23578e-06
0.00156253
5.95913e-06
0.00157245
3.93161e-06
0.00158172
-7.97029e-06
0.00157938
-4.61902e-06
0.00158585
-6.05022e-06
0.00159825
-8.67702e-06
0.00160667
-1.43886e-05
0.00159505
-6.14275e-07
0.00157679
4.93578e-06
0.00156885
-4.82037e-06
0.00156957
-6.55136e-06
0.0015806
1.98995e-05
0.00157137
2.20728e-05
0.00157529
-9.94146e-06
-5.11487e-06
0.00159426
2.73287e-06
0.00163605
-2.80962e-06
0.00166367
-2.35655e-06
0.00162056
1.24419e-05
0.00158501
7.14665e-06
0.00158991
7.68947e-07
0.00160972
1.0576e-06
0.00161991
-3.90026e-07
0.0016293
1.28382e-07
0.00160867
8.15558e-07
0.00158047
5.13221e-06
0.00156831
4.95457e-06
0.00156593
3.38658e-06
0.00155337
1.20049e-05
0.00154888
2.53592e-06
0.00155014
-6.75319e-06
0.00154661
-1.3331e-06
0.00156347
-6.63967e-06
0.00158985
-1.41273e-05
0.00158062
-1.2785e-06
0.00157359
2.49475e-06
0.00157141
-2.84391e-06
0.00157461
-9.93256e-06
0.00157583
-5.29035e-06
0.00156978
3.18249e-06
0.00157503
6.10593e-06
0.00155198
-1.59357e-06
0.00154908
-1.86313e-05
0.00159114
-8.76304e-06
0.00160891
2.181e-05
0.00158608
7.58451e-06
-7.88053e-06
0.00155018
0.0015391
0.0015406
0.0015607
0.00156972
0.00158141
0.00160134
0.00161518
0.00162332
0.00160211
0.00158639
0.00158445
0.00158192
0.00160174
0.00159764
0.00157819
0.00157641
0.00157184
0.00156076
0.00156628
0.00157933
0.00158061
0.00156801
0.0015559
0.00155324
0.00155561
0.00154973
0.00152389
0.0015234
0.00156143
0.00156527
)
;

boundaryField
{
    wall
    {
        type            calculated;
        value           uniform 0;
    }
    outlet
    {
        type            cyclic;
        value           nonuniform List<scalar> 
16
(
0.00153539
0.00156913
0.00157162
0.00156073
0.00165083
0.00161116
0.00157855
0.00153067
0.00156216
0.0015672
0.00156845
0.00158882
0.00163011
0.00159243
0.00157885
0.00155494
)
;
    }
    inlet
    {
        type            cyclic;
        value           nonuniform List<scalar> 
16
(
-0.00153539
-0.00156913
-0.00157162
-0.00156073
-0.00165083
-0.00161116
-0.00157855
-0.00153067
-0.00156216
-0.0015672
-0.00156845
-0.00158882
-0.00163011
-0.00159243
-0.00157885
-0.00155494
)
;
    }
    procBoundary1to0
    {
        type            processor;
        value           nonuniform List<scalar> 
256
(
-1.46225e-05
7.29705e-06
1.29038e-05
6.62197e-06
-1.85891e-05
-1.42357e-05
2.92078e-06
-7.20493e-06
-8.20566e-06
1.55703e-05
2.72495e-05
8.22302e-06
-1.33853e-05
1.88125e-07
1.90278e-05
1.75063e-05
5.26399e-06
2.04053e-06
-2.62035e-06
-3.32237e-06
4.15543e-07
1.6427e-05
1.28979e-05
1.01084e-05
8.61782e-06
-5.78984e-08
-3.59365e-06
3.3656e-06
-6.35876e-06
-2.62931e-05
-3.0605e-05
-2.64779e-05
-2.37128e-05
-3.78886e-06
1.99456e-05
9.94491e-06
-1.03708e-05
-7.15897e-06
1.35847e-06
-8.60261e-06
-8.54982e-06
1.27692e-05
2.42648e-05
5.52902e-06
-9.25868e-06
5.79848e-06
1.41406e-05
1.75999e-05
8.21697e-06
3.18776e-06
-2.62535e-06
-4.19823e-06
-1.78121e-06
1.65205e-05
1.44475e-05
1.01453e-05
8.03926e-06
2.14763e-06
-1.85266e-06
-2.01222e-06
-1.03333e-05
-2.66198e-05
-2.56939e-05
-2.23426e-05
-1.28718e-05
-5.39694e-06
4.58648e-06
-4.4943e-06
-1.10905e-05
-6.4565e-06
-8.45658e-07
-5.04603e-06
-1.00163e-05
2.34013e-06
1.52685e-05
9.74174e-06
1.69157e-06
6.89325e-06
1.00521e-05
9.92195e-06
9.12404e-06
9.53623e-06
1.02682e-05
-1.25776e-07
1.17102e-05
1.67668e-05
-1.80597e-06
1.51814e-05
2.391e-05
-6.1366e-06
-9.30743e-06
-1.77926e-05
-1.97666e-05
-1.61877e-05
-1.84441e-05
-1.46601e-05
-1.17992e-05
3.7484e-06
1.99304e-06
-2.39449e-06
-5.24787e-06
-5.31024e-06
-9.44649e-06
-5.83625e-06
-8.53482e-06
-1.61463e-06
7.79761e-06
6.82227e-06
9.29825e-06
1.08425e-05
1.08688e-05
7.46786e-06
-9.00405e-07
-5.73757e-06
3.10682e-06
1.98392e-05
1.89029e-05
3.39907e-06
-3.55614e-06
1.21835e-05
7.06904e-06
-1.47428e-05
-4.52541e-06
-7.59132e-06
-1.5598e-05
-1.19936e-05
-9.75758e-06
-1.5574e-05
3.09798e-06
1.65497e-05
-1.25536e-07
-1.27462e-05
-9.9299e-07
2.50065e-06
-1.25177e-05
-8.13707e-06
2.04372e-06
1.08973e-05
5.27395e-06
-1.72499e-06
5.35259e-06
1.21543e-05
1.38018e-05
2.68515e-06
-6.27499e-06
5.47859e-06
1.80352e-05
3.4219e-06
6.6165e-06
5.72477e-06
-1.14468e-06
-4.4088e-06
-8.4175e-07
-6.01695e-06
-6.27043e-06
-4.36062e-06
-1.21999e-05
-1.16443e-05
-1.84313e-05
-1.31721e-05
6.48425e-06
2.45799e-06
-1.11769e-05
5.15404e-06
1.06725e-05
-2.88644e-06
-1.55531e-05
-1.21914e-05
-2.07617e-06
9.98031e-06
8.53003e-06
-2.17723e-06
-6.9807e-07
1.06725e-05
1.93035e-05
1.56165e-06
-1.92666e-06
7.26232e-06
5.82669e-06
-7.35716e-06
2.37222e-06
2.06796e-06
6.32303e-07
-9.59345e-07
5.48648e-06
-4.63066e-06
-3.85965e-06
-2.39922e-06
-5.19151e-07
4.4145e-06
2.38258e-06
-6.27612e-06
7.5558e-06
-7.11911e-06
-1.94443e-05
4.31028e-06
-3.32995e-06
-1.67935e-05
-1.48415e-05
-1.14805e-05
-2.59279e-06
6.11017e-06
5.05166e-06
-9.20976e-07
-6.46536e-07
6.95304e-06
1.26304e-05
4.36632e-07
1.3479e-06
6.80872e-06
4.88782e-06
-7.24435e-06
-3.08294e-06
-1.52553e-06
8.20913e-07
1.22025e-06
2.05882e-06
-2.5687e-06
-6.76313e-06
5.85575e-07
5.99365e-06
4.77079e-06
7.95808e-06
1.57434e-05
3.97975e-06
7.78822e-06
5.27176e-06
-3.21257e-06
-3.15641e-05
-3.11799e-05
-1.52113e-05
-8.55051e-06
-6.16923e-07
1.0041e-05
2.68384e-06
-2.57135e-06
9.46143e-07
1.65916e-06
6.70304e-06
3.03002e-06
6.14497e-06
1.06141e-05
1.45864e-05
-6.13651e-06
-1.06328e-05
-1.27726e-05
3.1669e-07
4.74664e-06
5.11871e-06
-6.38464e-07
-1.19916e-05
-1.03198e-06
6.64805e-06
4.63216e-06
1.43527e-05
1.51367e-05
)
;
    }
    procBoundary1to2
    {
        type            processor;
        value           nonuniform List<scalar> 
256
(
-2.71967e-06
-1.2885e-05
1.29651e-05
2.68676e-05
9.57381e-06
-2.3936e-05
-2.52544e-05
-2.36372e-05
-2.96319e-06
1.90561e-06
1.94511e-06
-7.25218e-06
-1.53608e-05
-1.61986e-05
6.73167e-06
1.13463e-05
-2.8014e-07
6.21053e-06
5.40546e-06
5.93573e-06
1.17728e-05
-3.02816e-05
-4.59628e-05
-2.31806e-05
6.60661e-06
-3.70091e-06
7.66357e-06
3.08628e-05
2.43571e-05
1.04856e-05
1.96623e-05
1.29609e-05
-1.35688e-05
-1.21094e-07
3.01541e-05
3.29939e-05
1.44142e-05
-2.61016e-05
-2.98989e-05
-2.52967e-05
-1.02527e-05
-4.92305e-06
4.40678e-06
2.43862e-06
-1.36844e-05
-6.77747e-06
9.73685e-06
6.29153e-06
-3.77852e-06
7.05951e-06
3.07269e-06
-1.9045e-07
7.6257e-06
-1.22918e-05
-2.85535e-05
-2.02389e-05
5.51367e-06
-6.39662e-06
7.13491e-06
2.31404e-05
1.57921e-05
9.47227e-06
2.15206e-05
8.47927e-06
3.37633e-06
1.08611e-05
2.37833e-05
1.60713e-05
7.8097e-06
-2.55133e-05
-2.05304e-05
-1.19513e-05
-4.36004e-06
-5.47311e-06
-4.20219e-06
-5.85412e-06
-5.14835e-06
5.4424e-07
6.74639e-07
-1.63888e-05
2.42388e-06
1.60893e-05
9.28644e-06
-7.56895e-07
3.69749e-06
-2.06264e-05
-2.61935e-05
-9.58339e-06
-2.04289e-06
4.79718e-06
3.72498e-06
8.55164e-06
1.30285e-05
1.62688e-05
1.79422e-05
1.31883e-06
1.52743e-05
-2.84099e-06
2.76949e-06
8.80448e-06
-1.56926e-06
-6.64726e-06
1.02552e-06
-1.00997e-05
-1.1737e-05
-4.34949e-06
-8.10885e-06
5.85757e-07
5.19449e-06
3.93218e-06
-4.65772e-06
-1.5651e-05
-5.22025e-07
3.66394e-07
-4.71426e-07
-5.32742e-06
-3.23103e-06
-1.30579e-05
-6.70845e-06
-2.34302e-07
4.3962e-06
8.95745e-06
-7.05282e-09
-5.64496e-06
1.24537e-05
2.12194e-05
8.13888e-06
3.25617e-06
-7.70647e-07
5.92316e-06
-1.37809e-06
-5.24614e-06
-4.77024e-06
2.09035e-06
1.54448e-05
-4.21155e-06
-9.88791e-06
-2.3661e-06
1.91526e-06
-1.08021e-05
1.19778e-05
2.33947e-05
1.54951e-06
-1.14232e-05
-5.07581e-06
8.57603e-07
7.06127e-07
-6.48005e-06
-1.04431e-05
4.14857e-06
-2.12753e-07
-2.56538e-06
2.70871e-06
6.09379e-06
-5.74098e-06
-1.38154e-05
9.9918e-06
2.65086e-05
6.91088e-06
-9.67216e-06
-4.06048e-06
-9.26967e-06
-6.5052e-06
-3.32846e-06
4.05317e-06
7.43754e-06
1.47446e-05
7.36527e-06
8.0979e-07
1.15488e-05
4.76955e-06
2.3673e-06
9.88943e-06
7.69849e-07
-1.59673e-05
-8.67707e-06
-2.40337e-06
-1.1985e-05
-1.35648e-05
-2.56291e-06
2.36527e-06
1.28606e-05
6.21391e-06
-1.42606e-05
-1.27488e-05
1.24968e-05
9.0346e-06
1.04856e-06
-1.55851e-07
-3.29219e-06
-3.32822e-06
-4.98189e-06
-9.351e-06
-2.12695e-05
-1.9215e-05
5.62139e-06
5.51158e-06
9.19264e-07
1.58799e-05
1.59347e-05
6.42317e-06
1.06386e-05
5.1208e-06
6.36009e-06
1.32333e-05
1.14113e-05
-8.2489e-06
-6.25088e-06
4.54384e-06
-4.04435e-06
-1.50441e-05
1.25898e-06
5.06059e-06
4.6561e-06
-4.39832e-06
-1.52243e-05
-1.57492e-06
-1.94529e-06
2.99403e-05
1.24903e-05
-2.4675e-05
-3.13151e-05
2.40636e-06
4.13395e-06
-6.39649e-06
-1.00825e-05
-3.67587e-06
7.47628e-06
-2.14084e-06
-4.96984e-06
1.46089e-05
1.17471e-05
1.75035e-06
9.57639e-06
7.19981e-06
9.94132e-06
1.32179e-05
-2.83967e-06
-2.65736e-06
-7.52174e-08
4.68128e-07
-6.85782e-06
-1.84052e-05
-8.55513e-06
-7.26358e-06
4.47548e-06
5.27751e-06
3.81921e-06
6.27752e-06
6.10888e-06
2.26454e-05
1.82151e-05
-2.30542e-05
-3.80039e-05
3.56825e-06
5.29024e-06
)
;
    }
}


// ************************************************************************* //
