/*--------------------------------*- C++ -*----------------------------------*\
| =========                 |                                                 |
| \\      /  F ield         | OpenFOAM: The Open Source CFD Toolbox           |
|  \\    /   O peration     | Version:  2506                                  |
|   \\  /    A nd           | Website:  www.openfoam.com                      |
|    \\/     M anipulation  |                                                 |
\*---------------------------------------------------------------------------*/
FoamFile
{
    version     2.0;
    format      ascii;
    arch        "LSB;label=32;scalar=64";
    class       volVectorField;
    location    "0.005";
    object      U;
}
// * * * * * * * * * * * * * * * * * * * * * * * * * * * * * * * * * * * * * //

dimensions      [0 1 -1 0 0 0 0];

internalField   nonuniform List<vector> 
512
(
(10.2137 0.041811 0.181002)
(10.0118 -0.000642019 -0.0314523)
(9.85377 -0.0337114 -0.131609)
(9.95266 -0.0407259 -0.0771153)
(10.1211 0.0272989 0.0339849)
(10.0064 0.0491111 0.00806918)
(9.78405 -0.00940446 -0.0380047)
(9.89851 -0.017341 0.0184812)
(9.82889 -0.00648926 0.0581076)
(9.57774 -0.00273832 -0.0809082)
(9.88732 -0.00119811 -0.122043)
(10.2164 -0.00159633 0.00454582)
(10.1402 -0.0126406 0.0697179)
(9.89421 -0.0311181 -0.000887407)
(9.91297 0.0167582 -0.105582)
(9.98214 0.0350036 -0.108048)
(9.99 0.02143 -0.0211854)
(10.0174 0.0243509 -0.0325338)
(10.0777 -0.000163294 -0.03748)
(9.9672 -0.0170611 0.00472923)
(9.95814 -0.0323723 0.0302838)
(10.1322 -0.0406034 -0.12455)
(10.1535 -0.0359175 -0.123498)
(9.71911 -0.0065282 -0.0714021)
(9.72697 0.0178528 -0.00712917)
(9.95131 0.0297508 0.043354)
(9.91023 0.0289359 0.0197748)
(9.76921 0.00491328 -0.077003)
(9.89078 -0.0145226 0.0181445)
(9.9305 -0.0159436 0.151337)
(10.0494 -0.0126504 0.177302)
(10.2605 0.030191 0.19544)
(10.3302 0.0636799 0.144551)
(10.0268 0.0253038 0.123186)
(9.93302 -0.0329333 -0.0306399)
(10.1124 -0.0290949 -0.0383204)
(10.2546 0.0248583 -0.00134268)
(10.1555 0.0179335 -0.0371227)
(9.87408 -0.060245 -0.0783624)
(9.98459 -0.0434408 -0.0160183)
(9.91776 -0.0200593 0.0487013)
(9.65307 0.00281918 -0.0427233)
(9.9639 0.0337504 -0.0651121)
(10.2883 -0.0251183 -0.00261643)
(10.2051 -0.0578232 0.0601378)
(10.0637 -0.0273222 -0.0240007)
(10.1078 0.0339111 -0.100233)
(10.1134 0.0389909 -0.121299)
(10.0592 0.0115106 -0.0661448)
(10.0018 0.0449639 -0.0482539)
(10.0811 0.015987 -0.0202516)
(10.0786 -0.0378878 0.0349477)
(10.1174 -0.0438618 0.0620021)
(10.2824 -0.0848736 -0.129516)
(10.2794 -0.0827392 -0.137963)
(9.85464 -0.0204826 -0.0448662)
(9.85755 0.0388253 0.0226187)
(10.0529 0.0331597 0.0138496)
(10.0172 0.0464709 0.00961253)
(9.76141 0.0969154 -0.0290004)
(9.92919 0.0331146 0.0384382)
(10.0524 -0.0581728 0.136184)
(10.1696 -0.0139404 0.153414)
(10.3608 0.0528389 0.143585)
(10.3588 0.0017874 0.0902107)
(9.98387 0.0356252 0.0478357)
(9.98227 0.0652292 0.0572471)
(10.1994 0.0832018 0.0799965)
(10.2809 -0.0225191 0.0424404)
(10.0973 -0.0841755 -0.003754)
(9.84618 -0.0871579 -0.0519877)
(9.96408 -0.0926034 -0.0586187)
(9.97264 -0.0185833 0.0307662)
(9.86325 0.0161152 -0.0263665)
(9.83318 0.045023 -0.0484962)
(10.0606 -0.0142896 0.0132399)
(10.2327 -0.0487471 0.0236866)
(10.2217 -0.0116161 -0.0387731)
(10.2076 0.0380758 -0.0897651)
(10.1 0.0192264 -0.0466538)
(10.0503 0.00938354 -0.0694255)
(10.0731 0.0514858 -0.12484)
(10.0767 0.061965 -0.0864099)
(10.059 -0.0142948 0.0056159)
(10.0898 0.0458539 -0.0386322)
(10.2256 -0.0818187 -0.101881)
(10.2436 -0.155576 -0.0490916)
(9.98603 -0.14265 -0.0426156)
(9.92017 0.045657 -0.0259392)
(10.0407 0.0110006 0.0106561)
(10.0453 0.0365653 0.0308813)
(9.99722 0.153475 0.0188877)
(9.89732 0.131852 0.116455)
(9.93017 -0.0168678 0.152172)
(10.0831 -0.0338625 0.112352)
(10.3832 0.0197107 0.106112)
(10.2913 0.0205372 0.104102)
(9.98855 -0.000735882 0.0363473)
(9.98455 0.146498 0.0837834)
(10.3147 0.145061 0.0244379)
(10.2894 0.0380822 0.00128496)
(9.88161 -0.168663 -0.0186395)
(9.77598 -0.125097 -0.0282621)
(9.93442 -0.120517 -0.0368345)
(9.92626 -0.102651 -0.00487638)
(9.95388 -0.0331289 -0.0015041)
(10.0834 0.0151774 0.0328179)
(10.1059 0.0309308 -0.00283376)
(10.0907 -0.00512024 -0.0828812)
(10.2101 0.00603876 -0.0794788)
(10.2389 0.00669733 -0.0572574)
(10.1167 -0.0136751 -0.0545152)
(10.1006 0.0500672 -0.0301384)
(10.1544 0.0224969 -0.0328194)
(10.0648 0.0275364 -0.0348647)
(9.96855 0.0374983 -0.0645514)
(10.0243 0.00707451 -0.0988699)
(10.082 -0.0210616 -0.0539527)
(10.1279 -0.145232 0.0429222)
(10.1261 -0.134313 -0.016933)
(10.041 0.0495472 -0.0300654)
(10.107 -0.0122719 0.0567837)
(10.1032 0.0130644 0.0634235)
(10.0789 0.121661 0.0153371)
(9.88412 0.163502 0.0797489)
(9.92225 0.0557994 0.117242)
(10.0945 0.0781498 0.0632039)
(10.312 0.0857188 0.096189)
(10.2166 0.138165 0.0314451)
(10.0373 0.0647984 -0.0306304)
(10.1116 0.0929045 0.0220064)
(10.1684 0.0954512 0.0661888)
(10.1515 0.00626618 0.00412602)
(9.846 -0.267804 -0.0667267)
(9.78443 -0.191988 0.0119304)
(9.87089 -0.120521 0.00115667)
(9.85574 -0.0540641 -0.000988097)
(10.0554 -0.0385326 -0.0155464)
(10.2938 -0.0327747 -0.0199361)
(10.2379 0.00569268 -0.00306316)
(9.96826 0.0253651 -0.0534929)
(10.0634 0.0249068 -0.0905394)
(10.237 -0.000114551 -0.0938655)
(10.1759 -0.00764084 -0.0376027)
(10.1354 0.010631 -0.0231267)
(9.9953 -0.00777444 -0.0921904)
(10.02 0.00767361 -0.0814824)
(10.1523 -0.0141517 -0.0307129)
(10.0744 -0.0476827 -0.0370409)
(10.0005 -0.0761488 0.0412139)
(10.1051 -0.0660267 0.062974)
(10.2039 0.0174007 0.0129573)
(10.0734 0.046563 -0.00731288)
(10.0571 -0.00399092 0.0684751)
(10.143 0.00399356 0.0476146)
(10.1832 -0.021438 0.00786911)
(9.92854 0.165966 0.0853328)
(9.95563 0.103903 0.0736356)
(10.0889 0.0150739 0.0575813)
(10.3354 0.181364 0.118702)
(10.1966 0.221221 -0.00618844)
(10.1249 0.327031 0.034116)
(9.97324 0.15816 0.11394)
(10.0085 -0.0701432 -0.0440585)
(9.97067 -0.218031 -0.127264)
(9.92553 -0.209371 -0.0645061)
(9.8156 -0.117285 0.118188)
(9.91227 -0.0557481 0.10185)
(9.99509 0.0252816 0.0687077)
(10.1172 0.0283942 -0.0118991)
(10.2061 -0.0382095 -0.0528981)
(10.1878 -0.0267446 -0.0391294)
(10.1483 0.01766 -0.0342148)
(10.1377 0.0248611 -0.1015)
(10.1203 0.00197007 -0.122331)
(10.093 -0.00932664 -0.00430252)
(10.0985 -0.0275708 0.0264948)
(10.1246 0.0233535 -0.0230246)
(10.1054 0.0672782 -0.00941513)
(9.94388 -0.0500705 0.0494448)
(9.90977 -0.0971282 0.0324062)
(9.98214 -0.0891801 0.104918)
(10.2362 0.0222303 0.0333181)
(10.2605 -0.00804014 -0.0321907)
(10.1222 -0.0523989 -0.116757)
(9.98501 -0.00493547 -0.0145714)
(10.0771 -0.0550118 -0.022463)
(10.2325 -0.0538786 -0.00798125)
(10.0514 0.14465 0.0215517)
(9.99608 0.169771 -0.00402945)
(10.0698 -0.019484 -0.0121032)
(10.1147 0.0238387 0.0463913)
(10.1897 0.101354 -0.0354171)
(10.1339 0.175705 0.0216602)
(9.98448 0.11495 0.064715)
(9.8758 -0.112664 -0.0608985)
(9.91912 -0.0922246 -0.0312764)
(9.94607 -0.0391588 0.0659655)
(9.80488 -0.0428386 0.191362)
(9.93868 -0.0274595 0.139834)
(10.1145 0.0232525 0.0704968)
(10.1257 0.0278605 -0.0451268)
(10.141 0.00734135 -0.0579297)
(10.1755 0.00309085 -0.0232621)
(10.1639 0.00668788 -0.0127785)
(10.1372 0.00934276 -0.0695066)
(10.1237 -0.000833833 -0.0928699)
(10.12 -0.0137315 -0.0239068)
(10.117 0.000155316 -0.0243245)
(10.0915 -0.00984654 -0.0263147)
(10.0795 -0.0329746 -0.00142992)
(9.89011 -0.0432908 0.0304511)
(9.92623 -0.0159624 0.0515015)
(10.0903 -0.016659 0.0707839)
(10.2802 0.0194993 0.0127462)
(10.2772 -0.0143518 -0.00982609)
(9.96653 -0.0440162 -0.0185168)
(9.96147 0.000913899 0.0100467)
(10.1288 -0.0817058 0.0240044)
(10.3373 -0.0678276 -0.0257461)
(10.3516 0.0227131 -0.0410106)
(9.97541 0.204514 -0.0208166)
(9.91756 -0.0172286 -0.0373556)
(9.98239 -0.104605 -0.0794292)
(10.0948 0.0331715 -0.047567)
(10.0243 0.0610116 -0.0791315)
(9.67672 -0.0073211 -0.0629709)
(9.73823 -0.0359911 0.0131826)
(9.8997 0.019069 0.0729917)
(9.94442 0.0349155 0.11993)
(9.70302 0.00519748 0.194396)
(9.81333 -0.00495408 0.141537)
(10.0563 0.0156918 0.0463959)
(10.0282 0.0173272 -0.081757)
(10.0141 0.00748549 -0.0632163)
(10.0733 0.00751137 -0.00609516)
(10.0882 0.00509692 -0.0147747)
(10.0357 0.0114953 -0.00350567)
(9.98676 0.00615334 -0.0321702)
(10.0204 -0.0129921 -0.0613056)
(10.024 -0.0107443 -0.059011)
(9.99375 -0.0159684 -0.0755347)
(9.95349 -0.0337116 -0.0837335)
(9.86027 -0.0101871 0.0232904)
(9.88391 0.014887 0.0595)
(10.0015 0.0135074 0.107574)
(10.1283 0.00574902 0.0279765)
(10.1706 0.0170359 5.14978e-05)
(9.83154 -0.0196705 -0.00242108)
(9.87761 -0.0104151 0.00456818)
(10.2375 0.00282574 0.0632023)
(10.191 -0.0638537 -0.000441447)
(10.0447 -0.0703433 -0.077133)
(9.95779 0.0650562 -0.0868378)
(9.82961 -0.0109767 -0.0197992)
(9.96619 -0.043085 -0.0334217)
(10.2706 0.00188776 0.126715)
(9.88611 0.0363439 -0.118138)
(9.77695 0.0356337 0.0432014)
(9.97257 0.0262934 0.149484)
(10.1112 0.017317 0.0968099)
(9.99335 0.00681007 0.032999)
(9.78296 -0.0330483 -0.121343)
(9.90007 -0.0276883 -0.131501)
(9.87238 -0.00130021 -0.0609947)
(9.5616 0.0159753 -0.00488503)
(9.88497 0.0389273 -0.00245671)
(10.2616 -0.00771973 -0.00798531)
(10.2257 -0.0128367 -0.0173894)
(9.91572 -0.0192152 -0.0622183)
(9.61445 -0.00310082 -0.0312017)
(9.85768 0.00573333 0.00273389)
(10.1062 -0.0104495 0.0552555)
(10.0304 -0.0122507 0.105097)
(10.0584 -0.0128787 0.0595033)
(9.97836 0.00870714 0.0304207)
(9.93857 0.0144871 0.0426455)
(10.0666 -0.0344468 -0.1809)
(10.1504 -0.0270562 -0.256876)
(9.93457 0.0141174 -0.179195)
(9.85544 0.0509475 0.039004)
(9.99762 0.0253615 0.0217368)
(9.82326 0.0249803 0.0371958)
(9.82565 0.0133093 0.0668473)
(10.0423 -0.0140872 0.0931852)
(10.0061 -0.0269719 0.0562904)
(10.0087 -0.0215739 0.126814)
(10.2297 0.00184802 0.160332)
(10.342 0.0153305 0.00613947)
(9.98878 -0.0109539 -0.101577)
(9.87078 0.097325 0.0968348)
(10.0746 0.113678 0.158016)
(10.1966 0.0476763 0.0770352)
(10.0275 0.0125941 0.00979349)
(9.83632 -0.0717639 -0.122227)
(9.9737 -0.104428 -0.148528)
(10.0214 -0.0278982 -0.0378728)
(9.89803 0.00168862 -0.0400213)
(9.84658 0.00903448 -0.00888034)
(10.1118 -0.0163468 0.013229)
(10.3387 -0.0616667 0.035802)
(10.1549 -0.0402969 0.0284552)
(9.80317 0.0237995 -0.0322512)
(9.98561 0.0644242 -0.0494037)
(10.1813 0.0196121 -0.0139916)
(10.1444 -0.0362941 0.0644791)
(10.1719 -0.0324238 0.0576944)
(10.1012 -0.0105411 0.0374199)
(10.0179 0.0129104 0.063265)
(10.1248 -0.0304774 -0.124438)
(10.2149 -0.060794 -0.201211)
(10.1372 -0.0304019 -0.126524)
(9.99821 0.0434952 0.0344333)
(10.055 0.0103861 0.00441975)
(9.9074 0.0744024 0.0618587)
(9.90446 0.0848912 0.0731837)
(10.0986 0.0135533 0.101868)
(10.0744 -0.0288906 0.122936)
(10.0787 -0.0141526 0.182108)
(10.3444 0.0222557 0.0431145)
(10.3396 0.0300807 0.0516551)
(9.98774 0.0121062 0.0242489)
(9.94756 0.103803 0.0570113)
(10.1371 0.107314 0.0868836)
(10.1443 0.034641 0.0639387)
(10.0076 -0.0517392 -0.0466874)
(9.62455 -0.104146 -0.0994775)
(9.85351 -0.141811 -0.131783)
(10.1591 -0.0939044 -0.0333139)
(9.94101 -0.0412926 -0.0231042)
(9.97134 0.0403271 -0.0253709)
(10.2474 0.000115659 0.0159864)
(10.218 -0.0858718 -0.0173035)
(9.94907 -0.055002 0.0274521)
(10.0017 0.0634271 -0.0173518)
(10.1952 0.0641725 -0.0569982)
(10.0203 0.0183527 0.0494272)
(10.0213 0.0355339 0.0405917)
(10.2064 0.040465 0.0181042)
(10.1555 -0.00665318 0.0226449)
(10.0258 -0.0232296 0.0396124)
(10.0749 0.0122971 -0.114637)
(10.1671 -0.0141554 -0.194262)
(10.048 -0.0622359 -0.112072)
(10.0249 -0.039509 -0.0358599)
(10.0616 0.0151365 0.0517189)
(10.0335 0.049267 0.0484652)
(9.94066 0.140964 0.0298768)
(10.0532 0.0532546 0.0990123)
(10.0173 -0.013568 0.164787)
(10.0735 0.0178208 0.152921)
(10.336 0.0426916 0.0470861)
(10.3361 0.0273712 0.121741)
(10.0625 0.0183554 0.0107599)
(10.0381 0.064366 0.0307031)
(10.1242 0.0434566 0.0617463)
(10.0984 -0.011534 0.0711576)
(9.95856 -0.188119 -0.0400229)
(9.59097 -0.104325 -0.0356759)
(9.82373 -0.0591552 -0.0929643)
(10.1461 -0.0501903 -0.0459074)
(10.1428 -0.0160465 -0.0423661)
(10.1576 -0.000118216 -0.0392752)
(10.0244 -0.0208221 0.011509)
(9.94543 -0.0542357 0.00152924)
(10.1067 -0.03316 0.00557313)
(10.2213 0.00982785 -0.0370017)
(10.0495 -0.0404639 -0.0870344)
(10.0316 -0.0140265 -0.0521547)
(10.1539 0.0589773 -0.0436669)
(10.0703 0.00945912 -0.0245797)
(10.0516 -0.0542452 0.0124921)
(10.1668 0.066405 -0.0259864)
(10.1425 0.0686505 -0.0463924)
(10.1404 -0.024685 -0.0301341)
(9.99823 -0.0189105 -0.0705639)
(9.98017 0.0165972 -0.0552182)
(10.1651 -0.0099572 0.107437)
(10.1805 -0.0103141 0.0900127)
(9.98762 0.136891 0.0272656)
(9.91176 0.0962615 0.0593389)
(9.95367 -0.0173061 0.0887954)
(10.141 0.051086 0.0440302)
(10.3241 0.0799115 0.0818297)
(10.1779 0.0693833 0.01443)
(10.0656 0.145007 0.0551729)
(10.0386 0.123398 0.00762489)
(10.0863 0.0485901 -0.0674359)
(10.0127 -0.237125 -0.112982)
(9.94826 -0.275284 -0.0724748)
(9.71483 -0.0376136 0.0748315)
(9.86674 0.0492001 0.0466097)
(10.1775 0.0362073 -0.00175379)
(10.0038 0.0152947 -0.00564521)
(10.0259 -0.0701114 -0.0559531)
(10.2374 -0.0402203 -0.0871916)
(10.0613 0.0203183 0.00175171)
(10.0501 -0.0161931 0.050361)
(10.1761 -0.0356984 0.0142047)
(10.1426 0.00277284 -0.0258608)
(10.1063 0.0356921 -0.0458126)
(10.0043 0.0189749 -0.0245184)
(10.0034 0.0673635 0.0108554)
(10.0994 0.0449516 -0.0389708)
(10.0971 -0.00351303 -0.037584)
(10.1202 -0.0732017 0.0867284)
(10.1677 -0.0568484 0.0642319)
(10.1758 -0.0693868 -0.00939603)
(10.0529 -0.00657062 0.0178918)
(10.0439 0.0342319 0.0580115)
(10.1036 -0.0695499 -0.0059202)
(10.1329 -0.0995924 -0.0449266)
(9.96583 0.203042 0.0564413)
(10.0381 0.0892448 0.122374)
(10.1211 -0.0299851 0.0406611)
(10.2072 0.0996065 0.0184927)
(10.1656 0.13965 -0.00151153)
(10.1531 0.21065 0.0544483)
(10.1187 0.181204 0.0446537)
(9.99607 -0.071266 -0.0475317)
(9.76309 -0.245344 -0.0736148)
(9.85115 -0.132061 -0.0311146)
(9.95739 0.0138132 0.0752045)
(10.0377 0.0414653 0.109132)
(10.1073 -0.00244426 0.0401459)
(9.9201 0.00634636 0.0189825)
(9.98808 -0.043745 -0.00397878)
(10.2323 -0.0542001 0.0111283)
(10.1972 0.00497926 0.0388012)
(10.1266 0.0366297 -0.0113046)
(10.1341 -0.0138001 -0.0822644)
(10.0879 0.00243338 -0.0408634)
(10.0293 0.0359654 -0.0266435)
(10.0589 0.0947695 -0.057129)
(10.0377 0.109206 -0.0865267)
(9.94149 -0.00207972 -0.0224325)
(9.92219 -0.0281917 -0.0125148)
(10.0997 -0.0802281 0.0739909)
(10.2245 -0.0812203 0.0802996)
(10.1971 -0.0949192 -0.0122564)
(10.0232 -0.00987658 -0.0875522)
(9.93236 -0.0437381 0.0488271)
(10.1124 -0.090251 0.0294971)
(10.2759 -0.0104962 -0.0165466)
(10.1472 0.127941 0.00358788)
(10.012 0.154122 0.00172842)
(10.0481 -0.0269267 0.00336622)
(10.0351 -0.0189331 -0.061977)
(10.2127 0.0698947 -0.0310714)
(10.1591 0.0688504 -0.0341501)
(9.98742 -0.0136375 -0.0737026)
(9.76496 -0.00164164 0.0137779)
(9.83581 0.0148322 -0.0145497)
(10.002 0.0399738 -0.0197041)
(10.0431 0.0369189 0.107993)
(9.99013 -0.00807629 0.16162)
(10.0467 -0.0107997 0.0767721)
(9.89888 -0.00987525 -0.00297026)
(10.0152 0.00820591 -0.0360569)
(10.2854 0.0205228 -0.000732107)
(10.2373 0.0457414 0.0497165)
(10.0782 0.107675 0.0522126)
(10.0712 0.0250318 -0.0254709)
(10.1132 -0.0667403 -0.0214901)
(10.149 -0.0245449 0.041338)
(10.1249 -0.0270278 0.0222643)
(10.0332 -0.079216 -0.0476984)
(9.85696 -0.0619836 0.00288428)
(9.90915 -0.0135937 0.023355)
(10.0835 0.0121193 0.0412966)
(10.2357 -0.0490029 -0.0512112)
(10.238 -0.0600997 -0.0885912)
(10.0215 0.00555383 -0.0142006)
(9.97846 0.0628682 0.012675)
(10.1935 0.0105205 0.112309)
(10.2939 -0.0838013 -0.0174507)
(10.2938 -0.0297036 -0.0908594)
(10.05 0.12692 -0.152965)
(9.91778 -0.0358868 0.012546)
(9.96417 -0.0694456 -0.0299624)
(10.1384 0.0199391 -0.0170781)
(10.0126 -0.00383775 -0.0710046)
(9.75052 -0.031787 0.0218885)
(9.8288 0.0443021 0.113379)
(9.85424 0.0687532 0.0131618)
(9.8639 0.0474882 -0.0209604)
(9.86625 0.0364491 0.132981)
(9.85241 -0.0043702 0.134408)
(9.9076 -0.00735087 0.0453284)
(9.81321 -0.00457441 -0.0242985)
(9.9637 0.0170416 -0.0304251)
(10.214 0.0251266 -0.00343041)
(10.1413 0.0293885 0.0453109)
(10.0752 0.0720219 0.0360208)
(9.8609 0.0402973 -0.0455188)
(9.91651 -0.0283274 -0.030747)
(10.0889 -0.0180098 0.0454028)
(10.0366 -0.0473348 -0.00418306)
(9.90531 -0.0842916 -0.101721)
(9.93641 -0.0395519 -0.0493773)
(9.97888 0.00811192 -0.0205534)
(10.0328 0.0247894 0.015025)
(10.0521 0.000514729 0.00493289)
(10.0664 -0.00573989 -0.0581253)
(9.93151 0.00582217 0.0119703)
(9.94442 0.0165487 -0.000910272)
(10.2091 0.0213214 0.186854)
(10.1944 -0.0677894 0.137661)
(10.0818 -0.117231 -0.105828)
(9.9091 -0.0169318 -0.274209)
(9.75237 0.0139207 -0.00736912)
(9.90773 -0.0165332 0.0363792)
)
;

boundaryField
{
    wall
    {
        type            fixedValue;
        value           uniform (0 0 0);
    }
    outlet
    {
        type            cyclic;
    }
    inlet
    {
        type            cyclic;
    }
    procBoundary1to0
    {
        type            processor;
        value           nonuniform List<vector> 
256
(
(10.2691 0.0152439 0.0688062)
(10.1311 -0.0812798 -0.0288689)
(9.7707 -0.0546352 -0.125268)
(9.75573 0.003702 -0.027029)
(10.0279 0.0458864 0.181535)
(10.0194 0.030835 0.111924)
(9.67369 -0.013932 -0.0370158)
(9.70895 -0.00194658 0.016597)
(9.87313 -0.00582679 0.0906677)
(9.89269 -0.0123474 0.0275072)
(9.90895 -0.0114817 -0.14643)
(9.89062 -0.0088297 -0.114845)
(9.9711 -0.00211882 0.053016)
(10.004 -0.0066432 0.0258139)
(9.96971 0.0214613 -0.0965913)
(9.92417 0.0378781 -0.0533419)
(9.90157 0.0220786 -0.0405239)
(9.92522 -0.0106526 -0.0299948)
(9.97423 -0.0109824 0.014824)
(9.89598 -0.0116319 -0.0103025)
(9.9745 -0.0199917 -0.0583432)
(10.2082 -0.0346712 0.00116087)
(10.2037 -0.0244707 0.0229588)
(9.72237 -0.00791976 -0.0851151)
(9.69121 0.0359994 -0.1299)
(9.84615 0.0513883 -0.0194612)
(9.9054 0.0208538 0.0429531)
(9.84518 -0.00828317 0.013003)
(9.73327 -0.00998305 0.0595946)
(9.78286 -0.0159555 0.117107)
(9.97984 -0.0173126 0.162363)
(10.4083 0.0322537 0.130087)
(10.4046 0.0750324 0.161495)
(10.1901 -0.0735793 -0.0376771)
(9.94887 -0.0718527 -0.1449)
(9.98755 -0.022445 -0.0939801)
(10.1243 0.039831 0.080639)
(10.0409 0.0230458 0.082227)
(9.76691 -0.0606062 0.0447669)
(9.80813 -0.0402379 0.061446)
(9.94731 -0.0249764 0.0972347)
(9.96183 -0.0282966 0.0321479)
(10.0434 -0.0390136 -0.144938)
(10.0291 -0.0514922 -0.110189)
(10.0854 0.00511499 0.0311046)
(10.1103 0.0024458 -0.0193435)
(10.1034 0.032776 -0.0845094)
(10.0913 0.0329474 -0.0422663)
(9.88841 0.0252717 -0.0586082)
(9.87633 0.0473891 -0.0323371)
(10.0419 0.00492556 0.0253758)
(10.0266 0.017385 -0.0129594)
(10.1043 0.0826589 -0.081545)
(10.2855 -0.085193 -0.0252001)
(10.285 -0.141744 0.0214263)
(9.91235 -0.0620154 -0.0485721)
(9.82462 0.108233 -0.124591)
(9.98458 0.0543749 -0.0346116)
(10.0106 0.0068563 0.0429065)
(9.83825 0.0208706 0.0529128)
(9.78263 0.0258333 0.0809664)
(9.88694 -0.0146561 0.119282)
(10.1508 -0.0354885 0.127479)
(10.4622 0.0672839 0.149643)
(10.3712 0.0563774 0.0792642)
(10.1185 0.0378841 0.0528894)
(9.94661 0.0261019 -0.0738113)
(10.0483 0.0605547 -0.0544318)
(10.1398 0.038086 0.0603154)
(10.0419 -0.0252058 0.0607874)
(9.80552 -0.11449 0.0398203)
(9.8438 -0.0805595 0.0532626)
(9.95715 -0.0564859 0.107138)
(9.9479 -0.0820354 0.0713865)
(10.0437 -0.0229034 -0.107243)
(10.098 0.00475924 -0.105734)
(10.1387 0.0347824 -0.015067)
(10.0902 0.017864 -0.0827957)
(10.0429 0.0152089 -0.0865983)
(9.95322 -0.026659 -0.0137863)
(9.96896 -0.0332865 -0.046219)
(10.0534 0.0239878 -0.0416755)
(9.96711 0.066134 -0.0392987)
(9.98099 0.0700367 -0.0564494)
(10.098 0.0768821 -0.118829)
(10.1529 -0.0160874 -0.0839649)
(10.1148 -0.168294 0.0516345)
(10.1546 -0.112503 -0.036033)
(9.99255 0.0222819 -0.136488)
(9.92712 -0.0587062 0.0308651)
(9.96434 -0.0320765 0.0579065)
(9.85494 0.164721 0.0942193)
(9.79233 0.133899 0.100008)
(9.91706 0.0337266 0.0798311)
(10.1599 0.0226026 0.101112)
(10.4473 0.0630822 0.0930701)
(10.2937 0.0825158 0.057606)
(10.0317 0.039843 -0.0594753)
(10.0413 0.0658519 -0.0552408)
(10.2323 0.0466396 0.037957)
(10.2492 -0.0184146 0.0352546)
(9.7736 -0.161073 0.0363985)
(9.72464 -0.102652 0.0689562)
(9.84567 -0.0736916 0.0722959)
(9.93691 -0.0274985 0.102123)
(10.0209 -0.0371114 0.0352642)
(10.127 -0.00728889 -0.0466002)
(10.1033 0.00481174 -0.0314214)
(10.0572 0.00321986 -0.00184431)
(10.0189 -0.00239082 -0.11726)
(10.0251 -0.00413901 -0.0701728)
(9.91104 -0.031384 -0.00503518)
(9.98697 -0.0404789 -0.0018919)
(10.0667 -0.039154 0.0502788)
(10.0844 0.0320182 -0.0353737)
(10.0888 0.0365368 -0.0694389)
(10.0896 -0.0471863 -0.105383)
(9.9112 -0.0849834 -0.0438125)
(9.99659 -0.0797806 0.0139312)
(10.2093 -0.108557 -0.0826499)
(9.93769 -0.051408 -0.0632445)
(9.95091 -0.0257066 0.0508259)
(10.1057 0.0176909 0.0277617)
(10.1356 0.160704 0.0592738)
(9.84821 0.210328 0.099272)
(9.89282 0.0839718 0.0710259)
(10.0336 0.0592887 0.0523876)
(10.324 0.0926953 0.0751739)
(10.2415 0.154922 -0.0112965)
(10.0187 0.121138 -0.0586585)
(10.0341 0.162717 0.0322449)
(10.188 0.0317028 0.0759535)
(10.171 -0.0694704 0.0533487)
(9.73655 -0.302464 0.0219432)
(9.68469 -0.162506 0.0456848)
(9.87374 -0.0734988 0.0671207)
(10.0562 -0.00605921 0.0321158)
(10.0553 0.00892167 -0.0779187)
(10.0727 -0.0214944 -0.0760169)
(10.1381 -0.027988 0.030116)
(10.1386 -0.0244334 0.0339376)
(10.0762 -0.00834115 -0.107302)
(10.0779 -0.0134719 -0.0624425)
(9.89397 -0.0163487 -0.00370005)
(10.0037 -0.00709725 0.0500607)
(10.1201 0.0444804 0.0329746)
(10.0775 0.0203275 -0.0808693)
(10.0777 -0.0639802 -0.0406053)
(9.89298 -0.145473 -0.0863264)
(9.90862 -0.129608 -0.0849208)
(10.0941 -0.0655058 -0.000122729)
(10.1649 -0.0240417 -0.0110676)
(9.98957 0.0321735 -0.0115949)
(10.0159 0.0719487 0.0404502)
(10.1615 0.0428786 0.0366566)
(10.1783 0.0125289 0.0250322)
(9.8883 0.210428 0.0637152)
(9.88061 0.162216 0.0635821)
(9.98684 0.0756881 0.101847)
(10.2557 0.130465 0.0795247)
(10.4093 0.245233 -0.0573405)
(9.95631 0.0862791 -0.109585)
(9.92015 0.0637937 0.019576)
(10.0015 0.0368637 0.0239854)
(9.96147 -0.201927 -0.0239696)
(9.67042 -0.279876 0.0610495)
(9.66529 -0.147923 0.0716872)
(9.94919 -0.0829042 0.07426)
(10.1647 -0.018323 0.019169)
(10.0919 -0.000771146 -0.0755325)
(10.0762 -0.0337998 -0.0755519)
(10.1533 -0.023696 0.0307333)
(10.1706 -0.00342964 0.0440949)
(10.0878 -0.00931007 -0.0650534)
(10.0909 -0.0286986 -0.0346814)
(9.88985 -0.018745 -0.0239362)
(9.99689 0.0455132 -0.0183813)
(10.1747 0.0703564 -0.00638233)
(10.1044 0.0312657 -0.06061)
(9.77826 -0.090332 -0.0195721)
(9.83857 -0.131331 -0.0768067)
(10.0418 -0.126221 -0.101603)
(10.3536 0.000123087 0.0335167)
(10.33 -0.00475655 0.0355431)
(9.98586 -0.0295078 0.00237935)
(9.86421 0.0222238 0.0049665)
(10.0021 -0.02844 0.0367194)
(10.1508 -0.0385034 0.0288275)
(10.08 0.0934099 0.00560836)
(9.92136 0.208807 -0.00603374)
(9.96244 0.057223 0.0468599)
(10.3952 0.249179 0.099886)
(10.2071 0.110903 -0.051239)
(10.0034 0.204153 0.031818)
(9.80877 0.151258 0.137898)
(9.82327 -0.0881736 0.0261952)
(9.83821 -0.204758 0.00235152)
(9.7935 -0.148414 0.0928315)
(9.82118 -0.0816132 0.0819702)
(10.0389 -0.0240996 0.0655226)
(10.2189 0.0257825 0.00929689)
(10.0941 0.0354133 -0.0632325)
(10.0657 -0.000815608 -0.0547436)
(10.1594 0.00180456 0.029445)
(10.1743 0.014738 0.0299275)
(10.0496 -0.00516947 -0.0554719)
(9.99488 -0.0297623 -0.0503474)
(10.0602 -0.00611883 0.0168288)
(10.1317 0.0586111 0.0292086)
(10.0893 0.0250098 -0.032006)
(9.95449 -0.0251745 -0.0569065)
(9.73737 -0.0451949 0.0114894)
(9.83145 -0.0413711 -0.0472344)
(10.1056 -0.0121538 -0.0622006)
(10.3468 -0.00414651 0.0296921)
(10.3242 -0.0574539 0.013617)
(9.91329 -0.0554271 -0.0317166)
(9.89774 0.00700344 -0.00977164)
(10.04 -0.0599422 0.022196)
(10.3081 -0.0671957 0.0072431)
(10.344 0.0154235 -0.0112802)
(9.94195 0.19939 -0.0180903)
(9.92104 0.0283917 -0.0384227)
(10.0072 -0.046987 -0.0463311)
(10.0476 0.0247926 -0.0644111)
(9.9689 0.0827237 0.00275334)
(9.78708 0.0686528 0.104775)
(9.69135 -0.0144739 0.00188982)
(9.66154 -0.0387436 0.0283722)
(9.63566 -0.00316896 0.0876283)
(9.78222 -0.00426152 0.0907785)
(10.081 0.00152589 0.0543613)
(10.1297 0.014191 -0.0121013)
(9.94148 0.0277391 -0.0623276)
(9.91278 0.00654221 -0.0217731)
(10.0436 0.0034983 0.0336198)
(10.0795 0.00973055 0.0250376)
(9.95147 0.00561886 -0.0280724)
(9.87128 0.0054144 -0.0423123)
(9.97923 0.00746488 0.0148324)
(10.0282 0.01279 0.0108687)
(9.95626 -0.000206559 -0.0787968)
(9.85188 -0.0211176 -0.0672537)
(9.66033 -0.0168845 0.0347781)
(9.74137 -0.00542102 -0.000678503)
(10.0329 0.00671209 0.00866454)
(10.2486 -0.00068407 0.0207577)
(10.2638 -0.00735962 -0.0006582)
(9.76443 -0.0170103 -0.0488823)
(9.78387 0.0146703 -0.0320822)
(10.1643 0.00988743 0.0174616)
(10.1287 -0.0696077 0.0113164)
(10.0736 -0.0816588 -0.00221917)
(9.8913 0.0355486 0.0594118)
(9.85625 0.0104554 -0.0798523)
(9.9808 -0.0362507 -0.082949)
)
;
    }
    procBoundary1to2
    {
        type            processor;
        value           nonuniform List<vector> 
256
(
(9.90775 -0.0865195 -0.144312)
(9.92095 0.0146646 -0.111745)
(10.0556 0.0275464 0.0327853)
(10.1279 -0.00420621 0.146343)
(10.09 0.00881353 0.0899973)
(9.81557 -0.00986977 -0.191349)
(9.44396 -0.0279204 -0.0692576)
(9.72956 -0.0292831 -0.076948)
(10.004 -0.00761553 -0.0715881)
(9.81111 -0.0257574 -0.0181733)
(9.88137 0.0286781 0.0743352)
(10.1119 0.0333996 -0.0102292)
(10.0666 0.0203664 -0.0614624)
(9.91751 0.0447983 -0.058276)
(9.95434 0.0261521 -0.00271625)
(10.0132 -0.0170898 0.0475851)
(10.0116 -0.022111 -0.0272647)
(9.9311 -0.0515485 -0.0460213)
(9.83934 0.0234057 0.0910901)
(9.83214 0.0383024 0.064732)
(9.89513 -0.0109504 0.0213212)
(9.88622 -0.0820042 -0.201065)
(10.0182 0.00628519 -0.216172)
(9.98064 0.0252972 -0.121484)
(9.96563 0.0335565 -0.0302139)
(10.0251 0.0346323 -0.0222991)
(9.99899 0.022043 0.0130383)
(9.77787 0.00802959 0.199831)
(9.87313 -0.0139347 0.214696)
(10.1105 0.106127 0.140071)
(10.0929 0.0207866 0.138034)
(10.0917 -0.104972 0.0623663)
(10.0473 0.00720499 -0.145937)
(10.073 0.0774707 -0.0939333)
(10.2357 -0.00185427 0.0970047)
(10.2596 -0.0490184 0.219747)
(10.1899 0.00381843 0.191941)
(9.8127 -0.0338227 -0.210264)
(9.51725 -0.0436363 -0.0978922)
(9.82845 -0.0308301 -0.0560378)
(10.0859 0.0142953 -0.0696658)
(10.0038 0.020089 -0.0323767)
(10.0571 0.0138253 0.0425633)
(10.1371 -0.018656 0.0264187)
(10.077 -0.0083947 -0.0766135)
(10.0481 0.0617617 -0.0501469)
(10.0331 0.0043063 0.0785852)
(10.0297 -0.0152431 0.0634312)
(10.154 -0.00660568 -0.0313907)
(10.1114 -0.0652391 0.00953164)
(10.0159 -0.0108958 0.0549965)
(10.0406 0.00453188 -0.00754396)
(9.88514 -0.0418274 0.0248255)
(9.84944 -0.0667295 -0.0119484)
(10.2105 -0.0374377 -0.167107)
(10.1642 -0.0393526 -0.124233)
(10.0281 -0.0148928 -0.0317338)
(10.0895 0.0666432 -0.0667747)
(10.0273 0.0860288 -0.0504288)
(9.94332 0.0340469 0.162537)
(10.0333 0.0265624 0.124962)
(9.98322 0.103681 0.0661518)
(9.99819 0.0372903 0.149301)
(10.066 -0.0953925 0.123061)
(10.0848 0.124419 -0.0124363)
(10.0689 0.085169 0.0274879)
(10.3015 -0.0690617 0.110972)
(10.2764 -0.0811277 0.0970566)
(10.1675 -0.0435061 0.0803237)
(9.77569 -0.0260638 -0.136122)
(9.49895 0.0182398 -0.0677109)
(9.82154 -0.0141521 -0.0393896)
(10.1388 -0.0225847 -0.0031863)
(9.9083 -0.0293644 -0.0190308)
(9.91372 0.00421164 0.000415391)
(10.2122 0.0532063 -0.00652859)
(10.2078 -0.0370796 -0.0850652)
(10.0971 -0.0978972 -0.0830306)
(9.84809 0.00427237 -0.00089147)
(9.96416 0.0148464 -0.0604776)
(10.1232 -0.0519676 -0.0510371)
(10.0789 -0.0562774 0.092061)
(10.0486 -0.019341 0.108017)
(9.96005 -0.0494695 0.0299489)
(9.8744 -0.0150654 0.0287282)
(9.96517 0.0803713 -0.0818753)
(10.147 -0.043832 -0.156562)
(10.1457 -0.0627462 -0.0839953)
(10.1702 0.00235588 -0.00610698)
(10.122 0.0680035 -0.00244848)
(10.0023 0.115043 0.0112374)
(9.90699 0.030402 0.0997611)
(10.016 -0.0303748 0.105067)
(9.94911 -0.0698162 0.0814175)
(9.969 -0.0261542 0.121206)
(10.1568 0.0972803 0.0112475)
(10.167 -0.0971396 0.0919545)
(9.98903 -0.00327008 -0.0144025)
(9.97836 0.0903109 -0.0351277)
(10.2414 -0.141089 -0.0154786)
(10.187 -0.200486 -0.0359884)
(9.99389 -0.157738 0.013902)
(9.64964 -0.0335875 0.0803846)
(9.61996 0.0423475 0.0523382)
(9.87628 -0.0665109 0.0192937)
(10.13 -0.0297166 0.00821411)
(10.185 -0.0307006 -0.104556)
(10.1577 -0.0731335 -0.0873971)
(9.97335 0.0242911 0.0271323)
(9.99374 0.0525789 0.0628961)
(10.0468 0.0566212 0.0328398)
(10.0282 -0.0312357 -0.0542551)
(10.0986 -0.0444369 0.00113852)
(10.1351 -0.0167765 0.00449236)
(10.1016 0.016007 0.00206032)
(9.99936 -0.0425191 0.0432801)
(9.94709 -0.0729966 0.0367851)
(10.0618 0.128218 -0.110383)
(10.0866 0.135156 -0.120195)
(10.0601 0.0377413 0.00540338)
(10.128 0.0181892 0.0303718)
(10.1306 -0.0118962 -0.000579681)
(10.1056 -0.0848756 0.0101726)
(9.81117 -0.00983338 -0.0314301)
(9.91814 -0.0229082 0.00332571)
(10.1214 0.0562187 0.0613767)
(10.1494 0.19073 0.0815354)
(10.1566 0.110637 0.0607864)
(10.0035 0.0718282 0.0129654)
(10.0266 0.0631608 0.0411187)
(10.0054 0.142957 -0.00402757)
(10.0221 0.110305 -0.0437084)
(10.0436 -0.265271 -0.0344927)
(10.0469 -0.264149 0.0186814)
(10.0018 -0.0863739 0.0415172)
(9.60696 0.101738 0.0702777)
(9.81177 0.0425572 0.0229566)
(10.1133 0.0288444 0.00582997)
(10.1449 0.0148463 -0.0700577)
(10.0905 0.0179118 -0.0728845)
(10.0561 0.0880764 0.0635472)
(10.0476 0.0113228 0.125133)
(9.91009 -0.0433045 0.0450736)
(9.967 -0.00369155 -0.0139722)
(10.1516 0.0279112 -0.00930191)
(10.1282 -0.0213435 0.00203338)
(10.0205 -0.0320121 0.00748531)
(10.0333 -0.018612 0.00228828)
(10.0344 -0.0254536 -0.0599923)
(10.0792 0.024117 -0.0396887)
(10.1046 0.0228703 -0.0305583)
(10.0666 0.0300019 -0.057007)
(10.0962 0.00766849 -0.0535396)
(10.0711 -0.0597702 -0.0113845)
(9.96645 -0.0986376 0.0193025)
(9.95909 -0.0766256 -0.0564762)
(10.0437 0.0737176 0.0146794)
(10.1078 0.00465283 0.0895)
(10.1442 0.087362 0.00898282)
(10.04 0.0914827 -0.0781158)
(10.254 0.158844 -0.0543911)
(10.217 0.207412 -0.0791402)
(9.88098 0.0867059 -0.0512588)
(9.8264 0.0594238 -0.00682499)
(9.81453 -0.132534 0.0453775)