/*--------------------------------*- C++ -*----------------------------------*\
| =========                 |                                                 |
| \\      /  F ield         | OpenFOAM: The Open Source CFD Toolbox           |
|  \\    /   O peration     | Version:  2506                                  |
|   \\  /    A nd           | Website:  www.openfoam.com                      |
|    \\/     M anipulation  |                                                 |
\*---------------------------------------------------------------------------*/
FoamFile
{
    version     2.0;
    format      ascii;
    arch        "LSB;label=32;scalar=64";
    class       volVectorField;
    location    "0.005";
    object      U_0;
}
// * * * * * * * * * * * * * * * * * * * * * * * * * * * * * * * * * * * * * //

dimensions      [0 1 -1 0 0 0 0];

internalField   nonuniform List<vector> 
512
(
(10.3661 0.0477156 0.207455)
(10.0948 -0.00661576 -0.0428244)
(9.84182 -0.0524836 -0.184444)
(10.0742 -0.0439579 -0.0828007)
(10.2405 0.0123575 0.0216487)
(9.76129 0.0220334 -0.0191975)
(9.42228 -0.0254351 -0.0517783)
(9.59573 -0.0276572 0.0270336)
(9.4514 -0.0118319 0.0402461)
(9.26915 -0.0109997 -0.117687)
(9.80553 -0.00665055 -0.159741)
(10.0287 -0.00712072 -0.0530299)
(9.94081 -0.0236958 0.0213225)
(9.69763 -0.0416362 -0.0576018)
(9.73515 0.0277895 -0.154338)
(9.78595 0.0408087 -0.133302)
(9.7701 0.0284525 -0.0362107)
(9.79522 0.0510417 -0.0639552)
(9.91996 0.0352075 -0.0706797)
(9.79946 -0.0119704 0.0262043)
(10.0999 -0.054327 0.0456762)
(10.3515 -0.0685674 -0.131819)
(10.2147 -0.0630461 -0.157029)
(9.46966 -0.0165501 -0.135145)
(9.54524 0.0227611 -0.0314834)
(9.75813 0.0320286 0.0396227)
(9.6541 0.0321521 0.05171)
(9.51511 0.0279194 -0.0100015)
(9.70084 0.0110553 0.120862)
(9.69948 0.00469125 0.253859)
(10.2416 0.0187957 0.346704)
(10.5294 0.0574415 0.366502)
(10.4411 0.086816 0.230245)
(10.0381 0.00735524 0.13689)
(9.88192 -0.0929184 -0.0724635)
(10.2348 -0.0606437 -0.0889017)
(10.358 -0.0119091 -0.0489816)
(9.88566 -0.0338955 -0.0768096)
(9.48167 -0.091518 -0.0784189)
(9.65741 -0.0716574 0.00647365)
(9.52971 -0.0482063 0.0428869)
(9.32315 -0.0350254 -0.0955777)
(9.8726 0.0101983 -0.108789)
(10.0856 -0.0252675 -0.0433669)
(9.99621 -0.0695655 0.0106692)
(9.86023 -0.0417845 -0.0946425)
(9.91134 0.0322567 -0.143561)
(9.889 0.0500855 -0.143396)
(9.8034 0.0454985 -0.0815663)
(9.78857 0.091971 -0.0789919)
(9.92727 0.0704459 -0.0491303)
(9.8693 -0.0110711 0.0463486)
(10.1998 -0.0450557 0.0347036)
(10.4411 -0.12371 -0.169867)
(10.3227 -0.163409 -0.170858)
(9.61158 -0.0885132 -0.0870816)
(9.65204 0.0294685 -0.0132083)
(9.87272 0.0370193 0.0254113)
(9.734 0.0840934 0.0828119)
(9.5047 0.143681 0.0359887)
(9.76537 0.0689725 0.118758)
(9.7956 0.0187435 0.239593)
(10.3318 0.0885114 0.303079)
(10.6135 0.114394 0.281304)
(10.4595 0.0456011 0.174818)
(9.90204 0.0334846 0.104912)
(9.96662 -0.00612778 0.0357486)
(10.3239 -0.0123495 0.0132313)
(10.3699 -0.0705781 -0.0197532)
(9.79049 -0.136325 -0.0527628)
(9.44982 -0.138225 -0.0463592)
(9.63371 -0.131366 -0.0301637)
(9.65837 -0.0774869 0.0256172)
(9.54998 -0.0683099 -0.0791738)
(9.59886 0.00704145 -0.0768914)
(9.96552 -0.0257547 -0.00978844)
(10.0602 -0.0456145 -0.0289485)
(10.0259 -0.0141627 -0.131386)
(10.0041 0.0138841 -0.145346)
(9.8569 0.0176443 -0.0652601)
(9.83615 0.0308381 -0.0682683)
(9.87446 0.0846935 -0.145856)
(9.88636 0.0738479 -0.0878291)
(9.8508 0.0494599 -0.0196299)
(10.1207 0.0969188 -0.106657)
(10.3253 -0.110628 -0.12905)
(10.2708 -0.252447 -0.0575461)
(9.78156 -0.22836 -0.0478166)
(9.73413 0.00265239 -0.0755474)
(9.89577 -0.00740531 0.0366949)
(9.83399 0.0849256 0.139309)
(9.75942 0.201354 0.130682)
(9.65031 0.22507 0.164406)
(9.69046 0.0636884 0.234737)
(10.2378 0.125392 0.218493)
(10.6232 0.133841 0.237724)
(10.3722 0.0747085 0.174171)
(9.82196 0.00616476 0.0363361)
(10.0443 0.16986 0.0902031)
(10.4089 0.0921052 -0.0192598)
(10.2316 -0.0967178 -0.0743988)
(9.60125 -0.299297 -0.0800604)
(9.43466 -0.225501 -0.0109923)
(9.62178 -0.196222 -0.0153705)
(9.60007 -0.144214 -0.0117248)
(9.72066 -0.0736247 -0.0448966)
(9.86393 -0.0308189 -0.00714785)
(9.91537 0.00464418 -0.0372511)
(9.92148 0.00492112 -0.12558)
(10.0541 0.0138639 -0.156786)
(10.0579 -0.00326883 -0.135402)
(9.88201 -0.0252753 -0.0707163)
(9.8797 0.0393343 -0.0211447)
(9.95842 0.0352276 -0.0594523)
(9.84711 0.0740777 -0.100827)
(9.83405 0.0622815 -0.148949)
(9.97505 0.0453688 -0.163645)
(10.0906 -0.065597 -0.00413573)
(10.1103 -0.282817 0.11688)
(10.0233 -0.193595 -0.00269498)
(9.9056 0.0369018 -0.0695838)
(9.97374 -0.0467453 0.103368)
(9.93286 0.0366218 0.152386)
(9.89116 0.188815 0.0900611)
(9.6482 0.283526 0.129533)
(9.70715 0.194763 0.175946)
(10.2037 0.284821 0.163809)
(10.4911 0.23333 0.229606)
(10.1992 0.145024 -0.00123804)
(9.94226 0.0601241 -0.0748892)
(10.0544 0.162996 0.0588345)
(10.1504 0.113542 0.0485257)
(10.0173 -0.201397 -0.113544)
(9.6035 -0.461318 -0.141781)
(9.45742 -0.289862 0.0556682)
(9.59921 -0.167032 0.0451531)
(9.61904 -0.0972468 -0.0108495)
(9.91481 -0.0482212 -0.0591876)
(10.0722 -0.0401737 -0.0563818)
(9.98537 -0.000706163 -0.0344593)
(9.75465 0.0184238 -0.100742)
(9.96311 0.0306984 -0.157353)
(10.0552 0.0109233 -0.132388)
(9.93599 -0.0114532 -0.0676322)
(9.92869 0.00672087 -0.0980689)
(9.79829 0.0100779 -0.15281)
(9.89693 0.050173 -0.107181)
(10.0156 -0.00892473 -0.0752444)
(9.89038 -0.092297 -0.0326041)
(9.87393 -0.192255 0.128999)
(10.1511 -0.152129 0.130514)
(10.2381 -0.0361944 0.0506768)
(9.91897 0.0353199 0.00889379)
(9.86953 -0.0576273 0.114845)
(10.06 -0.0777086 0.0792015)
(10.0992 0.00518386 0.0435478)
(9.71538 0.384834 0.127352)
(9.79463 0.308795 0.106758)
(10.1263 0.288061 0.172319)
(10.4575 0.374208 0.224038)
(10.2339 0.278009 -0.0572783)
(9.99263 0.2957 -0.0206058)
(9.88926 0.105559 0.0275617)
(9.93042 -0.109401 -0.0931199)
(9.82124 -0.310901 -0.14424)
(9.67038 -0.312259 -0.0297511)
(9.52914 -0.205837 0.168848)
(9.70899 -0.0862228 0.147035)
(9.79477 -0.0182202 0.0630614)
(9.90794 0.00726345 -0.0471597)
(9.9833 -0.02658 -0.0639928)
(9.98974 -0.0137901 -0.0411848)
(9.9546 0.0220432 -0.0832986)
(9.95378 0.0229364 -0.175293)
(9.93343 0.0110128 -0.142242)
(9.89505 0.0046098 -0.0166352)
(9.91497 -0.00716558 -0.0369999)
(9.96947 0.050271 -0.0671385)
(9.90648 0.0785858 -0.0179051)
(9.69229 -0.0930564 0.0292185)
(9.69763 -0.17624 0.0382661)
(9.98993 -0.190007 0.193529)
(10.3095 -0.0279323 0.0774805)
(10.2806 -0.03946 -0.0468413)
(9.89975 -0.114826 -0.122967)
(9.73214 -0.124581 0.0101937)
(10.1263 -0.172891 -0.0126842)
(10.3337 -0.0749086 0.00417656)
(9.95999 0.341707 0.0521908)
(9.83695 0.422144 0.0456628)
(9.9499 0.199682 0.0821236)
(10.1312 0.259157 0.108825)
(10.1863 0.184308 -0.065165)
(10.0368 0.20613 0.00583226)
(9.88264 0.0873535 0.0180046)
(9.70366 -0.142398 -0.0576232)
(9.71099 -0.144917 -0.0398941)
(9.7114 -0.110428 0.0757215)
(9.55116 -0.110253 0.259724)
(9.80568 -0.0473383 0.191842)
(9.92584 0.00676445 0.0760024)
(9.90973 0.0300076 -0.0609619)
(9.92403 0.0136209 -0.0608855)
(9.97661 0.0110683 -0.0248914)
(9.97624 0.0179595 -0.0587118)
(9.95997 0.0282345 -0.14386)
(9.93349 0.0111046 -0.10561)
(9.92108 -0.0142767 -0.0132122)
(9.92962 0.00569273 -0.0491676)
(9.9313 0.000361278 -0.0529739)
(9.85388 -0.0440625 -0.00900767)
(9.61854 -0.0648373 0.0267128)
(9.6912 -0.0759849 0.0917696)
(10.1438 -0.0541014 0.134176)
(10.3706 0.0152164 0.0569653)
(10.1737 -0.0598944 -0.0406702)
(9.70441 -0.14244 -0.0664533)
(9.75156 -0.155292 0.00747979)
(10.2797 -0.16884 0.0473987)
(10.523 -0.0618244 0.00113266)
(10.4181 0.109566 -0.0357611)
(9.79582 0.374703 -0.00364556)
(9.7073 0.124436 -0.0210277)
(9.93874 0.0790879 -0.100661)
(10.0632 0.07613 -0.0990432)
(9.94117 0.0894768 -0.0666915)
(9.52547 0.00716805 -0.0219757)
(9.61399 -0.0504169 0.0449158)
(9.73295 -0.00778724 0.0526076)
(9.74895 0.00542083 0.11019)
(9.3993 -0.0267213 0.284894)
(9.72381 -0.015696 0.209635)
(9.90977 0.0100332 0.0540681)
(9.83458 0.0184258 -0.130159)
(9.80622 0.0107361 -0.0840212)
(9.90777 0.0105037 -0.0057852)
(9.93838 0.0109568 -0.0355018)
(9.86598 0.0298894 -0.0380228)
(9.8048 0.0138319 -0.0376827)
(9.84167 -0.0203999 -0.0646957)
(9.86661 -0.00991957 -0.08117)
(9.82845 -0.0186336 -0.11666)
(9.7351 -0.0381517 -0.0892272)
(9.61507 -0.0237847 0.00968663)
(9.68622 -0.00171538 0.102653)
(10.0534 0.00700486 0.189903)
(10.2247 0.0119933 0.082856)
(10.066 -0.0058013 -0.0504769)
(9.46217 -0.0963005 -0.0651559)
(9.92702 -0.0747438 0.0399008)
(10.368 -0.0141968 0.106122)
(10.3051 -0.0657765 -0.0166457)
(10.1877 -0.0190395 -0.0907766)
(9.97216 0.0820741 -0.0708516)
(9.63142 0.0435695 -0.00587792)
(9.86556 0.0191192 -0.108915)
(10.406 0.00751676 0.16542)
(9.81469 0.0517563 -0.20326)
(9.70337 0.026376 0.0501319)
(10.1387 0.00498223 0.129105)
(10.2546 -0.000173539 0.073712)
(9.77446 -0.0168516 -0.0272369)
(9.42167 -0.0437258 -0.130876)
(9.57463 -0.0337929 -0.156108)
(9.47384 -0.0119866 -0.091465)
(9.24697 -0.0151013 -0.0709802)
(9.81972 0.0239581 -0.0327412)
(10.0717 -0.000234416 -0.0315934)
(10.0519 -0.0173573 -0.0535864)
(9.60778 -0.0245922 -0.113657)
(9.41875 -0.00741898 -0.0948866)
(9.82485 0.0167251 -0.051489)
(9.94074 0.00655796 0.0361617)
(9.79656 0.00908915 0.151371)
(9.9343 0.0136772 0.10579)
(9.85597 0.021806 0.0908004)
(9.9765 -0.0114322 0.0296408)
(10.2115 -0.0728865 -0.296621)
(10.1986 -0.0611395 -0.377037)
(9.70303 0.0093953 -0.247915)
(9.68159 0.0407789 -0.0608551)
(9.88505 0.0361158 0.00885781)
(9.58022 0.047978 0.125071)
(9.58371 0.0336207 0.158369)
(9.87975 0.00855954 0.151688)
(9.78987 -0.00638403 0.158563)
(10.1732 0.00413405 0.377385)
(10.4919 0.00621797 0.352696)
(10.4788 0.0275339 0.0338361)
(9.87775 -0.000998818 -0.156251)
(9.75594 0.0869379 0.103328)
(10.205 0.064556 0.175097)
(10.3123 -0.00101502 0.0996607)
(9.78719 -0.0566465 -0.0450712)
(9.46635 -0.101642 -0.14452)
(9.6338 -0.126793 -0.168512)
(9.67683 -0.0566336 -0.0865612)
(9.55123 -0.043462 -0.144943)
(9.58826 0.00611509 -0.0357275)
(10.0302 -0.0283305 0.0217322)
(10.1789 -0.0628947 0.0107291)
(9.84251 -0.032926 -0.0389455)
(9.58909 -0.00346929 -0.0985271)
(9.90582 0.0824936 -0.113733)
(9.98329 0.0607825 -0.0190244)
(9.92211 0.00917631 0.106907)
(10.0104 0.0136892 0.0957904)
(9.92613 0.00144484 0.0950924)
(9.94725 -0.0227614 0.119224)
(10.2379 -0.104184 -0.274738)
(10.2773 -0.118625 -0.334819)
(9.95895 -0.0552081 -0.196999)
(9.81411 -0.00503044 -0.056648)
(9.9383 0.0241022 0.0084239)
(9.6622 0.151821 0.169964)
(9.64775 0.141647 0.149947)
(9.9064 0.0670455 0.174793)
(9.82656 0.0293642 0.273707)
(10.223 0.0579459 0.347567)
(10.5796 0.0610299 0.161803)
(10.4316 0.0557592 0.0931322)
(9.84816 -0.0422603 -0.0565725)
(9.87142 0.0728169 0.0201687)
(10.2116 0.0572153 0.140358)
(10.202 -0.0547849 0.0831348)
(9.76156 -0.175349 -0.110635)
(9.26908 -0.159184 -0.0937791)
(9.62524 -0.174529 -0.121714)
(9.84402 -0.13224 -0.079693)
(9.59074 -0.0861347 -0.0868097)
(9.78749 0.0172919 -0.0371202)
(10.0292 -0.0135776 -0.0184455)
(10.024 -0.0889337 -0.0985055)
(9.69348 -0.0665205 -0.0256498)
(9.90173 0.036382 -0.110133)
(10.0527 0.061294 -0.101574)
(9.77188 0.0373175 0.0791692)
(9.83082 0.0718818 0.0513277)
(10.0232 0.0631504 0.0233373)
(9.94049 -0.0504299 0.0572448)
(9.93838 -0.0285015 0.0511213)
(10.1673 0.0444021 -0.233429)
(10.2168 -0.011445 -0.276246)
(9.87893 -0.123144 -0.199129)
(9.92242 -0.0726763 -0.0592647)
(10.0049 0.0127885 0.102269)
(9.83396 0.0974834 0.159929)
(9.67773 0.195754 0.128738)
(9.84181 0.124041 0.164611)
(9.75647 0.0809648 0.279622)
(10.2205 0.15601 0.260752)
(10.5562 0.140253 0.156027)
(10.3213 0.0140441 0.155977)
(9.93874 -0.0432027 -0.0268817)
(9.95825 0.0421217 0.023923)
(10.1438 -0.0143912 0.0538111)
(10.0738 -0.146046 -0.0149913)
(9.72896 -0.327987 -0.121136)
(9.26587 -0.186369 -0.000653567)
(9.60871 -0.0868606 -0.0445265)
(9.80987 -0.0914518 -0.0667299)
(9.8425 -0.0676577 -0.113967)
(9.93429 -0.0530128 -0.0929723)
(9.78113 -0.0502099 -0.0418408)
(9.75967 -0.0354178 -0.0717076)
(9.99403 0.00301987 -0.0319557)
(10.0732 0.0105897 -0.0709402)
(9.8545 -0.0834863 -0.138882)
(9.85847 -0.0689689 -0.0615186)
(9.9646 0.0535003 -0.0482044)
(9.78994 0.00133207 -0.0225183)
(9.96274 0.0124021 0.0127756)
(10.1673 0.147034 -0.0284212)
(10.1467 0.085941 -0.0495538)
(10.0843 -0.0839886 -0.0301008)
(9.80961 -0.0364277 -0.119621)
(9.93583 0.0312062 -0.0194034)
(10.1348 -0.0338397 0.178319)
(9.9929 -0.0243983 0.184366)
(9.72903 0.170644 0.0979562)
(9.70878 0.187681 0.0339151)
(9.77891 0.115993 0.122608)
(10.2751 0.26802 0.178531)
(10.477 0.216138 0.239798)
(10.1731 0.0378102 0.00263369)
(9.96753 0.142402 0.013455)
(9.97745 0.116187 -0.0387804)
(10.0464 -0.0527354 -0.147955)
(9.94842 -0.351832 -0.189123)
(9.73506 -0.354915 -0.0946162)
(9.42803 -0.131789 0.121303)
(9.66584 0.00846684 0.121884)
(9.87617 0.00973288 0.0242697)
(9.66239 0.00435968 -0.0529956)
(9.85491 -0.0787637 -0.162057)
(10.0804 -0.0284742 -0.154382)
(9.84641 0.0395542 -0.0134157)
(9.89007 -0.0209258 0.0499903)
(9.98791 0.00149182 0.0184513)
(9.86743 -0.00784689 -0.057356)
(9.91827 -0.000898318 -0.111105)
(9.83121 0.0121991 -0.0863519)
(9.87689 0.143798 -0.015318)
(10.024 0.0972398 -0.0534795)
(10.0441 -0.0250933 0.0173742)
(10.0604 -0.158051 0.164136)
(10.1141 -0.153403 0.126734)
(10.1097 -0.118977 0.00983802)
(9.90613 0.0368578 -0.0189808)
(9.89737 -0.0132248 0.0761046)
(10.0051 -0.253038 0.0578632)
(10.0328 -0.0767055 0.0104877)
(9.82025 0.425204 0.0776446)
(9.9409 0.241366 0.12983)
(10.0728 0.224968 0.0933338)
(10.2349 0.228043 0.10644)
(10.2007 0.207177 -0.026353)
(10.097 0.245372 0.064589)
(10.0304 0.182029 0.0251808)
(9.79764 -0.150796 -0.0918018)
(9.5827 -0.312881 -0.115396)
(9.74802 -0.187222 -0.0547844)
(9.79334 -0.084717 0.106304)
(9.77802 -0.00313778 0.218947)
(9.82765 -0.00325986 0.0970617)
(9.59246 0.036819 -0.0148054)
(9.8552 -0.0270485 -0.0704639)
(10.0559 -0.0242139 -0.00380956)
(9.98472 0.0242429 0.0341562)
(9.91672 0.0151048 -0.0723084)
(9.94174 -0.0128527 -0.0974488)
(9.85373 0.0511261 -0.0641461)
(9.87613 0.110997 -0.0992098)
(9.96822 0.135609 -0.10735)
(9.88198 0.12508 -0.110234)
(9.7388 0.00168591 0.000227757)
(9.81633 -0.112324 0.0543217)
(10.0808 -0.242397 0.21098)
(10.2138 -0.169306 0.161906)
(10.1268 -0.134688 -0.0503878)
(9.83944 -0.0824663 -0.0960172)
(9.69264 -0.208288 0.0879805)
(10.2151 -0.171788 0.0282156)
(10.3816 -0.0213447 -0.0107866)
(10.0702 0.279782 0.0134261)
(9.84108 0.364086 0.0272335)
(9.882 0.122072 0.0101529)
(9.98675 0.101186 -0.110839)
(10.2407 0.152165 -0.0667304)
(10.0618 0.153022 0.0102815)
(9.85095 0.0540683 -0.0238137)
(9.5761 -0.0088912 -0.0186585)
(9.6557 -0.0254535 -0.076535)
(9.86618 -0.01599 -0.0335702)
(9.87186 -0.0379451 0.185518)
(9.75481 -0.0427719 0.273143)
(9.7793 -0.0138539 0.132608)
(9.62883 -0.000175181 -0.00954471)
(9.90359 0.0230675 -0.0777641)
(10.0969 0.0272867 0.00720783)
(9.97241 0.0840377 0.0730621)
(9.88968 0.135174 0.00744056)
(9.92067 0.0110353 -0.0774911)
(9.93064 -0.043454 -0.0571996)
(9.98673 0.0279762 0.0105085)
(9.96287 -0.00976355 -0.00993568)
(9.80147 -0.0965305 -0.0537895)
(9.63749 -0.0894285 0.0132726)
(9.73948 -0.0562902 0.0881978)
(10.1014 -0.0606991 0.110066)
(10.2646 -0.0922513 -0.013997)
(10.1557 -0.109483 -0.116537)
(9.74902 -0.0862204 -0.0354536)
(9.82442 -0.0688915 0.0517443)
(10.342 -0.0715189 0.170845)
(10.4443 -0.0779457 -0.00992656)
(10.3528 0.0119764 -0.129703)
(9.83815 0.213203 -0.175451)
(9.67332 0.104157 -0.0203697)
(9.92344 0.0246238 -0.143453)
(10.2094 0.0665288 -0.0352625)
(9.8781 0.0477446 -0.00687903)
(9.59432 0.00422734 0.0474509)
(9.67384 0.0386153 0.117901)
(9.66859 0.0584955 -0.0326042)
(9.69816 0.0397959 -0.0159917)
(9.69886 0.00212572 0.192352)
(9.65465 -0.0303573 0.204532)
(9.68064 -0.0173278 0.0779984)
(9.59403 -0.00979506 -0.0341097)
(9.89009 0.0220727 -0.0671196)
(10.0553 0.0281265 0.0106247)
(9.94512 0.0508626 0.0902886)
(9.88516 0.104092 0.0327133)
(9.64315 0.0508132 -0.0752941)
(9.79938 -0.0496424 -0.0554384)
(9.94698 -0.0151242 0.00403507)
(9.83888 -0.0632993 -0.0505115)
(9.7114 -0.09827 -0.0991569)
(9.74004 -0.0493368 -0.0168357)
(9.82142 -0.0110381 0.0620194)
(10.0082 0.0234845 0.106788)
(10.0628 -0.00710355 -0.00315738)
(9.98825 -0.0383437 -0.154643)
(9.6613 -0.0520112 0.0129379)
(9.97336 -0.0286224 0.151314)
(10.3084 0.0112941 0.305341)
(10.2794 -0.0934989 0.0572223)
(10.1542 -0.0803534 -0.234446)
(9.88086 0.0167906 -0.328569)
(9.5378 0.0605018 -0.0908187)
(9.93702 0.0129912 -0.0392001)
)
;

boundaryField
{
    wall
    {
        type            fixedValue;
        value           uniform (0 0 0);
    }
    outlet
    {
        type            cyclic;
    }
    inlet
    {
        type            cyclic;
    }
    procBoundary1to0
    {
        type            processor;
        value           nonuniform List<vector> 
256
(
(9.56657 -0.00791033 0.0841225)
(9.05192 -0.100542 -0.030368)
(8.73329 -0.0829858 -0.22128)
(8.8281 0.0201373 -0.015666)
(9.12583 0.0592418 0.239836)
(8.79521 0.0175922 0.0909943)
(8.30838 -0.033925 -0.0596372)
(8.4788 -0.0153819 0.0702409)
(8.68886 -0.0178619 0.198455)
(8.69208 -0.0269232 -0.0170794)
(8.68341 -0.0277584 -0.267633)
(8.68411 -0.0168008 -0.146672)
(8.84701 -0.00118075 0.0869116)
(8.92419 -0.00235942 -0.030241)
(8.81935 0.0209456 -0.169481)
(8.69126 0.0373618 -0.0998375)
(8.58797 0.0327466 -0.0646538)
(8.83585 0.0151185 -0.0400144)
(8.66897 0.0166814 -0.0542245)
(8.6872 -0.000629451 -0.0985975)
(9.12417 -0.0123803 -0.0993785)
(9.40135 -0.0370787 0.00678313)
(9.24558 -0.053367 0.082688)
(8.03225 -0.0293861 -0.0288047)
(8.4627 0.0272851 -0.133572)
(8.68105 0.0431661 -0.0174111)
(8.6012 0.0229159 0.0622156)
(8.46357 0.0112294 0.0574776)
(8.09122 0.0201937 0.0973023)
(8.57394 -0.00132834 0.18925)
(9.21246 0.0260799 0.273541)
(9.67566 0.067884 0.237813)
(9.53349 0.0608261 0.183188)
(8.80443 -0.113915 -0.0678587)
(8.95079 -0.133803 -0.202461)
(9.04233 -0.0233491 -0.0911944)
(9.19292 0.0419982 0.0683058)
(8.75901 -0.0234665 0.0573482)
(8.36719 -0.110407 0.0426842)
(8.48258 -0.0680439 0.117192)
(8.65281 -0.0538717 0.199534)
(8.73405 -0.068802 -0.0130378)
(8.80248 -0.0800909 -0.242448)
(8.81434 -0.0623408 -0.112445)
(8.94009 0.00750029 0.0468124)
(9.04136 0.0104826 -0.0925039)
(8.96926 0.0351099 -0.162901)
(8.84134 0.0366736 -0.0896604)
(8.24586 0.0383012 -0.0899292)
(8.62396 0.0850126 -0.0375551)
(8.75572 0.0483119 -0.0155023)
(8.80979 0.0646013 -0.112874)
(9.19751 0.100655 -0.161512)
(9.41504 -0.110984 -0.0450813)
(9.30977 -0.222904 0.0741685)
(8.20766 -0.120995 0.0176687)
(8.59707 0.055502 -0.111875)
(8.79127 0.025499 -0.0237428)
(8.45068 0.0200495 0.0771804)
(8.23898 0.0754551 0.106353)
(8.04311 0.0905929 0.111459)
(8.65118 0.0373449 0.181034)
(9.34409 0.0825296 0.237254)
(9.70133 0.164296 0.270089)
(9.53159 0.104702 0.141467)
(8.83237 0.0315228 0.0511475)
(8.93539 -0.0750428 -0.140877)
(9.37724 -0.00523066 -0.0831836)
(9.42417 -0.00442208 0.015966)
(8.70495 -0.115625 0.0400773)
(8.40027 -0.190198 0.0557172)
(8.51338 -0.126749 0.113666)
(8.63208 -0.0960874 0.185755)
(8.68334 -0.126321 0.0283078)
(8.81577 -0.0787684 -0.161235)
(9.16726 -0.021811 -0.0574131)
(9.12621 0.0304526 -0.0120321)
(8.98883 0.022377 -0.193219)
(8.98051 0.0054827 -0.170129)
(8.68015 -0.0325626 -0.0474427)
(8.79442 -0.0198546 -0.0571245)
(8.87199 0.0533616 -0.0712977)
(8.32082 0.122114 -0.100466)
(8.84114 0.122325 -0.133142)
(9.10456 0.155236 -0.204635)
(8.85353 -0.0872676 -0.0934945)
(9.05257 -0.300092 0.0968968)
(8.95827 -0.210432 -0.0065632)
(8.34698 -0.0519732 -0.0895182)
(8.22986 -0.0868509 0.0747384)
(8.29083 0.0299829 0.0939158)
(8.17948 0.235182 0.14298)
(8.07827 0.207742 0.135175)
(8.70375 0.135988 0.135635)
(9.31514 0.192523 0.197933)
(9.65583 0.183963 0.185801)
(9.50921 0.157011 0.0938033)
(9.08282 0.0769051 -0.0702822)
(9.27192 0.0143384 -0.100705)
(9.50037 -0.0200582 -0.0185621)
(9.26373 -0.102196 0.0133464)
(8.06955 -0.258419 0.0539799)
(8.37588 -0.203204 0.100359)
(8.56778 -0.152768 0.126637)
(8.57052 -0.0883984 0.119882)
(8.96698 -0.082543 -0.0109428)
(9.12611 -0.0492342 -0.0668901)
(9.17323 -0.0175729 0.0445881)
(8.94062 0.00857125 -0.00689959)
(8.87164 0.00441691 -0.27275)
(8.9576 -0.0152767 -0.186906)
(8.53376 -0.0364825 -0.0321697)
(8.89646 -0.0377306 0.0686876)
(8.961 -0.006043 0.0124584)
(8.95366 0.0758756 -0.159722)
(9.07651 0.0717993 -0.158556)
(8.73862 -0.0396272 -0.171398)
(8.32187 -0.139856 -0.0591148)
(9.07817 -0.224494 0.0288427)
(9.21571 -0.200191 -0.0492797)
(8.25986 -0.0494585 -0.0304884)
(8.80601 -0.0427251 0.0973809)
(9.16674 0.0379388 0.0668088)
(8.85445 0.245382 0.109964)
(8.08567 0.343115 0.138968)
(8.67852 0.223937 0.10297)
(9.12876 0.272826 0.13479)
(9.51485 0.249695 0.169606)
(9.53605 0.282625 0.0172692)
(9.06737 0.198298 -0.0630231)
(9.02168 0.202736 0.0298573)
(9.22128 -0.0446902 0.00640902)
(9.06129 -0.233851 -0.0132812)
(7.97197 -0.474798 0.00863344)
(8.08517 -0.252485 0.098983)
(8.72654 -0.14368 0.150268)
(8.74897 -0.071733 0.0355268)
(8.81749 -0.0213341 -0.131808)
(8.96102 -0.0332135 -0.0792575)
(9.09713 -0.0244762 0.116668)
(9.02212 -0.0163297 0.000211295)
(8.91948 -0.0107685 -0.254564)
(8.92352 -0.0224175 -0.165529)
(8.40012 -0.0104723 -0.0310143)
(8.91993 0.0141541 0.111698)
(9.0286 0.0528746 -0.00578795)
(8.92774 0.023314 -0.196751)
(8.88002 -0.0905891 -0.119795)
(8.34837 -0.197339 -0.122456)
(8.74208 -0.27332 -0.0804217)
(9.03218 -0.160378 0.00801184)
(9.11914 -0.0393725 0.0178532)
(8.70852 0.048837 0.0365859)
(8.87072 0.0391857 0.100169)
(9.33297 -0.0293741 0.074703)
(9.09783 0.0533675 0.0578413)
(8.19668 0.431426 0.102283)
(8.6602 0.372355 0.09501)
(9.04032 0.292454 0.177303)
(9.41723 0.331986 0.16095)
(9.10615 0.283098 -0.145956)
(8.47979 0.0721216 -0.189083)
(8.80858 0.135393 -0.00537206)
(8.94686 0.00773222 -0.0288993)
(8.31712 -0.384431 -0.0511575)
(8.0994 -0.418148 0.073752)
(8.07821 -0.274655 0.144734)
(8.86758 -0.136959 0.166153)
(8.9897 -0.056576 0.0212233)
(8.85924 -0.00164362 -0.143624)
(8.92469 -0.0273672 -0.0852074)
(9.08148 -0.00918671 0.120593)
(9.04097 -0.00140303 0.00315594)
(8.91543 -0.0181714 -0.196872)
(8.88196 -0.0343631 -0.109927)
(8.26175 -0.0274763 -0.0223252)
(8.93962 0.0737749 0.0225821)
(9.13489 0.0852336 -0.0411267)
(8.55926 -0.0125636 -0.141449)
(8.12691 -0.110911 -0.0601903)
(8.60475 -0.250297 -0.115055)
(9.10244 -0.22307 -0.0900253)
(9.41036 -0.0507723 0.0350243)
(9.37664 -0.0186033 0.0532334)
(8.43481 -0.0542374 0.0370888)
(8.6445 -0.0679744 0.0455083)
(9.08239 -0.138221 0.0767408)
(9.13146 -0.0613911 0.0522948)
(8.86006 0.293691 0.0111459)
(8.69883 0.48792 0.0275403)
(9.00346 0.338308 0.159347)
(9.1069 0.498886 0.16832)
(8.93164 0.210371 -0.09495)
(8.49303 0.215971 0.00352606)
(8.23596 0.0923707 0.0796245)
(8.26628 -0.183846 -0.00210356)
(8.19265 -0.237094 0.0130358)
(8.03131 -0.196379 0.119629)
(8.24674 -0.143 0.150749)
(9.04694 -0.0824655 0.15521)
(9.09904 -0.000540734 0.022888)
(8.8531 0.0638447 -0.136552)
(8.93541 0.0220948 -0.0667541)
(9.11384 0.0170388 0.105616)
(9.03912 0.0134166 -0.00151972)
(8.85413 -0.0140379 -0.167806)
(8.77576 -0.0373785 -0.0878552)
(8.92122 -0.00189719 0.0813049)
(9.02788 0.0647523 0.0359304)
(8.78963 0.0307954 -0.135571)
(8.53031 -0.0384536 -0.130854)
(7.99895 -0.0834222 -0.00758539)
(8.58991 -0.113883 -0.0661789)
(9.19467 -0.0720645 -0.0249953)
(9.44044 -0.0336307 0.0608584)
(9.23737 -0.0983172 0.0194393)
(8.61723 -0.11515 -0.036157)
(8.87899 -0.13053 0.0153965)
(9.16333 -0.154208 0.045947)
(9.49202 -0.0724047 0.0234177)
(9.40237 0.113916 -0.00342087)
(8.31161 0.378734 0.0116461)
(8.78608 0.201374 0.0170985)
(9.0508 0.188054 -0.0267633)
(9.02665 0.0783716 -0.143843)
(8.83551 0.103461 -0.0361276)
(8.18562 0.0424601 0.0533861)
(8.15405 -0.040534 0.000629698)
(8.08703 -0.0504917 0.058436)
(8.06292 -0.0174643 0.114282)
(8.68274 -0.0384793 0.180162)
(9.16122 -0.033972 0.147149)
(9.13605 0.00474165 0.00480632)
(8.713 0.0513791 -0.132833)
(8.75708 0.0230189 -0.0340164)
(9.12014 0.0123331 0.0881841)
(8.96438 0.00948145 0.00468284)
(8.74339 0.000668497 -0.112739)
(8.68708 -0.0010934 -0.0588864)
(8.87746 0.0027991 0.0990957)
(8.93877 0.0190408 -0.00450206)
(8.68168 0.00237221 -0.205782)
(8.48984 -0.0270179 -0.147203)
(7.92659 -0.0319868 0.0123586)
(8.49389 -0.025735 0.0159943)
(9.1329 -0.0123225 0.0848487)
(9.35519 -0.013571 0.0769166)
(9.17781 -0.0294915 -0.0167801)
(8.33137 -0.070057 -0.105395)
(8.7917 -0.0473508 -0.0184242)
(8.81611 -0.0129725 0.0297618)
(9.24739 -0.0815612 0.0229062)
(9.14594 -0.0378365 0.0177447)
(8.43935 0.0776017 0.0842776)
(8.75544 0.071699 -0.0367594)
(8.9394 0.0367357 -0.0981972)
)
;
    }
    procBoundary1to2
    {
        type            processor;
        value           nonuniform List<vector> 
256
(
(8.55473 -0.0978805 -0.193498)
(8.93612 0.0370109 -0.200347)
(9.33303 0.0178564 -0.00198643)
(9.35607 0.0247327 0.172089)
(9.06889 0.0307208 0.0574694)
(8.1136 -0.0329691 -0.237878)
(7.63234 -0.0474506 -0.0590373)
(8.50625 -0.0324855 -0.124056)
(8.75993 -0.0199548 -0.173833)
(8.13651 -0.0689567 -0.0843475)
(8.72785 0.0284976 0.0662581)
(9.16215 0.0426331 -0.0151111)
(8.87648 0.0208876 -0.0884306)
(8.71616 0.0393213 -0.109598)
(8.99403 0.00838694 -0.0192856)
(8.85578 -0.00580033 0.0352941)
(8.91016 -0.0159123 -0.0520564)
(8.75648 -0.0153429 0.0532945)
(8.36895 0.0559661 0.224096)
(8.59769 0.0385533 0.16186)
(8.69629 -0.0456508 -0.0311211)
(8.50574 -0.0925178 -0.321395)
(9.00438 -0.0116161 -0.353426)
(9.03997 0.0263952 -0.252611)
(8.89936 0.0452797 -0.0981922)
(8.97716 0.0549079 -0.0570692)
(8.76609 0.0358446 0.120201)
(8.46042 0.028868 0.305282)
(8.78731 0.0510232 0.290553)
(8.6242 0.146357 0.261307)
(9.15192 -0.0512892 0.32992)
(9.25589 -0.140719 0.22328)
(9.0885 0.0167622 -0.254271)
(9.3083 0.0459779 -0.124326)
(9.33426 -0.0573516 0.13733)
(9.37092 -0.0297135 0.308365)
(9.04379 0.0145468 0.149547)
(8.08888 -0.0888115 -0.290807)
(7.70662 -0.0622609 -0.135888)
(8.5946 -0.028535 -0.093342)
(8.92251 -0.0129609 -0.148473)
(8.58593 -0.0189369 -0.0623419)
(8.84593 -0.00673805 0.0646203)
(8.92939 -0.0315713 0.00655157)
(8.88977 -0.0500519 -0.11589)
(8.85752 0.0159054 -0.0457193)
(8.79369 -0.0187606 0.046313)
(8.88637 0.0466159 0.000363876)
(9.0523 0.044033 -0.0708783)
(8.92751 -0.0434012 0.101026)
(8.85886 0.0190838 0.186328)
(8.89624 0.00867616 0.0533137)
(8.48763 -0.0651277 0.0363957)
(8.74582 -0.0969833 -0.155271)
(9.30056 -0.0762465 -0.295287)
(9.23416 -0.0704186 -0.192783)
(8.95371 0.0212103 -0.105865)
(9.05241 0.141959 -0.0910471)
(8.8163 0.145113 0.050298)
(8.69376 0.0803046 0.236384)
(9.11093 0.0971821 0.141949)
(8.90802 0.190563 0.200812)
(8.95714 -0.0104749 0.395085)
(9.00437 -0.125566 0.182957)
(9.27279 0.189164 -0.0890668)
(9.07974 0.0412489 -0.0253785)
(8.96725 -0.145578 0.146087)
(9.31945 -0.172553 0.160369)
(8.9976 -0.141833 0.0327877)
(8.06613 -0.10695 -0.179907)
(7.70028 0.00128281 -0.0725142)
(8.60242 -0.00297117 -0.0599313)
(8.85369 -0.0388075 -0.0564326)
(8.18444 -0.0936698 -0.0721353)
(8.76536 -0.0363414 -0.00333162)
(9.19201 -0.025065 -0.0417067)
(9.21255 -0.0901314 -0.151035)
(8.84795 -0.0960885 -0.084972)
(8.2457 0.0314975 -0.00451164)
(8.94321 0.0438559 -0.121417)
(9.01345 -0.0411269 -0.0862049)
(8.87645 -0.0698791 0.169405)
(8.87124 -0.0331066 0.181594)
(8.56215 -0.0568135 0.0898649)
(8.56411 0.0309755 0.0685216)
(8.6046 0.115296 -0.18859)
(9.13601 -0.0353251 -0.249999)
(9.26902 -0.0426693 -0.0883115)
(9.10596 0.0254843 -0.00238288)
(9.05885 0.114483 -0.0018976)
(8.78479 0.142005 0.0477251)
(8.65481 0.0616125 0.114274)
(9.02377 -0.0255619 0.101744)
(8.83041 -0.0340731 0.182725)
(8.88499 0.117518 0.271309)
(9.28942 0.207853 0.0989157)
(9.14892 -0.0864193 0.104713)
(8.7775 0.0847616 -0.115485)
(9.0152 0.0300994 -0.0523301)
(9.30308 -0.286595 -0.00530112)
(9.09217 -0.346348 -0.0422334)
(8.33664 -0.2793 0.0224316)
(7.89992 -0.095548 0.0807331)
(7.78515 0.0947112 0.0582107)
(8.58161 -0.0547652 -0.0232918)
(8.80337 -0.0859602 -0.101122)
(8.95379 -0.145531 -0.181106)
(8.92909 -0.112665 -0.0757116)
(8.31899 0.0928909 0.036316)
(8.83079 0.119711 0.105208)
(8.86654 0.087065 0.0375764)
(8.59978 -0.0485603 -0.111333)
(9.00063 -0.106801 -0.00525756)
(9.11566 -0.0643077 0.00474507)
(8.87207 0.00356757 0.0456273)
(8.82485 -0.0575645 0.150973)
(8.8785 0.0438461 0.0258032)
(9.01836 0.250549 -0.169158)
(8.99104 0.166419 -0.142368)
(8.85823 0.0455678 0.0229445)
(9.24153 0.0131292 0.0529372)
(9.26238 -0.0618259 0.0189308)
(8.7999 -0.137092 0.0260685)
(8.4602 0.00701888 -0.081348)
(8.8408 0.111239 0.0226742)
(8.74932 0.229945 0.122488)
(8.86391 0.276206 0.16679)
(9.27276 0.106018 0.137207)
(9.00864 0.00631695 0.025115)
(8.99805 0.102151 -0.0180586)
(8.93415 0.243624 -0.039966)
(8.98021 -0.0214739 -0.0441792)
(9.00223 -0.407467 -0.0357584)
(8.89495 -0.366058 0.0222496)
(8.29081 -0.156456 0.0308068)
(7.83457 0.0846734 0.112022)
(8.57262 0.0711662 0.0629775)
(8.98347 0.0388871 -0.0850867)
(8.89322 0.0199719 -0.11629)
(8.47721 0.0684445 -0.0409372)
(8.76759 0.102535 0.0855012)
(8.78975 0.00576087 0.162446)
(8.25515 -0.0263783 0.0489973)
(8.71473 0.00468317 -0.0337174)
(9.12178 -0.0110551 0.000179203)
(8.94502 -0.0526273 -0.0109743)
(8.6383 -0.0123829 0.00650725)
(8.49543 3.12904e-05 0.0174476)
(8.54688 -0.0168326 -0.050756)
(9.07034 0.0379127 -0.0331451)
(9.00872 0.00828442 -0.00356656)
(8.908 0.0336857 -0.0508735)
(9.05132 -0.0426066 -0.0612115)
(8.65093 -0.180138 0.0139151)
(8.88182 -0.259145 0.0626011)
(8.85795 -0.0579946 -0.100051)
(8.95978 0.290788 0.0219092)
(9.26962 0.199658 0.142523)
(9.11614 0.252991 -0.0292272)
(8.54731 0.073566 -0.110837)
(9.35072 0.208004 -0.10943)
(9.09084 0.27841 -0.105031)
(8.54685 0.142108 -0.0184592)
(8.50222 0.0382451 0.00187711)
(8.40464 -0.22489 0.0240815)
(8.97088 -0.233092 0.0965005)
(9.11707 -0.114319 0.0823699)
(8.59209 -0.0013429 0.1471)
(8.56336 0.0587373 0.131637)
(8.78882 0.0345147 0.0554189)
(8.50719 0.10522 -0.0637944)
(8.99087 0.18273 0.0241338)
(8.96805 0.124574 0.093741)
(8.52143 -0.0670966 0.0706003)
(8.98039 -0.0730304 -0.0380623)
(9.11863 0.0212164 -0.0321813)
(8.9457 0.12639 -0.00440159)