/*--------------------------------*- C++ -*----------------------------------*\
| =========                 |                                                 |
| \\      /  F ield         | OpenFOAM: The Open Source CFD Toolbox           |
|  \\    /   O peration     | Version:  2506                                  |
|   \\  /    A nd           | Website:  www.openfoam.com                      |
|    \\/     M anipulation  |                                                 |
\*---------------------------------------------------------------------------*/
FoamFile
{
    version     2.0;
    format      ascii;
    arch        "LSB;label=32;scalar=64";
    class       volScalarField;
    location    "0.06";
    object      Ksl;
}
// * * * * * * * * * * * * * * * * * * * * * * * * * * * * * * * * * * * * * //

dimensions      [1 -3 -1 0 0 0 0];

internalField   nonuniform List<scalar> 
1152
(
129280
295193
150025
175971
77065.4
101664
141595
2.33435e+06
147475
111378
109775
63545.8
105310
93142.9
117007
92879.1
227485
267788
167954
2.8488e+07
342159
241145
184985
175670
209408
268511
800036
174415
307574
165644
254680
325715
194879
825290
230510
119885
132566
149225
592065
154625
323158
211561
153478
252862
105113
588386
202410
272919
164047
5.25918e+06
271101
174165
217393
217570
279697
229041
1.03001e+06
253757
284450
213179
320311
242817
216907
3.31647e+06
3.04696e+06
191648
210583
129702
194429
202855
250862
369336
338994
221983
315999
114473
167915
255418
173976
630097
117185
305316
268569
4.25274e+06
219272
211745
435841
190653
247688
291320
129102
393640
104571
171168
195358
2.21072e+06
99746.6
79496.7
72376.9
70165.2
49167.6
68253.7
119740
97878.2
62154.8
69303.8
115524
66591.7
38887.7
87593.8
124324
117630
0
0
0
0
0
0
0
0
0
0
0
0
0
0
0
0
0
0
0
0
0
0
0
0
0
0
0
0
0
0
0
0
0
0
0
0
0
0
0
0
0
0
0
0
0
0
0
0
0
0
0
0
0
0
0
0
0
0
0
0
0
0
0
0
0
0
0
0
0
0
0
0
0
0
0
0
0
0
0
0
0
0
0
0
0
0
0
0
0
0
0
0
0
0
0
0
0
0
0
0
0
0
0
0
0
0
0
0
0
0
0
0
0
0
0
0
0
0
0
0
0
0
0
0
0
0
0
0
0
0
0
0
0
0
0
0
0
0
0
0
0
0
0
0
0
0
0
0
0
0
0
0
0
0
0
0
0
0
0
0
0
0
0
0
0
0
0
0
0
0
0
0
0
0
0
0
0
0
0
0
0
0
0
0
0
0
0
0
0
0
0
0
0
0
0
0
0
0
0
0
0
0
0
0
0
0
0
0
0
0
0
0
0
0
0
0
0
0
0
0
0
0
0
0
0
0
0
0
0
0
0
0
0
0
0
0
0
0
0
0
0
0
0
0
0
0
0
0
0
0
0
0
0
0
0
0
0
0
0
0
0
0
0
0
0
0
0
0
0
0
0
0
73208.4
239959
65667.8
138218
121657
117495
131594
124058
107325
103611
107024
106136
92679.7
153376
95512.5
114238
120346
156920
259444
917535
171097
1.22138e+06
287587
281736
353418
119010
191670
221317
168865
268710
165192
296238
423953
195329
202024
120764
229035
197960
448035
139212
217275
283715
168405
317890
174487
184810
229641
251792
278890
347473
572103
165864
220428
139259
299653
250617
226730
168102
164849
351404
175042
339852
207005
165716
122379
189499
154266
204317
914301
370947
280124
444406
297689
223267
142079
182435
211680
126386
584010
228032
4.81757e+06
354043
305322
864392
108267
161054
297743
105068
335170
180764
152946
6.34053e+06
155347
318548
245200
97751
129923
47132.5
54124.4
42369.2
74465
84808.6
40555
84299.9
80537.6
63595.7
44933.8
47874.1
54040.4
30139.9
69483.6
18409.7
0
0
0
0
0
0
0
0
0
0
0
0
0
0
0
0
0
0
0
0
0
0
0
0
0
0
0
0
0
0
0
0
0
0
0
0
0
0
0
0
0
0
0
0
0
0
0
0
0
0
0
0
0
0
0
0
0
0
0
0
0
0
0
0
0
0
0
0
0
0
0
0
0
0
0
0
0
0
0
0
0
0
0
0
0
0
0
0
0
0
0
0
0
0
0
0
0
0
0
0
0
0
0
0
0
0
0
0
0
0
0
0
0
0
0
0
0
0
0
0
0
0
0
0
0
0
0
0
0
0
0
0
0
0
0
0
0
0
0
0
0
0
0
0
0
0
0
0
0
0
0
0
0
0
0
0
0
0
0
0
0
0
0
0
0
0
0
0
0
0
0
0
0
0
0
0
0
0
0
0
0
0
0
0
0
0
0
0
0
0
0
0
0
0
0
0
0
0
0
0
0
0
0
0
0
0
0
0
0
0
0
0
0
0
0
0
0
0
0
0
0
0
0
0
0
0
0
0
0
0
0
0
0
0
0
0
0
0
0
0
0
0
0
0
0
0
0
0
0
0
0
0
0
0
0
0
0
0
0
0
0
0
0
0
0
0
0
0
0
0
0
0
109923
78329.3
154835
102496
312199
96261.8
133125
102127
97957.7
96882.9
141505
92010.9
122794
234379
68137.8
148727
462737
219320
560444
588768
139523
333955
205195
210837
119103
222864
252845
120647
225502
149552
299990
234153
158144
106093
228256
146773
1.21385e+06
161012
232825
720598
118106
2.17551e+06
177089
1.15608e+06
355732
132175
197607
267660
308483
150918
249139
222587
287640
199439
171423
590578
167351
134621
1.23829e+07
107265
174606
320435
184495
351551
136230
240824
420691
171262
225425
210898
185840
224908
256088
195261
299101
236236
172401
226130
188833
280896
224419
94498.9
292524
157543
190167
180749
196863
512268
223287
125829
201293
130293
251379
289348
310203
453343
35008.9
15906.8
47066.5
22612.6
35742.5
90397.1
44439.6
92605.2
47580.5
57418.8
64201.5
59089.1
68071
74040.7
46169.3
33960.2
0
0
0
0
0
0
0
0
0
0
0
0
0
0
0
0
0
0
0
0
0
0
0
0
0
0
0
0
0
0
0
0
0
0
0
0
0
0
0
0
0
0
0
0
0
0
0
0
0
0
0
0
0
0
0
0
0
0
0
0
0
0
0
0
0
0
0
0
0
0
0
0
0
0
0
0
0
0
0
0
0
0
0
0
0
0
0
0
0
0
0
0
0
0
0
0
0
0
0
0
0
0
0
0
0
0
0
0
0
0
0
0
0
0
0
0
0
0
0
0
0
0
0
0
0
0
0
0
0
0
0
0
0
0
0
0
0
0
0
0
0
0
0
0
0
0
0
0
0
0
0
0
0
0
0
0
0
0
0
0
0
0
0
0
0
0
0
0
0
0
0
0
0
0
0
0
0
0
0
0
0
0
0
0
0
0
0
0
0
0
0
0
0
0
0
0
0
0
0
0
0
0
0
0
0
0
0
0
0
0
0
0
0
0
0
0
0
0
0
0
0
0
0
0
0
0
0
0
0
0
0
0
0
0
0
0
0
0
0
0
0
0
0
0
0
0
0
0
0
0
0
0
0
0
0
0
0
0
0
0
0
0
0
0
0
0
0
0
0
0
0
0
)
;

boundaryField
{
    inlet
    {
        type            zeroGradient;
    }
    outlet
    {
        type            zeroGradient;
    }
    wall
    {
        type            zeroGradient;
    }
    procBoundary2to0
    {
        type            processor;
        value           nonuniform List<scalar> 
192
(
141281
56962.6
98750
115516
169746
441168
203402
264826
387168
136947
435109
468484
401094
106384
254146
118005
153662
504647
380317
5.16896e+06
226650
148581
184722
282195
31080.3
116573
172009
85174.3
0
0
0
0
0
0
0
0
0
0
0
0
0
0
0
0
0
0
0
0
0
0
0
0
0
0
0
0
0
0
0
0
0
0
0
0
0
0
0
0
0
0
0
0
0
0
0
0
0
0
0
0
0
0
0
0
0
0
0
0
0
0
0
0
0
0
0
0
186134
185226
90710.3
94179.6
225750
194364
194602
198153
307892
506244
492301
170694
155880
834559
287224
203065
295782
227120
186607
266699
150681
272948
165975
156206
76838.4
45723
17067.7
36621.3
0
0
0
0
0
0
0
0
0
0
0
0
0
0
0
0
0
0
0
0
0
0
0
0
0
0
0
0
0
0
0
0
0
0
0
0
0
0
0
0
0
0
0
0
0
0
0
0
0
0
0
0
0
0
0
0
0
0
0
0
0
0
0
0
0
0
0
0
)
;
    }
    procBoundary2to3
    {
        type            processor;
        value           nonuniform List<scalar> 
192
(
52094.2
55357.3
373016
155472
113379
149241
9.15239e+06
148048
445542
936399
187587
310751
614655
163390
266873
156908
8.00244e+06
346071
321433
194432
99510
114950
352852
128978
787423
89662.2
83164.9
357443
0
0
0
0
0
0
0
0
0
0
0
0
0
0
0
0
0
0
0
0
0
0
0
0
0
0
0
0
0
0
0
0
0
0
0
0
0
0
0
0
0
0
0
0
0
0
0
0
0
0
0
0
0
0
0
0
0
0
0
0
0
0
0
0
0
0
0
0
82190
135335
91208.4
756493
174733
193270
228424
115621
467794
631162
218276
351880
368831
275736
162286
233001
233868
132124
1.0451e+07
269685
96065.9
3.67925e+06
135269
252522
222762
38369.3
41316.1
42689
0
0
0
0
0
0
0
0
0
0
0
0
0
0
0
0
0
0
0
0
0
0
0
0
0
0
0
0
0
0
0
0
0
0
0
0
0
0
0
0
0
0
0
0
0
0
0
0
0
0
0
0
0
0
0
0
0
0
0
0
0
0
0
0
0
0
0
0
)
;
    }
}


// ************************************************************************* //
