/*--------------------------------*- C++ -*----------------------------------*\
| =========                 |                                                 |
| \\      /  F ield         | OpenFOAM: The Open Source CFD Toolbox           |
|  \\    /   O peration     | Version:  2506                                  |
|   \\  /    A nd           | Website:  www.openfoam.com                      |
|    \\/     M anipulation  |                                                 |
\*---------------------------------------------------------------------------*/
FoamFile
{
    version     2.0;
    format      ascii;
    arch        "LSB;label=32;scalar=64";
    class       volScalarField;
    location    "0.06";
    object      p;
}
// * * * * * * * * * * * * * * * * * * * * * * * * * * * * * * * * * * * * * //

dimensions      [0 2 -2 0 0 0 0];

internalField   nonuniform List<scalar> 
1152
(
17.7278
17.8322
17.7231
17.584
17.5967
17.6679
17.6979
17.6371
17.5774
17.6468
17.6627
17.5288
17.4567
17.5245
17.6037
17.6129
15.3283
15.3967
15.2477
14.8057
15.3883
15.3201
15.3521
14.9845
15.4025
15.4364
15.4104
15.6353
15.1842
15.4974
15.5103
15.6038
11.9629
12.3172
12.8129
13.3631
12.0788
12.1957
12.5136
12.6965
12.3068
12.1926
12.1733
12.3608
12.1944
12.282
12.0961
12.1474
8.71452
8.41827
8.93601
9.20238
8.90441
8.88644
8.86742
9.20105
8.71345
8.77769
8.92251
8.60535
8.87283
8.51469
8.56758
8.80298
4.78649
5.25808
5.39252
5.53359
5.10219
5.25005
5.38688
5.37901
4.83901
5.1148
5.05107
5.34268
4.70949
4.92476
5.10898
5.22693
1.74337
1.867
1.94004
2.05392
1.64706
1.86015
2.04513
2.06353
1.6293
1.83414
2.14377
2.17193
1.7452
1.89375
2.14333
1.78498
1.01108
1.013
1.01582
1.0248
1.01656
1.0171
1.00775
1.01295
1.01091
1.01498
1.01789
1.02205
1.01336
1.00943
1.00973
1.00666
1.00087
1.00101
1.00111
1.00094
1.00074
1.00096
1.00095
1.00089
0.999883
1.0005
1.00095
1.00141
0.998699
0.999467
1.00017
1.00047
1.00713
1.00717
1.00725
1.0083
1.0071
1.00714
1.0069
1.00759
1.00722
1.00721
1.00728
1.0078
1.00765
1.00704
1.00686
1.00689
1.00476
1.00474
1.00473
1.00504
1.00468
1.00471
1.00468
1.00493
1.00466
1.0047
1.00477
1.00497
1.00461
1.00457
1.00462
1.00472
1.00484
1.00485
1.00486
1.00501
1.00482
1.00484
1.00487
1.00499
1.00484
1.00486
1.0049
1.00499
1.00484
1.00483
1.00487
1.00494
1.00444
1.00446
1.00448
1.00455
1.00443
1.00446
1.00449
1.00455
1.00444
1.00446
1.0045
1.00455
1.00443
1.00445
1.00448
1.00454
1.0041
1.00411
1.00413
1.00417
1.00409
1.00411
1.00414
1.00418
1.0041
1.00412
1.00415
1.00418
1.0041
1.00412
1.00414
1.00418
1.00375
1.00377
1.00379
1.00381
1.00375
1.00377
1.00379
1.00382
1.00376
1.00378
1.0038
1.00382
1.00376
1.00378
1.0038
1.00382
1.0034
1.00342
1.00343
1.00345
1.00341
1.00342
1.00344
1.00346
1.00341
1.00342
1.00344
1.00346
1.00341
1.00343
1.00344
1.00346
1.00305
1.00306
1.00307
1.00309
1.00306
1.00307
1.00308
1.00309
1.00306
1.00307
1.00308
1.00309
1.00306
1.00307
1.00308
1.0031
1.0027
1.00271
1.00272
1.00273
1.0027
1.00271
1.00272
1.00273
1.00271
1.00271
1.00272
1.00273
1.00271
1.00271
1.00272
1.00273
1.00234
1.00235
1.00236
1.00236
1.00235
1.00235
1.00236
1.00236
1.00235
1.00235
1.00236
1.00237
1.00235
1.00235
1.00236
1.00237
1.00199
1.00199
1.00199
1.002
1.00199
1.00199
1.002
1.002
1.00199
1.00199
1.002
1.002
1.00199
1.00199
1.002
1.002
1.00163
1.00163
1.00163
1.00164
1.00163
1.00163
1.00163
1.00164
1.00163
1.00163
1.00163
1.00164
1.00163
1.00163
1.00164
1.00164
1.00127
1.00127
1.00127
1.00127
1.00127
1.00127
1.00127
1.00127
1.00127
1.00127
1.00127
1.00127
1.00127
1.00127
1.00127
1.00127
1.0009
1.00091
1.00091
1.00091
1.0009
1.00091
1.00091
1.00091
1.00091
1.00091
1.00091
1.00091
1.00091
1.00091
1.00091
1.00091
1.00054
1.00054
1.00054
1.00055
1.00054
1.00054
1.00054
1.00055
1.00054
1.00054
1.00055
1.00055
1.00054
1.00054
1.00055
1.00055
1.00018
1.00018
1.00018
1.00018
1.00018
1.00018
1.00018
1.00018
1.00018
1.00018
1.00018
1.00018
1.00018
1.00018
1.00018
1.00018
17.3395
17.5334
17.5218
17.6571
17.3381
17.5365
17.5839
17.6355
17.317
17.3497
17.4321
17.5446
17.2302
17.4403
17.3652
17.5825
15.3393
15.2953
15.7127
14.9119
15.2646
15.2444
15.5166
15.0638
15.1975
15.2295
15.2759
15.4299
15.1754
15.1324
15.3519
15.3672
12.3152
12.1726
12.1109
11.8728
12.0484
11.713
11.9029
11.901
11.9074
11.9989
11.8608
11.9205
11.9064
11.9336
11.9991
11.5687
8.40637
8.52665
8.42378
8.81719
8.66688
8.55853
8.42022
8.79871
8.68573
8.43895
8.39508
8.18974
8.65885
8.23431
8.58504
8.1697
4.91234
5.03986
5.04323
5.25988
4.83986
5.24886
4.98917
4.56159
5.26869
5.15888
5.01971
4.77773
5.23095
5.07965
5.0857
4.37422
1.96594
1.66199
1.77989
1.59027
1.82811
1.77782
1.51988
1.69644
1.74378
1.75176
1.73279
1.39014
1.80058
1.59541
1.50555
1.34872
0.978629
1.0047
1.01417
1.0165
1.00003
1.00661
1.01395
1.01035
1.00851
1.01738
1.01835
1.00835
1.02035
1.02063
1.00885
1.01545
0.99611
0.998392
0.999936
1.00079
0.997113
0.998513
1.0003
1.0007
0.998508
0.999694
1.00057
1.00121
0.999452
1.0006
1.00048
1.00238
1.0081
1.00737
1.00721
1.00728
1.00735
1.0069
1.00692
1.00691
1.00695
1.00704
1.0069
1.00671
1.00717
1.00734
1.00658
1.00724
1.00456
1.00457
1.00466
1.00479
1.00444
1.00449
1.00459
1.00471
1.00439
1.00455
1.00458
1.00469
1.00435
1.00456
1.00444
1.00477
1.00487
1.00485
1.00487
1.00494
1.00485
1.00483
1.00482
1.00491
1.00483
1.00484
1.00479
1.00491
1.00485
1.00488
1.00479
1.00495
1.00442
1.00445
1.00448
1.00454
1.00441
1.00444
1.00445
1.00453
1.0044
1.00444
1.00444
1.00453
1.00438
1.00443
1.00442
1.00453
1.0041
1.00412
1.00414
1.00418
1.0041
1.00411
1.00413
1.00418
1.0041
1.00411
1.00412
1.00418
1.00409
1.00412
1.00411
1.00418
1.00376
1.00378
1.0038
1.00382
1.00376
1.00377
1.00379
1.00382
1.00376
1.00377
1.00379
1.00382
1.00376
1.00377
1.00378
1.00382
1.00342
1.00343
1.00344
1.00346
1.00341
1.00343
1.00344
1.00346
1.00341
1.00343
1.00344
1.00346
1.00341
1.00343
1.00344
1.00346
1.00306
1.00307
1.00308
1.0031
1.00306
1.00307
1.00308
1.0031
1.00306
1.00307
1.00308
1.0031
1.00306
1.00307
1.00308
1.0031
1.00271
1.00272
1.00272
1.00273
1.00271
1.00271
1.00272
1.00273
1.00271
1.00271
1.00272
1.00273
1.00271
1.00271
1.00272
1.00273
1.00235
1.00236
1.00236
1.00237
1.00235
1.00236
1.00236
1.00237
1.00235
1.00236
1.00236
1.00237
1.00235
1.00236
1.00236
1.00237
1.00199
1.00199
1.002
1.002
1.00199
1.00199
1.002
1.00201
1.00199
1.00199
1.002
1.00201
1.00199
1.00199
1.002
1.00201
1.00163
1.00163
1.00164
1.00164
1.00163
1.00163
1.00164
1.00164
1.00163
1.00163
1.00164
1.00164
1.00163
1.00163
1.00164
1.00164
1.00127
1.00127
1.00127
1.00128
1.00127
1.00127
1.00127
1.00128
1.00127
1.00127
1.00127
1.00128
1.00127
1.00127
1.00127
1.00128
1.00091
1.00091
1.00091
1.00091
1.00091
1.00091
1.00091
1.00091
1.00091
1.00091
1.00091
1.00091
1.00091
1.00091
1.00091
1.00091
1.00054
1.00054
1.00055
1.00055
1.00054
1.00054
1.00055
1.00055
1.00054
1.00054
1.00055
1.00055
1.00054
1.00054
1.00055
1.00055
1.00018
1.00018
1.00018
1.00018
1.00018
1.00018
1.00018
1.00018
1.00018
1.00018
1.00018
1.00018
1.00018
1.00018
1.00018
1.00018
17.6152
17.5089
17.7692
17.7039
17.4627
17.4817
17.5899
17.5695
17.057
17.245
17.4017
17.4012
17.2736
17.3305
17.3127
17.3942
15.0141
14.8838
15.1086
15.3046
15
15.0665
15.2018
15.5513
14.8982
15.1771
15.1958
15.4402
15.0478
14.9326
15.2737
15.299
11.5675
11.6279
11.6585
11.7932
12.2063
11.7325
11.735
12.1349
11.9911
11.7236
11.6766
11.8437
11.8265
11.9266
11.8932
12.0799
8.20055
8.65392
8.624
8.58821
8.25474
8.55774
8.60681
8.4904
8.89923
8.55957
8.91723
8.64887
8.58226
8.76956
8.65052
8.66287
4.61598
4.52682
4.85016
4.78629
4.72488
4.95021
5.07459
5.01574
5.39384
5.19062
5.07781
5.19127
5.45155
5.34837
5.2583
5.07435
1.48926
1.3595
1.30363
1.41818
1.48979
1.70503
1.60085
1.62535
1.63725
1.80483
1.6842
1.72178
1.91485
1.79118
1.62278
1.48578
1.01518
1.01918
1.00991
1.0177
1.01537
1.01
1.01472
1.00726
1.017
1.01837
1.0098
1.01287
1.0152
1.00655
1.00741
1.00547
1.00143
1.00274
1.0013
1.00166
1.00067
1.00028
1.00069
1.00043
1.00027
1.00003
0.999639
0.999648
0.999606
0.998959
0.998587
0.998457
1.00743
1.00755
1.007
1.00727
1.00693
1.00661
1.00676
1.00674
1.00732
1.00721
1.00704
1.00716
1.00687
1.00666
1.007
1.00738
1.00489
1.005
1.00483
1.00484
1.00455
1.00455
1.00458
1.00459
1.00458
1.00463
1.0046
1.00462
1.00428
1.00432
1.00436
1.00444
1.00491
1.00489
1.00485
1.00486
1.00478
1.00474
1.00475
1.00478
1.00487
1.00483
1.00482
1.00483
1.0048
1.00478
1.0048
1.00483
1.00445
1.00445
1.00445
1.00445
1.00437
1.00438
1.00439
1.00441
1.00441
1.00442
1.00442
1.00442
1.00435
1.00437
1.00438
1.0044
1.00409
1.00409
1.00409
1.00409
1.00406
1.00406
1.00407
1.00408
1.00409
1.00409
1.00409
1.00409
1.00407
1.00407
1.00408
1.00409
1.00374
1.00374
1.00374
1.00374
1.00373
1.00373
1.00373
1.00374
1.00374
1.00375
1.00375
1.00375
1.00374
1.00374
1.00375
1.00375
1.00339
1.00339
1.00339
1.0034
1.00339
1.00339
1.00339
1.0034
1.0034
1.0034
1.0034
1.00341
1.0034
1.0034
1.0034
1.00341
1.00304
1.00304
1.00304
1.00305
1.00304
1.00304
1.00305
1.00305
1.00305
1.00305
1.00305
1.00305
1.00305
1.00305
1.00306
1.00306
1.00269
1.00269
1.00269
1.00269
1.00269
1.00269
1.00269
1.0027
1.00269
1.0027
1.0027
1.0027
1.0027
1.0027
1.0027
1.0027
1.00233
1.00233
1.00234
1.00234
1.00234
1.00234
1.00234
1.00234
1.00234
1.00234
1.00234
1.00234
1.00234
1.00234
1.00235
1.00235
1.00198
1.00198
1.00198
1.00198
1.00198
1.00198
1.00198
1.00198
1.00198
1.00198
1.00198
1.00199
1.00199
1.00199
1.00199
1.00199
1.00162
1.00162
1.00162
1.00162
1.00162
1.00162
1.00162
1.00162
1.00162
1.00162
1.00162
1.00163
1.00163
1.00163
1.00163
1.00163
1.00126
1.00126
1.00126
1.00126
1.00126
1.00126
1.00126
1.00126
1.00126
1.00126
1.00126
1.00127
1.00127
1.00127
1.00127
1.00127
1.0009
1.0009
1.0009
1.0009
1.0009
1.0009
1.0009
1.0009
1.0009
1.0009
1.0009
1.0009
1.0009
1.0009
1.0009
1.00091
1.00054
1.00054
1.00054
1.00054
1.00054
1.00054
1.00054
1.00054
1.00054
1.00054
1.00054
1.00054
1.00054
1.00054
1.00054
1.00054
1.00018
1.00018
1.00018
1.00018
1.00018
1.00018
1.00018
1.00018
1.00018
1.00018
1.00018
1.00018
1.00018
1.00018
1.00018
1.00018
)
;

boundaryField
{
    inlet
    {
        type            zeroGradient;
    }
    outlet
    {
        type            fixedValue;
        value           uniform 1;
    }
    wall
    {
        type            zeroGradient;
    }
    procBoundary2to0
    {
        type            processor;
        value           nonuniform List<scalar> 
192
(
17.7244
17.6383
17.7159
17.8049
15.511
15.7463
15.7592
15.792
12.1887
11.9288
12.3193
12.1251
8.34718
8.71417
8.76419
8.83044
4.8038
5.43563
5.29987
5.95021
1.53074
1.88258
2.00036
1.9458
1.01873
1.00995
1.00167
1.00262
1.00122
1.00077
1.00051
1.00002
1.00715
1.00689
1.00646
1.00733
1.00472
1.00464
1.00452
1.0048
1.0048
1.0048
1.00479
1.00493
1.00442
1.00443
1.00445
1.00452
1.00408
1.0041
1.00412
1.00416
1.00374
1.00376
1.00378
1.0038
1.0034
1.00341
1.00343
1.00345
1.00305
1.00306
1.00307
1.00308
1.0027
1.0027
1.00271
1.00272
1.00234
1.00235
1.00235
1.00236
1.00198
1.00199
1.00199
1.002
1.00162
1.00163
1.00163
1.00164
1.00126
1.00127
1.00127
1.00127
1.0009
1.00091
1.00091
1.00091
1.00054
1.00054
1.00054
1.00055
1.00018
1.00018
1.00018
1.00018
17.9137
17.7832
17.698
17.6821
15.1735
15.3422
15.62
15.478
11.324
11.961
12.018
11.9414
8.09046
8.03054
8.00475
8.44486
4.78387
4.51381
4.51735
4.67321
1.6451
1.37061
1.26364
1.40093
1.01147
1.01122
1.01389
1.01229
1.00096
1.00109
1.00179
1.0011
1.00676
1.00671
1.00692
1.00693
1.00459
1.00467
1.00472
1.0047
1.00474
1.00473
1.00476
1.00477
1.00437
1.00438
1.00438
1.0044
1.00404
1.00405
1.00405
1.00407
1.00371
1.00371
1.00372
1.00373
1.00337
1.00338
1.00338
1.00339
1.00303
1.00303
1.00304
1.00304
1.00268
1.00268
1.00269
1.00269
1.00233
1.00233
1.00233
1.00234
1.00198
1.00198
1.00198
1.00198
1.00162
1.00162
1.00162
1.00162
1.00126
1.00126
1.00126
1.00126
1.0009
1.0009
1.0009
1.0009
1.00054
1.00054
1.00054
1.00054
1.00018
1.00018
1.00018
1.00018
)
;
    }
    procBoundary2to3
    {
        type            processor;
        value           nonuniform List<scalar> 
192
(
17.3374
17.4084
17.7084
17.6126
15.4664
15.6882
15.0975
15.2857
13.4257
12.6579
12.324
12.1231
9.01842
8.85827
8.82484
8.50337
4.27942
4.87992
5.28839
5.07317
2.35001
2.10756
1.97701
2.18739
1.00186
1.02247
1.01363
1.00903
1.00142
1.00115
1.0013
1.00115
1.00682
1.00781
1.00745
1.00693
1.00473
1.00503
1.00494
1.00481
1.00495
1.00504
1.00503
1.00501
1.00457
1.00459
1.0046
1.00459
1.0042
1.00422
1.00422
1.00422
1.00384
1.00385
1.00385
1.00385
1.00347
1.00348
1.00348
1.00348
1.0031
1.00311
1.00311
1.00311
1.00274
1.00274
1.00274
1.00274
1.00237
1.00237
1.00237
1.00238
1.00201
1.00201
1.00201
1.00201
1.00164
1.00164
1.00164
1.00164
1.00128
1.00128
1.00128
1.00128
1.00091
1.00091
1.00091
1.00091
1.00055
1.00055
1.00055
1.00055
1.00018
1.00018
1.00018
1.00018
17.5675
17.616
17.4786
17.5319
15.4957
15.383
15.3884
15.1525
12.1937
12.048
11.8766
12.4767
8.24847
7.89914
8.09753
8.29291
4.66509
4.83771
4.73079
4.73939
2.07697
1.58141
1.50062
1.36568
1.01339
1.02059
1.01195
1.00965
1.00064
1.00087
1.0007
1.00104
1.00727
1.00753
1.00709
1.00689
1.00486
1.0049
1.00483
1.00471
1.00501
1.00499
1.00496
1.00495
1.00459
1.00458
1.00457
1.00455
1.00422
1.00422
1.00421
1.00421
1.00385
1.00385
1.00385
1.00385
1.00348
1.00348
1.00348
1.00348
1.00311
1.00311
1.00311
1.00311
1.00274
1.00275
1.00275
1.00275
1.00238
1.00238
1.00238
1.00238
1.00201
1.00201
1.00201
1.00201
1.00164
1.00164
1.00164
1.00164
1.00128
1.00128
1.00128
1.00128
1.00091
1.00091
1.00091
1.00091
1.00055
1.00055
1.00055
1.00055
1.00018
1.00018
1.00018
1.00018
)
;
    }
}


// ************************************************************************* //
