/*--------------------------------*- C++ -*----------------------------------*\
| =========                 |                                                 |
| \\      /  F ield         | OpenFOAM: The Open Source CFD Toolbox           |
|  \\    /   O peration     | Version:  2506                                  |
|   \\  /    A nd           | Website:  www.openfoam.com                      |
|    \\/     M anipulation  |                                                 |
\*---------------------------------------------------------------------------*/
FoamFile
{
    version     2.0;
    format      ascii;
    arch        "LSB;label=32;scalar=64";
    class       surfaceScalarField;
    location    "0.06";
    object      phi;
}
// * * * * * * * * * * * * * * * * * * * * * * * * * * * * * * * * * * * * * //

dimensions      [0 3 -1 0 0 0 0];

oriented        oriented;

internalField   nonuniform List<scalar> 
3120
(
-1.92869e-09
6.62521e-09
3.37343e-08
3.7536e-10
2.02097e-09
4.20067e-09
1.65703e-08
3.13714e-09
4.21698e-10
3.5801e-08
-6.81892e-10
3.09584e-08
-3.97534e-09
1.61787e-09
4.64694e-08
9.2861e-10
-9.0096e-10
1.24156e-09
3.80301e-08
2.90236e-09
1.10126e-09
3.40811e-08
3.74556e-09
2.35627e-08
-2.24363e-09
4.33186e-09
2.88167e-08
8.72929e-09
-9.90861e-10
5.55673e-09
3.20548e-08
7.6085e-09
2.32288e-09
2.78803e-08
-6.06766e-09
6.45664e-08
-3.5677e-09
3.65684e-08
7.87423e-09
1.88921e-09
-3.92674e-09
4.41414e-08
-4.10512e-10
1.79187e-10
3.11314e-08
4.55812e-09
3.39378e-08
-2.74097e-09
-8.37866e-10
-1.39198e-09
3.97873e-08
-2.98213e-10
3.33312e-09
8.87659e-10
1.52955e-08
2.23821e-08
-2.43302e-09
3.03729e-08
-2.7635e-08
1.51197e-07
1.40106e-09
-4.11694e-10
4.65475e-08
-2.45941e-09
-3.62807e-10
-2.56549e-09
4.32471e-08
8.31681e-09
-9.23516e-10
2.3892e-08
-1.64257e-08
4.0131e-08
-5.90556e-10
3.8071e-09
2.71376e-08
-1.94918e-09
-1.40237e-10
-1.76838e-09
3.08074e-08
-3.29455e-09
-1.35337e-09
3.14645e-08
-4.51722e-10
3.79594e-08
-7.31195e-09
5.61203e-08
-6.23372e-09
-2.19919e-09
-1.39676e-09
3.06099e-08
5.84781e-09
-1.50635e-09
3.33068e-08
-3.41917e-09
2.23589e-08
3.65366e-09
-3.00234e-09
-4.45814e-09
4.64229e-08
3.92435e-09
-4.03272e-09
1.57842e-09
8.19848e-09
-1.55102e-08
3.07171e-09
3.31393e-08
2.13607e-08
8.44868e-08
-4.02646e-09
-6.09411e-09
5.29318e-08
-7.21974e-10
-5.76138e-09
-7.1031e-10
4.72708e-08
-3.3028e-09
4.89525e-09
1.96098e-08
5.77646e-09
5.22284e-08
1.09907e-09
2.91954e-09
1.3823e-08
3.20179e-09
-1.84503e-12
-1.78695e-09
3.29849e-08
-4.41759e-09
9.99789e-10
3.97757e-08
2.05656e-09
3.72986e-08
-3.30409e-09
5.91888e-08
-1.93094e-09
5.08607e-09
1.48927e-09
2.18806e-08
2.14898e-09
-1.24238e-09
3.78429e-08
-8.04669e-10
1.61556e-08
6.8563e-09
3.56367e-09
-5.38349e-09
3.87179e-08
2.72545e-09
-3.24185e-09
-8.94947e-09
3.19465e-08
-5.3596e-09
7.36387e-10
3.242e-08
-6.62305e-10
6.38385e-08
4.13892e-10
4.63584e-10
4.17721e-08
4.89875e-09
4.54128e-10
4.2781e-10
3.78532e-08
-5.02144e-09
-1.42175e-09
2.72435e-08
9.54476e-09
3.05787e-08
-1.44636e-10
-1.35003e-09
1.38164e-08
1.96489e-09
-1.55783e-09
3.42577e-09
3.14002e-08
4.82618e-09
4.83479e-09
2.71351e-08
-3.74607e-09
5.91108e-08
4.58691e-09
4.44702e-08
6.60246e-09
2.1792e-09
-4.97734e-10
3.06405e-08
-2.49492e-10
-2.10835e-09
4.24822e-08
1.80613e-09
6.67614e-09
-8.03106e-10
-4.94274e-09
-3.26509e-09
4.66317e-08
-4.98645e-11
-2.71358e-09
4.16537e-10
3.18063e-08
-3.22538e-09
1.64051e-10
3.16109e-08
3.19832e-09
4.57614e-08
-2.72412e-09
3.78401e-09
3.59318e-08
1.51534e-09
-2.35592e-09
2.22267e-09
3.56789e-08
-1.42838e-10
4.21245e-09
2.0982e-08
1.05811e-09
2.8439e-08
-3.1977e-09
2.58799e-09
2.36687e-08
-5.45859e-09
6.67691e-10
2.67409e-09
2.70834e-08
-7.81158e-09
-1.25643e-09
4.10833e-08
2.80915e-09
4.83373e-08
-4.05876e-09
6.79733e-08
-8.32596e-09
-8.53038e-09
-3.81569e-09
3.63887e-08
-3.31721e-09
-1.76179e-09
3.84222e-08
7.49707e-10
5.93257e-09
-3.22936e-10
-3.34007e-09
2.80717e-09
2.96669e-08
1.13998e-08
-9.29635e-10
3.14736e-10
2.94969e-08
-8.22332e-10
-9.52267e-10
3.3436e-08
1.71244e-10
5.27604e-08
-3.69069e-09
4.99739e-10
4.16449e-08
2.85051e-10
-2.24442e-09
5.46296e-10
3.4001e-08
-2.32982e-10
-2.04124e-09
2.00595e-08
-1.42027e-09
3.0962e-08
-3.07178e-09
-2.81699e-09
3.30326e-08
-2.9754e-09
-7.89087e-09
-9.9058e-10
3.34394e-08
-8.92842e-10
-3.62685e-11
3.20803e-08
1.98825e-09
4.23279e-08
-6.50178e-09
6.44411e-08
-1.0531e-09
8.27009e-09
-6.10545e-09
3.07128e-08
4.28906e-09
3.10634e-09
2.37227e-08
5.45143e-09
1.80166e-08
4.06735e-10
4.6637e-10
1.13258e-10
3.28383e-08
-1.53076e-09
1.53061e-11
3.90023e-10
2.97044e-08
-4.10625e-10
1.17284e-09
3.21307e-08
1.74018e-09
4.52412e-08
1.91884e-10
1.86328e-09
3.84912e-08
1.21175e-09
9.2665e-10
1.00661e-09
3.26496e-08
-3.14155e-10
-1.04567e-10
2.25775e-08
-2.42904e-10
3.31382e-08
-9.88258e-10
-4.13954e-10
3.64904e-08
-1.92272e-10
-8.85117e-10
8.753e-10
3.34674e-08
-4.70898e-10
9.09561e-10
3.06519e-08
1.82471e-09
3.86589e-08
-1.20884e-09
5.54182e-08
6.09446e-09
3.7237e-09
-1.65606e-09
3.13652e-08
6.69485e-10
-5.77583e-10
2.35066e-08
4.71333e-11
2.07868e-08
-9.11292e-10
5.37119e-09
2.90194e-09
3.55078e-08
-8.23666e-09
3.46187e-09
1.93418e-09
3.0617e-08
1.72292e-09
1.35269e-09
3.23512e-08
6.08286e-10
4.5865e-08
3.72618e-09
3.8289e-09
3.624e-08
-2.40231e-09
3.38417e-09
2.53741e-09
3.23885e-08
1.12044e-09
8.25994e-10
2.53666e-08
-1.8462e-10
3.61457e-08
1.60515e-09
2.63828e-09
3.77602e-08
-1.68542e-09
9.91926e-10
2.73457e-09
3.38844e-08
-3.65008e-10
1.06643e-09
3.17681e-08
7.98131e-10
3.73493e-08
6.75343e-10
5.37332e-08
4.48538e-09
-8.38612e-10
-5.31352e-10
3.43e-08
1.00563e-09
-1.40203e-09
2.56475e-08
-2.03613e-10
2.2667e-08
1.25002e-10
3.96922e-09
-2.47097e-10
3.71419e-08
-4.25239e-09
1.19992e-09
-3.20679e-10
3.47998e-08
-1.33292e-09
-9.84667e-11
3.48061e-08
2.45554e-09
3.97682e-08
3.53564e-09
-3.2894e-09
3.67418e-08
-9.95033e-10
2.79986e-09
-1.98883e-09
3.47921e-08
-3.02372e-09
-1.57372e-09
3.26641e-08
1.43897e-09
3.66249e-08
4.01317e-09
-6.24583e-09
3.82534e-08
-1.54916e-09
2.60766e-09
-2.53706e-09
3.58383e-08
-8.74018e-12
-1.42998e-09
3.42401e-08
1.48181e-09
3.5981e-08
7.10686e-09
4.25313e-08
-3.4207e-09
1.26949e-09
5.78222e-09
3.63378e-08
-3.24964e-09
2.35212e-09
3.25679e-08
-4.92019e-09
3.14884e-08
-5.11547e-09
2.48463e-09
4.25013e-10
3.77149e-08
-2.81869e-09
1.05546e-09
3.93325e-10
3.67612e-08
-6.39424e-10
5.23038e-10
3.65342e-08
1.49246e-09
3.83026e-08
2.08463e-09
-9.50005e-10
3.73627e-08
-1.3309e-09
1.30733e-09
-5.55323e-10
3.65176e-08
-1.10338e-09
-2.42657e-10
3.58397e-08
8.76011e-10
3.72997e-08
2.22037e-09
-1.60245e-09
3.80935e-08
-1.40825e-09
1.54538e-09
-1.03736e-09
3.69951e-08
1.15751e-10
-8.01284e-10
3.62281e-08
1.49547e-10
3.67982e-08
2.54575e-09
3.92089e-08
-8.68878e-10
4.30892e-11
2.34908e-09
3.72629e-08
-1.7662e-09
9.22698e-10
3.58435e-08
-2.65033e-09
3.55369e-08
-2.96684e-09
1.23172e-09
-4.20316e-11
3.81091e-08
-1.35821e-09
6.46281e-10
8.28335e-11
3.77085e-08
-1.42265e-10
1.82653e-10
3.754e-08
5.66263e-10
3.81775e-08
1.09722e-09
-8.07853e-10
3.78987e-08
-8.67803e-10
7.02676e-10
-5.44463e-10
3.75392e-08
-2.57514e-10
-3.0386e-10
3.72858e-08
2.01946e-10
3.7802e-08
1.32263e-09
-1.15773e-09
3.82083e-08
-1.08778e-09
9.55422e-10
-9.17864e-10
3.77357e-08
2.01221e-10
-7.05872e-10
3.7384e-08
-3.48109e-10
3.7577e-08
1.48982e-09
3.84962e-08
-1.18574e-09
-7.49373e-10
1.27159e-09
3.78806e-08
-1.31764e-09
5.40628e-10
3.73488e-08
-1.48032e-09
3.72688e-08
-1.63132e-09
6.57235e-10
4.32267e-11
3.82902e-08
-7.43186e-10
3.92521e-10
8.45962e-11
3.81374e-08
1.7129e-11
1.23529e-10
3.80518e-08
2.45285e-10
3.82677e-08
5.75994e-10
-2.90788e-10
3.81703e-08
-5.13947e-10
3.83575e-10
-2.25022e-10
3.80408e-08
-3.66756e-13
-1.50073e-10
3.79427e-08
3.94652e-11
3.81227e-08
6.58056e-10
-4.14975e-10
3.82644e-08
-5.90217e-10
5.00039e-10
-4.32658e-10
3.8101e-08
1.62036e-10
-3.93079e-10
3.79646e-08
-2.94724e-10
3.80319e-08
5.91863e-10
3.82977e-08
-4.83054e-10
-3.25581e-10
5.39795e-10
3.81377e-08
-6.38134e-10
2.68031e-10
3.79686e-08
-7.4137e-10
3.79676e-08
-8.55492e-10
3.68382e-10
2.5587e-11
3.83907e-08
-4.11256e-10
2.54044e-10
4.20094e-11
3.83427e-08
8.47853e-11
6.05453e-11
3.83067e-08
9.91517e-11
3.83723e-08
3.2883e-10
-1.4529e-10
3.83199e-08
-3.07936e-10
2.45364e-10
-1.235e-10
3.82894e-08
8.21917e-11
-8.93368e-11
3.82551e-08
-2.38757e-11
3.83118e-08
3.74513e-10
-2.28058e-10
3.83303e-08
-3.58049e-10
2.96095e-10
-2.38729e-10
3.82944e-08
1.45026e-10
-2.24368e-10
3.82504e-08
-1.95996e-10
3.82728e-08
3.36559e-10
3.82851e-08
-2.99913e-10
-2.52468e-10
3.00424e-10
3.82797e-08
-3.45008e-10
1.77894e-10
3.82409e-08
-3.74463e-10
3.82511e-08
-4.29665e-10
2.14219e-10
1.80734e-11
3.84386e-08
-2.31694e-10
1.65465e-10
2.19937e-11
3.84394e-08
9.18752e-11
2.85482e-11
3.84298e-08
4.06832e-11
3.84468e-08
1.93842e-10
-6.6628e-11
3.83921e-08
-1.81571e-10
1.60337e-10
-6.12036e-11
3.84059e-08
9.16791e-11
-4.94252e-11
3.84014e-08
-2.91022e-11
3.84175e-08
2.12862e-10
-1.08937e-10
3.83652e-08
-2.05663e-10
1.78954e-10
-1.20562e-10
3.83875e-08
1.1492e-10
-1.19946e-10
3.83847e-08
-1.15004e-10
3.83937e-08
1.85736e-10
3.82855e-08
-1.44626e-10
-1.50723e-10
1.72638e-10
3.83418e-08
-1.69806e-10
1.24488e-10
3.83544e-08
-1.85463e-10
3.83661e-08
-2.12088e-10
1.30506e-10
1.16617e-11
3.846e-08
-1.35945e-10
1.10289e-10
1.1817e-11
3.84848e-08
7.86853e-11
1.40237e-11
3.84889e-08
1.80059e-11
3.84933e-08
1.20116e-10
-2.90988e-11
3.84247e-08
-1.12075e-10
1.07304e-10
-2.99889e-11
3.84604e-08
7.87499e-11
-2.62213e-11
3.84699e-08
-1.94823e-11
3.84758e-08
1.27961e-10
-5.18266e-11
3.83814e-08
-1.21581e-10
1.14849e-10
-5.99163e-11
3.84305e-08
8.72946e-11
-6.13861e-11
3.84473e-08
-6.135e-11
3.8454e-08
1.11562e-10
3.82856e-08
-6.86463e-11
-9.49962e-11
1.07878e-10
3.83679e-08
-8.23906e-11
8.93426e-11
3.84025e-08
-9.11278e-11
3.84162e-08
-1.03696e-10
8.24683e-11
7.9517e-12
3.84685e-08
-8.27053e-11
7.46799e-11
7.28485e-12
3.85057e-08
6.07228e-11
7.9711e-12
3.85176e-08
9.37127e-12
3.852e-08
7.73599e-11
-1.18932e-11
3.84384e-08
-7.13489e-11
7.30582e-11
-1.32559e-11
3.84852e-08
6.08623e-11
-1.25947e-11
3.85025e-08
-1.0511e-11
3.8507e-08
7.99357e-11
-2.18541e-11
3.83865e-08
-7.51627e-11
7.54635e-11
-2.7502e-11
3.84492e-08
6.40994e-11
-3.00496e-11
3.84761e-08
-3.10021e-11
3.84842e-08
7.07384e-11
3.82837e-08
-2.96606e-11
-6.10164e-11
7.07999e-11
3.83781e-08
-3.78195e-11
6.39846e-11
3.84229e-08
-4.37447e-11
3.8439e-08
-5.01022e-11
5.36081e-11
5.84792e-12
3.84709e-08
-5.18538e-11
5.11539e-11
5.19226e-12
3.8515e-08
4.50331e-11
5.3612e-12
3.85316e-08
5.87759e-12
3.8535e-08
5.11154e-11
-3.28619e-12
3.84431e-08
-4.6726e-11
5.03508e-11
-4.96234e-12
3.84961e-08
4.52076e-11
-5.21198e-12
3.8518e-08
-4.67364e-12
3.85236e-08
5.18401e-11
-8.58094e-12
3.83875e-08
-4.74962e-11
5.09656e-11
-1.2015e-11
3.84572e-08
4.63755e-11
-1.40683e-11
3.84894e-08
-1.49526e-11
3.84996e-08
4.65903e-11
3.8281e-08
-1.21136e-11
-4.04266e-11
4.80163e-11
3.83815e-08
-1.69674e-11
4.57686e-11
3.84316e-08
-2.05952e-11
3.84499e-08
-2.38303e-11
3.56306e-11
4.34226e-12
3.84708e-08
-3.33858e-11
3.53734e-11
3.92708e-12
3.85188e-08
3.2748e-11
3.9571e-12
3.85384e-08
4.22773e-12
3.85433e-08
3.45196e-11
-2.24655e-13
3.84442e-08
-3.10082e-11
3.50219e-11
-1.10946e-12
3.85006e-08
3.28964e-11
-1.49369e-12
3.85254e-08
-1.38403e-12
3.85325e-08
3.44087e-11
-2.68561e-12
3.83866e-08
-3.0972e-11
3.49815e-11
-4.56319e-12
3.84601e-08
3.32464e-11
-5.90805e-12
3.84956e-08
-6.63691e-12
3.85076e-08
3.13168e-11
3.8278e-08
-3.47661e-12
-2.74859e-11
3.30224e-11
3.83821e-08
-6.91162e-12
3.2589e-11
3.84352e-08
-9.18375e-12
3.84553e-08
-1.09241e-11
2.4032e-11
3.35116e-12
3.84698e-08
-2.19439e-11
2.45747e-11
3.09297e-12
3.85201e-08
2.35293e-11
3.05226e-12
3.85417e-08
3.18969e-12
3.85478e-08
2.35045e-11
1.32806e-12
3.84437e-08
-2.0888e-11
2.44137e-11
6.2033e-13
3.85022e-08
2.36315e-11
2.34874e-13
3.85289e-08
1.93188e-13
3.85373e-08
2.31535e-11
5.27212e-13
3.83851e-08
-2.07276e-11
2.41701e-11
-1.1363e-12
3.8461e-08
2.36916e-11
-2.11793e-12
3.84984e-08
-2.5154e-12
3.85117e-08
2.16968e-11
3.82757e-08
3.28222e-15
-1.87601e-11
2.28415e-11
3.83815e-08
-1.67779e-12
2.29899e-11
3.84365e-08
-3.64313e-12
3.84581e-08
-4.72173e-12
1.62892e-11
2.5748e-12
3.84686e-08
-1.4573e-11
1.70221e-11
2.42113e-12
3.85203e-08
1.66871e-11
2.35334e-12
3.85431e-08
2.40082e-12
3.85501e-08
1.6042e-11
1.75213e-12
3.84427e-08
-1.41247e-11
1.69346e-11
1.2768e-12
3.85026e-08
1.672e-11
9.50084e-13
3.85304e-08
8.07454e-13
3.85397e-08
1.57719e-11
1.44348e-12
3.83836e-08
-1.3943e-11
1.66817e-11
5.72165e-13
3.84609e-08
1.66297e-11
-1.39438e-13
3.84995e-08
-6.37032e-13
3.85139e-08
1.48371e-11
3.82738e-08
1.39079e-12
-1.28473e-11
1.5878e-11
3.83809e-08
1.48295e-13
1.61129e-11
3.8437e-08
-8.92201e-13
3.84596e-08
-1.79222e-12
1.09301e-11
1.90877e-12
3.84675e-08
-9.63563e-12
1.16011e-11
1.80801e-12
3.85201e-08
1.15711e-11
1.74736e-12
3.85437e-08
1.74502e-12
3.85513e-08
1.08094e-11
1.60044e-12
3.84417e-08
-9.43958e-12
1.15414e-11
1.29803e-12
3.85024e-08
1.15598e-11
1.05578e-12
3.8531e-08
9.06954e-13
3.8541e-08
1.05982e-11
1.54605e-12
3.83825e-08
-9.29506e-12
1.13407e-11
9.75778e-13
3.84605e-08
1.14421e-11
5.15553e-13
3.84999e-08
1.52553e-13
3.8515e-08
1.00452e-11
3.82724e-08
1.60253e-12
-8.68371e-12
1.08023e-11
3.83802e-08
8.16695e-13
1.10819e-11
3.84371e-08
6.95148e-14
3.84603e-08
-4.63013e-13
7.09555e-12
1.34952e-12
3.84666e-08
-6.19214e-12
7.61395e-12
1.28503e-12
3.85197e-08
7.693e-12
1.23291e-12
3.85438e-08
1.20672e-12
3.85519e-08
7.02963e-12
1.27509e-12
3.84409e-08
-6.10483e-12
7.56693e-12
1.06977e-12
3.85021e-08
7.66313e-12
8.99268e-13
3.85312e-08
7.80024e-13
3.85416e-08
6.87592e-12
1.31965e-12
3.83816e-08
-6.00471e-12
7.4213e-12
9.27783e-13
3.84601e-08
7.55657e-12
6.38079e-13
3.85001e-08
3.81835e-13
3.85156e-08
6.5721e-12
3.82715e-08
1.36768e-12
-5.66838e-12
7.07691e-12
3.83797e-08
8.77527e-13
7.29898e-12
3.8437e-08
4.05894e-13
3.84607e-08
3.59659e-14
4.31032e-12
8.46279e-13
3.8466e-08
-3.73782e-12
4.66568e-12
8.01852e-13
3.85194e-08
4.7648e-12
7.64593e-13
3.85438e-08
7.42836e-13
3.85522e-08
4.27232e-12
8.54091e-13
3.84403e-08
-3.6973e-12
4.63172e-12
7.26597e-13
3.85018e-08
4.73359e-12
6.14489e-13
3.85312e-08
5.29231e-13
3.85419e-08
4.17587e-12
9.09934e-13
3.8381e-08
-3.63447e-12
4.53401e-12
6.91194e-13
3.84598e-08
4.65943e-12
4.89937e-13
3.85e-08
3.31937e-13
3.85158e-08
4.00567e-12
3.82709e-08
9.62919e-13
-3.46564e-12
4.3444e-12
3.83794e-08
6.50225e-13
4.48824e-12
3.8437e-08
3.86548e-13
3.84609e-08
1.49972e-13
2.32326e-12
3.49703e-13
-2.00229e-12
2.53919e-12
3.12035e-13
2.63045e-12
2.8354e-13
2.63725e-13
2.2952e-12
3.83565e-13
-1.97775e-12
2.5175e-12
2.97566e-13
2.61121e-12
2.28596e-13
1.75017e-13
2.22723e-12
4.3865e-13
-1.91995e-12
2.45808e-12
3.02798e-13
2.56275e-12
1.91239e-13
9.31258e-14
2.12829e-12
4.93828e-13
-1.81537e-12
2.35586e-12
3.11723e-13
2.47097e-12
1.60495e-13
2.45989e-14
-6.84962e-09
-2.10109e-09
4.11877e-08
-1.47438e-09
2.53956e-10
-7.00141e-10
2.39335e-08
-6.98258e-09
-6.02945e-09
5.35426e-08
2.12929e-10
2.4682e-08
-4.56066e-09
8.54437e-10
2.79409e-08
9.2248e-10
-1.00783e-09
1.04598e-08
2.16502e-08
-1.11783e-09
7.22528e-09
2.93708e-08
4.21298e-09
3.94248e-08
-6.4096e-10
8.44612e-09
2.48605e-08
9.1192e-11
-2.16668e-09
-5.69015e-09
5.8839e-08
-3.52749e-09
5.10638e-09
5.05953e-08
-2.27033e-09
5.00538e-08
-4.86904e-09
4.91776e-08
-2.18077e-10
1.71347e-09
3.43446e-08
-6.7004e-09
6.56531e-08
4.73439e-08
1.82493e-09
4.17358e-09
2.80367e-08
9.18779e-10
-7.6312e-09
2.78556e-09
3.64518e-08
5.92666e-09
3.16188e-09
3.34037e-08
-2.52132e-09
4.37578e-08
6.97708e-10
2.36951e-09
2.91454e-08
-9.81541e-11
-1.54281e-09
3.15559e-09
2.35207e-08
3.83635e-09
6.07699e-09
2.10765e-08
-8.03583e-09
5.32093e-08
-7.23877e-10
1.30275e-09
2.42397e-08
2.41151e-09
-1.82131e-09
5.33502e-09
5.7757e-08
-3.39733e-09
-2.40146e-09
6.06497e-08
3.1163e-10
3.80799e-08
1.15575e-10
4.88597e-08
1.24899e-09
-2.94421e-09
4.25121e-08
-3.91364e-10
6.09748e-08
4.31473e-08
3.57142e-09
6.82883e-09
1.43183e-08
1.3871e-09
2.47753e-09
1.36241e-08
2.60706e-08
6.80846e-09
2.69046e-09
2.55776e-08
-1.57057e-09
6.51926e-08
4.84734e-09
5.18322e-09
2.44899e-08
1.45382e-09
-2.04643e-09
-6.1117e-09
5.01503e-08
-5.81978e-10
4.89112e-10
2.18134e-08
-5.12038e-10
5.388e-08
-9.12513e-10
2.89287e-11
2.96058e-08
7.00681e-10
1.51014e-09
2.81853e-09
4.64041e-08
-1.10738e-09
-5.23761e-09
6.8994e-08
6.92326e-09
2.97693e-08
1.02512e-10
4.83301e-08
5.80939e-10
2.48303e-10
4.42757e-08
5.10308e-09
5.19148e-08
6.18082e-08
-8.73044e-10
-6.94138e-09
3.06701e-08
-1.9349e-09
6.62868e-10
-1.0147e-09
2.52999e-08
-5.23746e-09
-1.55841e-10
3.34399e-08
9.42076e-10
4.87239e-08
1.52115e-09
-1.36787e-09
1.7083e-08
3.12303e-10
2.53154e-09
6.22987e-09
4.18954e-08
-3.36308e-09
2.14038e-10
2.73382e-08
9.56258e-09
3.13703e-08
3.04169e-09
1.3274e-09
2.4039e-08
-1.70255e-10
1.06289e-09
6.95628e-09
4.76565e-08
3.10521e-09
-7.53096e-09
7.46967e-08
3.6516e-10
4.17721e-08
4.30337e-09
4.4558e-08
7.32731e-10
-2.07774e-09
5.72845e-08
6.62099e-09
3.60301e-08
7.15946e-08
-4.5061e-09
1.9051e-09
2.75296e-08
-2.5845e-09
-1.38457e-09
-5.32576e-09
2.41869e-08
-4.57204e-09
8.72677e-10
3.65045e-08
1.00725e-08
2.40377e-08
-2.0629e-09
-5.67979e-09
2.95045e-08
-2.77374e-09
9.65618e-10
1.50052e-09
3.20406e-08
2.9414e-09
-1.04482e-09
2.72799e-08
-4.01376e-09
5.26625e-08
7.16823e-10
2.83614e-10
1.77193e-08
-3.60466e-10
2.30694e-09
3.63377e-09
4.39331e-08
4.60635e-09
-2.12976e-09
7.34822e-08
1.1119e-08
3.27074e-08
1.8362e-09
4.58311e-08
-2.12129e-09
-5.48887e-10
6.33073e-08
5.2053e-09
2.80927e-08
9.13925e-08
6.40867e-10
5.48147e-09
1.92816e-08
1.07261e-09
-9.1716e-10
-2.20628e-09
3.22403e-08
1.07188e-09
3.46981e-09
3.64971e-08
-3.48887e-09
4.35194e-08
1.11189e-09
3.22506e-09
2.78135e-08
2.83538e-09
3.44751e-09
5.67272e-10
2.69314e-08
-4.00985e-09
-6.12581e-09
4.43329e-08
5.70865e-09
3.71417e-08
2.1221e-10
-2.27963e-09
2.33983e-08
-3.8655e-10
2.41231e-10
4.31652e-09
4.01548e-08
1.67361e-09
7.08455e-09
5.88394e-08
-4.13714e-10
4.24815e-08
2.49499e-09
4.25782e-08
-1.26166e-09
7.54634e-10
6.94426e-08
3.42845e-09
3.27139e-08
9.49505e-08
-2.13991e-09
-1.64025e-09
3.16191e-08
-2.4631e-09
-1.37664e-09
-5.83247e-10
3.27296e-08
-7.5988e-10
3.6711e-10
3.55602e-08
1.31436e-09
4.0846e-08
-9.95985e-10
-8.25353e-10
2.86985e-08
-7.03444e-10
-7.58729e-10
-2.77088e-09
2.88817e-08
6.31756e-10
-1.18855e-09
4.44984e-08
1.10896e-09
3.97303e-08
-6.56439e-10
-3.38115e-09
2.62381e-08
3.71966e-10
2.00532e-10
-4.40438e-09
4.09314e-08
2.08828e-09
2.05325e-09
5.37099e-08
-6.14082e-09
5.31194e-08
6.05324e-10
3.84123e-08
2.32967e-10
5.30927e-09
6.32409e-08
2.23284e-09
3.83879e-08
8.96238e-08
-7.81687e-10
1.17687e-10
3.94847e-08
-2.71468e-09
-7.47564e-10
-6.05664e-10
3.4305e-08
-9.04779e-10
-3.19215e-11
3.55453e-08
2.78471e-09
3.73313e-08
-4.88826e-10
-7.6565e-10
3.20813e-08
-2.01179e-09
-3.68251e-10
-4.12028e-09
3.22747e-08
3.27075e-10
1.16754e-09
4.2604e-08
-1.9714e-09
4.64652e-08
-4.77894e-10
-1.67206e-09
2.85369e-08
-9.14934e-10
9.69443e-10
-5.78931e-09
4.11528e-08
8.44335e-10
1.23926e-09
5.37633e-08
-1.09123e-08
6.50961e-08
-2.0561e-10
3.73428e-08
-3.96477e-10
2.53889e-09
5.47072e-08
-9.94817e-10
4.31606e-08
7.60141e-08
3.78758e-09
4.10136e-09
2.61766e-08
1.99926e-09
3.38793e-09
-4.84363e-10
3.19393e-08
1.10782e-09
-3.06636e-09
3.59715e-08
-5.98083e-09
3.83343e-08
2.58035e-09
4.09286e-09
2.90512e-08
4.57363e-10
1.37826e-09
-2.95342e-09
3.59462e-08
-6.90962e-10
-1.28004e-09
4.28869e-08
-7.52913e-09
4.75955e-08
2.61354e-10
-6.80107e-11
3.21183e-08
3.17483e-10
2.3758e-10
-4.11833e-09
4.23413e-08
-1.0378e-09
3.3255e-09
5.04335e-08
-5.06424e-09
5.99253e-08
5.13407e-10
3.63931e-08
3.68187e-10
2.35031e-09
4.8752e-08
-1.02387e-09
4.98601e-08
6.6583e-08
6.12172e-10
2.79964e-10
2.40705e-08
3.4574e-10
6.53878e-10
-1.42287e-09
3.15538e-08
1.08448e-10
-2.63439e-09
3.6501e-08
-4.32558e-09
3.93307e-08
1.16378e-11
7.3246e-10
2.84811e-08
1.06829e-10
-2.44522e-10
-1.74581e-09
3.65248e-08
-8.82385e-10
-1.62189e-09
4.25125e-08
-4.72294e-09
4.67915e-08
-5.72122e-10
6.72494e-10
3.26704e-08
7.96892e-11
-7.04607e-10
-1.03682e-09
4.17647e-08
-1.28704e-09
1.0618e-09
4.83324e-08
-2.27131e-09
5.49883e-08
-5.74282e-10
3.75425e-08
9.70992e-11
-3.33734e-10
4.74745e-08
-1.3333e-09
5.19216e-08
6.1095e-08
4.14952e-10
-8.33436e-10
2.31467e-08
1.5713e-10
5.48319e-10
-1.27549e-09
3.13778e-08
2.06256e-10
-1.56808e-09
3.69305e-08
-2.38237e-09
3.99655e-08
2.37663e-10
-6.26958e-10
2.78869e-08
1.4986e-10
2.75162e-10
-1.29687e-09
3.65083e-08
-1.28704e-10
-1.19643e-09
4.25446e-08
-2.53019e-09
4.63473e-08
3.65216e-11
-6.16517e-10
3.24828e-08
1.40125e-10
3.51262e-11
-1.11833e-09
4.15874e-08
-3.8605e-10
-3.30969e-10
4.7888e-08
-1.55422e-09
5.28156e-08
7.66509e-12
3.67896e-08
1.28387e-10
9.42796e-11
4.62693e-08
-4.04646e-10
5.20894e-08
5.80869e-08
6.6417e-11
-4.79583e-10
2.30332e-08
4.39595e-11
1.51652e-10
-7.38641e-10
3.13925e-08
6.70578e-11
-8.54882e-10
3.71282e-08
-1.24761e-09
4.01827e-08
-3.42409e-11
-3.50265e-10
2.77325e-08
5.9039e-11
1.87614e-11
-6.60233e-10
3.63763e-08
-6.64592e-11
-6.49327e-10
4.24239e-08
-1.22872e-09
4.59059e-08
-1.14022e-10
-1.15668e-10
3.23038e-08
5.78477e-11
-7.66624e-11
-3.38046e-10
4.12274e-08
-2.05679e-10
-1.38564e-10
4.75058e-08
-6.34643e-10
5.15195e-08
-1.46832e-10
3.67604e-08
5.99773e-11
-9.74819e-11
4.58817e-08
-2.45634e-10
5.20988e-08
5.66198e-08
6.80005e-11
-3.08898e-10
2.29683e-08
6.03457e-12
1.19997e-10
-4.03158e-10
3.13982e-08
8.75172e-11
-4.40757e-10
3.72266e-08
-6.08071e-10
4.0267e-08
2.34858e-11
-2.57797e-10
2.76389e-08
1.87552e-11
7.02619e-11
-3.69848e-10
3.62956e-08
2.51107e-11
-3.51962e-10
4.23799e-08
-6.03807e-10
4.56854e-08
-1.18807e-11
-1.62338e-10
3.21972e-08
2.25683e-11
2.86634e-11
-2.39518e-10
4.10561e-08
-1.62947e-11
-1.41956e-10
4.73404e-08
-3.55356e-10
5.09519e-08
-3.32624e-11
3.66049e-08
2.60457e-11
-5.04064e-12
4.56137e-08
-4.11038e-11
5.19927e-08
5.58881e-08
4.71457e-11
-1.59383e-10
2.29433e-08
-7.28416e-12
8.22813e-11
-2.03448e-10
3.13963e-08
7.88751e-11
-2.2031e-10
3.72646e-08
-2.92546e-10
4.02924e-08
2.39127e-11
-1.35427e-10
2.75928e-08
-1.87384e-12
5.86098e-11
-1.86984e-10
3.62441e-08
5.21556e-11
-1.83723e-10
4.23495e-08
-2.88018e-10
4.55742e-08
5.1586e-12
-7.76211e-11
3.21324e-08
1.49087e-12
3.79666e-11
-1.16704e-10
4.09527e-08
2.50251e-11
-8.86385e-11
4.72579e-08
-1.80562e-10
5.06871e-08
-9.25946e-12
3.65313e-08
4.97267e-12
1.80615e-11
4.54695e-08
9.53225e-12
5.19123e-08
5.55235e-08
3.78088e-11
-8.04899e-11
2.29302e-08
-1.27239e-11
6.03205e-11
-1.01358e-10
3.13926e-08
6.6288e-11
-1.10596e-10
3.7278e-08
-1.40748e-10
4.03007e-08
2.56403e-11
-7.18224e-11
2.75666e-08
-8.24465e-12
4.90019e-11
-9.47843e-11
3.6214e-08
5.2539e-11
-9.50089e-11
4.23302e-08
-1.38183e-10
4.55206e-08
1.57788e-11
-4.42387e-11
3.20944e-08
-5.57732e-12
3.79178e-11
-5.99203e-11
4.08956e-08
4.01017e-11
-5.08039e-11
4.72113e-08
-8.83018e-11
5.0564e-08
6.44851e-12
3.64834e-08
-2.94941e-12
2.55834e-11
4.53903e-08
2.94319e-11
5.18575e-08
5.53493e-08
2.98683e-11
-3.84501e-11
2.29224e-08
-1.32291e-11
4.48056e-11
-4.92775e-11
3.1389e-08
5.18757e-11
-5.49857e-11
3.72821e-08
-6.72605e-11
4.03038e-08
2.30924e-11
-3.61229e-11
2.75515e-08
-1.03458e-11
3.85147e-11
-4.71487e-11
3.61963e-08
4.51725e-11
-4.91167e-11
4.23176e-08
-6.66979e-11
4.54947e-08
1.74683e-11
-2.28179e-11
3.20722e-08
-8.61973e-12
3.23199e-11
-3.01289e-11
4.08636e-08
3.76271e-11
-2.78202e-11
4.71845e-08
-4.3141e-11
5.05062e-08
1.14278e-11
3.64556e-08
-6.61425e-12
2.4805e-11
4.53467e-08
3.11286e-11
5.18232e-08
5.52655e-08
2.32414e-11
-1.78047e-11
2.2917e-08
-1.20903e-11
3.31961e-11
-2.32772e-11
3.13853e-08
3.89872e-11
-2.67307e-11
3.72824e-08
-3.20648e-11
4.03051e-08
1.92437e-11
-1.78591e-11
2.75424e-08
-1.00163e-11
2.95286e-11
-2.31895e-11
3.61859e-08
3.54796e-11
-2.49072e-11
4.23098e-08
-3.18408e-11
4.54826e-08
1.5925e-11
-1.17336e-11
3.20588e-08
-8.71197e-12
2.58573e-11
-1.51351e-11
4.08456e-08
3.13802e-11
-1.47861e-11
4.71687e-08
-2.1163e-11
5.04787e-08
1.20773e-11
3.6439e-08
-7.18977e-12
2.11422e-11
4.53224e-08
2.70447e-11
5.18024e-08
5.52252e-08
1.77823e-11
-8.03142e-12
2.29136e-08
-9.86429e-12
2.45037e-11
-1.1136e-11
3.13827e-08
2.88233e-11
-1.31821e-11
3.7282e-08
-1.5125e-11
4.0306e-08
1.52701e-11
-8.66551e-12
2.75365e-08
-8.72207e-12
2.22045e-11
-1.14456e-11
3.61793e-08
2.66152e-11
-1.25333e-11
4.23047e-08
-1.50995e-11
4.54769e-08
1.32317e-11
-6.01115e-12
3.20507e-08
-7.73342e-12
1.9866e-11
-7.68498e-12
4.08351e-08
2.42236e-11
-7.75258e-12
4.71595e-08
-1.00866e-11
5.04658e-08
1.07063e-11
3.64288e-08
-6.61414e-12
1.68147e-11
4.53086e-08
2.1385e-11
5.179e-08
5.52057e-08
1.3178e-11
-3.04222e-12
2.29113e-08
-7.78583e-12
1.79207e-11
-4.64622e-12
3.13809e-08
2.08686e-11
-5.951e-12
3.72813e-08
-6.83888e-12
4.03064e-08
1.16949e-11
-4.0371e-12
2.75328e-08
-6.99164e-12
1.63987e-11
-5.3358e-12
3.61753e-08
1.951e-11
-6.04299e-12
4.23016e-08
-7.00223e-12
4.54744e-08
1.04031e-11
-2.94711e-12
3.20456e-08
-6.3458e-12
1.49165e-11
-3.66464e-12
4.0829e-08
1.80146e-11
-3.79861e-12
4.7154e-08
-4.70673e-12
5.04597e-08
8.7267e-12
3.64227e-08
-5.51765e-12
1.28906e-11
4.53007e-08
1.61428e-11
5.17829e-08
5.51965e-08
9.62531e-12
-7.33012e-13
2.29097e-08
-5.91351e-12
1.27258e-11
-1.59341e-12
3.13794e-08
1.48344e-11
-2.49394e-12
3.72808e-08
-2.96433e-12
4.03068e-08
8.65617e-12
-1.70664e-12
2.75305e-08
-5.32501e-12
1.18671e-11
-2.3264e-12
3.61729e-08
1.39818e-11
-2.78489e-12
4.22998e-08
-3.15342e-12
4.54732e-08
7.84282e-12
-1.42976e-12
3.20424e-08
-4.91479e-12
1.08948e-11
-1.73113e-12
4.08253e-08
1.3018e-11
-1.85049e-12
4.71509e-08
-2.19699e-12
5.04568e-08
6.72304e-12
3.64189e-08
-4.3306e-12
9.54632e-12
4.52961e-08
1.17564e-11
5.17788e-08
5.51921e-08
6.83672e-12
5.99418e-14
2.29086e-08
-4.26688e-12
8.88705e-12
-3.32339e-13
3.13785e-08
1.02322e-11
-8.51051e-13
3.72803e-08
-1.16642e-12
4.0307e-08
6.15904e-12
-6.66908e-13
2.75289e-08
-3.89538e-12
8.31474e-12
-9.34602e-13
3.61714e-08
9.7337e-12
-1.19287e-12
4.22987e-08
-1.34408e-12
4.54727e-08
5.65269e-12
-6.77688e-13
3.20404e-08
-3.61913e-12
7.69442e-12
-7.96968e-13
4.08231e-08
9.10434e-12
-8.6388e-13
4.71491e-08
-9.8202e-13
5.04555e-08
4.92244e-12
3.64165e-08
-3.21475e-12
6.80426e-12
4.52934e-08
8.24566e-12
5.17764e-08
5.519e-08
4.5967e-12
3.18562e-13
2.2908e-08
-2.91092e-12
5.94645e-12
7.10329e-14
3.13779e-08
6.78701e-12
-1.68566e-13
3.728e-08
-3.53065e-13
4.03071e-08
4.18171e-12
-2.17843e-13
2.7528e-08
-2.69182e-12
5.54895e-12
-3.30619e-13
3.61704e-08
6.4647e-12
-4.5723e-13
4.22981e-08
-5.15426e-13
4.54725e-08
3.85485e-12
-3.0999e-13
3.20391e-08
-2.5159e-12
5.17241e-12
-3.55589e-13
4.08218e-08
6.06956e-12
-3.87597e-13
4.71481e-08
-4.19255e-13
5.04549e-08
3.39886e-12
3.64151e-08
-2.25418e-12
4.60767e-12
4.52918e-08
5.50687e-12
5.17751e-08
5.5189e-08
2.84736e-12
3.14558e-13
2.29075e-08
-1.813e-12
3.67234e-12
1.64875e-13
3.13775e-08
4.19779e-12
1.23405e-14
3.72798e-08
-7.25285e-14
4.03072e-08
2.61712e-12
-3.06906e-14
2.75274e-08
-1.70999e-12
3.44834e-12
-9.63838e-14
3.61698e-08
3.99148e-12
-1.62565e-13
4.22977e-08
-1.77675e-13
4.54724e-08
2.4336e-12
-1.38614e-13
3.20384e-08
-1.60485e-12
3.23059e-12
-1.61456e-13
4.08211e-08
3.76749e-12
-1.77235e-13
4.71475e-08
-1.74748e-13
5.04546e-08
2.17846e-12
3.64142e-08
-1.45631e-12
2.91065e-12
4.52909e-08
3.43873e-12
5.17743e-08
5.51886e-08
1.50773e-12
1.62639e-13
-9.66527e-13
1.97431e-12
5.79558e-14
2.29716e-12
-1.99621e-14
-8.07923e-14
1.40207e-12
-1.56662e-14
-9.17582e-13
1.85884e-12
-6.09131e-14
2.19082e-12
-1.06088e-13
-1.17515e-13
1.31942e-12
-5.55623e-14
-8.75156e-13
1.76246e-12
-6.84248e-14
2.08555e-12
-8.09754e-14
-8.76178e-14
1.21882e-12
-8.203e-13
1.63615e-12
1.96088e-12
7.38615e-09
2.88976e-09
5.44848e-08
-1.28194e-08
1.97458e-09
7.76782e-08
2.88792e-09
3.3717e-09
2.3771e-08
6.29381e-09
3.5689e-08
-1.05402e-09
8.15047e-09
4.7517e-08
-4.90741e-09
7.42096e-09
4.70033e-08
2.1712e-09
3.92972e-09
3.47972e-08
8.31804e-09
3.8439e-08
-1.74787e-08
-5.23036e-09
7.75578e-08
-9.61169e-09
-1.77579e-09
4.23122e-08
8.77551e-10
2.55553e-09
2.73583e-08
-8.93736e-10
5.05791e-08
-2.73413e-09
3.42148e-08
1.24002e-09
2.66964e-08
-6.43125e-09
3.88114e-08
1.62689e-08
2.05747e-09
2.03928e-10
5.33465e-08
-3.51061e-09
-9.12652e-10
9.22274e-08
-9.24216e-10
-9.64619e-10
2.82995e-08
-2.61279e-09
3.90886e-08
-3.01777e-09
2.1511e-09
4.8306e-08
-3.70974e-09
-1.06721e-09
4.78498e-08
-8.75102e-09
-7.53445e-10
3.96273e-08
2.33293e-09
2.22828e-08
-1.54891e-08
-2.72818e-09
9.79181e-08
-1.65265e-09
2.89788e-09
2.45106e-08
-9.76596e-09
-1.61954e-09
3.63377e-08
2.70291e-09
3.84938e-08
5.64028e-09
2.73947e-08
-1.3044e-08
5.069e-08
-2.16491e-10
2.42661e-08
1.7475e-08
-2.97985e-09
-7.44208e-09
6.04325e-08
-3.5658e-10
-2.80133e-09
1.00124e-07
-3.47799e-09
-1.4297e-09
3.66145e-08
-6.38432e-09
4.94583e-08
1.3469e-08
2.61119e-09
2.61879e-08
-2.25647e-10
-8.85797e-10
5.9629e-08
-5.16597e-09
-1.81803e-10
4.33198e-08
2.19138e-10
9.79145e-09
1.60258e-08
2.62271e-09
8.44824e-08
4.18641e-10
-6.74305e-09
4.5975e-08
-3.37383e-09
-3.96142e-09
4.39098e-08
-2.83153e-09
4.13724e-08
-4.88245e-09
3.53971e-08
7.21314e-10
3.90439e-08
-7.1155e-09
2.95952e-08
1.40012e-08
-1.34152e-08
-7.95769e-10
7.27769e-08
1.73074e-09
1.57446e-09
7.52162e-08
9.70027e-10
-8.49431e-10
3.07141e-08
1.20377e-11
4.99133e-08
-8.91334e-09
-8.28719e-09
4.21337e-08
-1.97029e-09
-7.27363e-10
5.49878e-08
2.421e-09
-1.56684e-08
5.37475e-08
-4.95955e-09
2.20828e-08
1.78349e-08
3.87609e-09
5.31159e-08
5.52225e-09
-3.38799e-09
6.09482e-08
1.50884e-08
-3.13555e-09
2.18108e-08
-4.90386e-10
5.39565e-08
-7.38774e-09
4.75391e-08
3.978e-09
2.41199e-08
6.0529e-10
3.01447e-08
1.43604e-08
3.8751e-09
-1.63129e-09
7.33949e-08
-4.02755e-09
-5.04123e-09
8.82517e-08
1.12887e-09
-2.21073e-09
2.38167e-08
-4.45514e-09
5.37216e-08
-6.3127e-09
-6.13715e-09
5.24208e-08
-3.87289e-09
-3.08059e-09
5.05873e-08
1.04089e-09
2.48706e-10
4.63743e-08
-2.31003e-09
2.24939e-08
6.95811e-09
-3.78624e-10
4.05822e-08
3.20168e-09
-1.27692e-09
6.2901e-08
-1.91703e-09
-1.29638e-09
2.84746e-08
2.69534e-09
4.15755e-08
4.46228e-09
4.06722e-08
3.213e-09
2.37318e-08
6.37492e-09
2.29127e-08
1.23158e-08
6.67466e-09
-3.18264e-10
6.81222e-08
2.03002e-09
-1.03443e-08
1.02921e-07