/*--------------------------------*- C++ -*----------------------------------*\
| =========                 |                                                 |
| \\      /  F ield         | OpenFOAM: The Open Source CFD Toolbox           |
|  \\    /   O peration     | Version:  2506                                  |
|   \\  /    A nd           | Website:  www.openfoam.com                      |
|    \\/     M anipulation  |                                                 |
\*---------------------------------------------------------------------------*/
FoamFile
{
    version     2.0;
    format      ascii;
    arch        "LSB;label=32;scalar=64";
    class       volVectorField;
    location    "0.06";
    object      U;
}
// * * * * * * * * * * * * * * * * * * * * * * * * * * * * * * * * * * * * * //

dimensions      [0 1 -1 0 0 0 0];

internalField   nonuniform List<vector> 
1152
(
(-0.000963821 0.00128029 0.0173839)
(8.53777e-05 -0.000316459 0.00684026)
(0.00189516 -7.1532e-05 0.0146453)
(0.00258185 0.00122328 0.0123747)
(-0.00190609 0.00293612 0.0292308)
(-0.00126032 0.00238152 0.021667)
(0.000484113 0.000409707 0.0152738)
(0.000490507 -0.000314108 0.0010899)
(-0.00201027 0.00134093 0.0132869)
(-0.00110325 0.00171204 0.0184941)
(0.00107784 0.00106017 0.0197316)
(-0.00137531 0.000902818 0.0336147)
(-0.00185049 0.00321062 0.0209985)
(-0.00243047 0.00171395 0.0212722)
(-0.00101757 0.00155338 0.0171612)
(0.000589748 -0.00265012 0.020979)
(-0.000179198 0.000279253 0.0235782)
(0.000228226 0.0017847 0.0176809)
(0.00502485 0.00285256 0.028606)
(-0.000224199 -0.000324281 0.000944119)
(0.0012442 -0.000582047 0.014502)
(0.000333631 -0.000490402 0.020532)
(0.00222288 -0.00112825 0.0267977)
(-0.0021735 -0.00631836 0.0283445)
(0.000106921 0.0012748 0.0239676)
(-0.000124168 -0.00152688 0.0179414)
(-0.000531843 -0.000267063 0.00552731)
(0.00219876 -0.00486927 0.0293259)
(-0.00100442 0.000223567 0.0169133)
(-0.00329688 0.0013331 0.0311085)
(-0.000865051 -0.0017834 0.0192746)
(0.000658819 0.0019578 0.0149371)
(-0.00281395 -8.31902e-05 0.0342157)
(-0.000357581 -0.000360691 0.00795854)
(-0.00513858 -0.000899401 0.0255602)
(-0.0066136 -0.00711395 0.0518119)
(-0.000870608 -0.00367149 0.0512002)
(-0.00350708 0.000770844 0.0439432)
(-0.00116974 0.0010135 0.0102173)
(-0.0010278 0.0070726 0.0411834)
(-0.00157762 -0.00099773 0.0178622)
(0.000415696 -0.00109342 0.0299116)
(-0.00150985 0.00286613 0.0417949)
(-0.00104864 0.00176688 0.0259744)
(-0.00342617 -0.000136708 0.0638817)
(2.05115e-05 -5.71255e-05 0.0105571)
(0.000224259 -0.000139391 0.0322662)
(-0.00019224 0.00171272 0.0211987)
(0.00124749 -0.00459414 0.0423178)
(-1.6333e-05 1.63774e-05 0.00285753)
(-0.00319562 -0.000231205 0.0243805)
(-0.000959293 -0.00287178 0.0453275)
(-0.0022559 -0.00091993 0.0312)
(0.000329856 -0.00297176 0.0295294)
(-0.00112646 -0.000242766 0.0225617)
(-0.000598871 0.00238667 0.0327517)
(-9.41108e-06 -0.000234887 0.00621854)
(-0.000707477 0.00126409 0.0247372)
(0.000823369 0.00046989 0.022811)
(0.000348213 0.00194345 0.0312213)
(0.000373288 0.00138273 0.0208843)
(0.00169448 0.00126384 0.0264984)
(-0.0014507 0.00301586 0.0297516)
(-8.31783e-05 -0.000343564 0.00277528)
(-0.000168037 -0.000214994 0.00312181)
(-0.00371274 0.00137217 0.0315442)
(-0.0016515 -0.000459485 0.030871)
(0.0105428 0.00533913 0.0532098)
(-0.00135063 -0.000281905 0.0331198)
(-0.00166932 0.000839868 0.0315654)
(-0.000706362 0.00158524 0.0243458)
(0.00131992 0.000555025 0.0170466)
(0.000502748 0.00158271 0.0178398)
(-0.00114249 0.00153403 0.0272611)
(-0.000868371 0.000970039 0.0196703)
(-0.00279881 0.00182754 0.0577191)
(0.00210993 -0.00085496 0.0415104)
(-0.00191489 0.00012185 0.0240324)
(-0.00226068 -0.000214935 0.0357466)
(8.56564e-05 0.000153836 0.0087946)
(-0.00504388 -0.0011557 0.033517)
(-0.000722733 0.000219202 0.0133216)
(-0.000829815 -0.000152327 0.0149316)
(-5.22305e-05 -5.39599e-05 0.0020559)
(-0.00126821 0.000700371 0.017661)
(-0.00217528 0.00030266 0.0185263)
(-0.00048853 -0.00044526 0.00884869)
(-0.000351344 -0.000642742 0.0213664)
(-0.000498298 -0.00031829 0.0149791)
(-0.00222016 -6.02744e-05 0.0132387)
(-0.00353557 -0.000959444 0.0319558)
(0.000464447 0.000823564 0.010074)
(-0.00665037 -0.00415565 0.0388587)
(-0.00327684 0.00150166 0.0227895)
(0.000449302 0.0021592 0.0194534)
(-3.44396e-05 0.000290505 0.00199132)
(0.000343092 0.000363669 0.0119553)
(0.000161712 0.000147729 0.0155868)
(-0.000269217 0.000140529 0.0179179)
(0.000705166 0.000135132 0.0202503)
(-0.000255504 0.00024358 0.0208107)
(0.000313917 0.000325514 0.0176685)
(5.60604e-05 0.000182019 0.0114077)
(-0.000219896 0.000279682 0.0150639)
(-7.19468e-05 0.000509939 0.0161332)
(-0.000474961 0.000416729 0.0172637)
(-0.000282963 0.000169245 0.0127245)
(0.000172794 0.000359882 0.0235665)
(-0.000591135 0.00107069 0.0291792)
(-0.000838427 0.000191813 0.0141462)
(-0.000449137 0.000286748 0.0113229)
(-0.000183207 0.000255733 0.00903265)
(0.00191512 0.000826007 0.0240693)
(0.00118567 0.000377557 0.0216748)
(0.00055089 0.000122521 0.0233776)
(0.000102749 -0.000102267 0.0340055)
(0.000765566 0.000965718 0.0256139)
(0.00100798 0.000606639 0.0234565)
(0.000552484 0.00032335 0.0175215)
(-8.77275e-05 0.000123859 0.0255)
(0.000484469 0.000952575 0.0261767)
(0.000429394 0.000803722 0.0243516)
(-1.45479e-05 0.000271104 0.0235434)
(-9.43601e-05 4.25224e-05 0.0277528)
(0.000345183 0.000511884 0.0383652)
(0.000114277 0.000279889 0.0244759)
(-0.000339625 4.96754e-05 0.0187238)
(-0.000561147 1.05881e-05 0.0163721)
(0.00116123 0.000222163 0.00636434)
(0.000929011 2.02328e-05 0.00528149)
(-0.000553178 -0.00015741 0.00530525)
(0.00039123 0.000182578 0.00691265)
(0.000506511 -0.000381553 0.00615519)
(0.00115262 -0.000267294 0.00534485)
(-0.000151932 -0.000133562 0.00452041)
(-0.000895906 0.000459152 0.00585737)
(0.000795544 -0.00134429 0.00642466)
(0.00107345 -0.000560971 0.00555586)
(7.99054e-05 -0.000315227 0.00497191)
(0.000122972 0.000621215 0.00562172)
(0.000945738 -0.0017681 0.00787975)
(0.0020126 -0.0010343 0.00552367)
(0.000920657 -0.000785499 0.00420929)
(0.000435164 -0.00031075 0.00379204)
(0.000713495 0.000190154 0.0146038)
(0.000570255 0.000156988 0.0141767)
(-0.000140916 0.000101085 0.0141019)
(8.78152e-07 0.000258445 0.0150888)
(0.000435126 -3.66077e-05 0.0145254)
(0.000572943 -1.74727e-05 0.0141269)
(-4.08914e-05 4.82185e-05 0.0137349)
(-0.000363378 0.000305465 0.0145366)
(0.000482507 -0.00039199 0.0149683)
(0.000586337 -0.000212113 0.0144278)
(0.00011885 -9.66858e-05 0.0140578)
(1.19479e-05 0.000275025 0.0143783)
(0.000319959 -0.000397802 0.015719)
(0.000774798 -0.000406316 0.0146033)
(0.000372229 -0.000418947 0.0138262)
(0.000151868 -0.000279152 0.0136302)
(0.000344757 4.66336e-05 0.0123431)
(0.000288622 7.07052e-05 0.0121393)
(-4.657e-06 6.85704e-05 0.0120697)
(-2.34025e-05 0.000135177 0.0124216)
(0.000262668 -8.34227e-05 0.0122285)
(0.000282492 -4.95361e-05 0.0120463)
(2.54179e-05 -7.64528e-06 0.0119091)
(-0.000110704 0.00010149 0.0121951)
(0.000325399 -0.000282941 0.0123459)
(0.000333881 -0.000193747 0.0121221)
(0.000114906 -0.000117361 0.0119614)
(2.17173e-05 2.91579e-05 0.0120773)
(0.000304733 -0.0003347 0.0124709)
(0.000405244 -0.000310681 0.0121534)
(0.000209403 -0.000281674 0.011897)
(9.05177e-05 -0.00022955 0.011861)
(0.000184363 3.07961e-05 0.0128782)
(0.00015219 4.58282e-05 0.0128004)
(3.0704e-05 5.00998e-05 0.0127591)
(-2.63763e-06 7.3845e-05 0.0128786)
(0.000145159 -2.28101e-05 0.0128324)
(0.000142628 -1.51202e-05 0.0127609)
(3.69756e-05 4.50277e-07 0.0127067)
(-2.24299e-05 4.02898e-05 0.0128028)
(0.000166103 -0.000103583 0.0128985)
(0.000163688 -8.88881e-05 0.0128025)
(7.34376e-05 -6.54398e-05 0.0127297)
(2.38341e-05 -1.65974e-05 0.0127665)
(0.000119582 -0.000121926 0.0129571)
(0.00016274 -0.000145453 0.0128375)
(9.28746e-05 -0.000147621 0.0127343)
(5.14586e-05 -0.000141436 0.0127243)
(0.000101635 1.69417e-05 0.0128946)
(8.49605e-05 2.4472e-05 0.0128671)
(3.62163e-05 2.79893e-05 0.0128478)
(1.38499e-05 3.57296e-05 0.0128858)
(8.42824e-05 -1.14376e-05 0.0128637)
(7.98936e-05 -8.32861e-06 0.0128432)
(3.77029e-05 -1.42445e-06 0.0128238)
(9.86274e-06 1.23142e-05 0.0128561)
(9.68363e-05 -5.38539e-05 0.0128746)
(9.14207e-05 -4.83629e-05 0.0128504)
(5.26919e-05 -3.89125e-05 0.0128263)
(2.69107e-05 -2.27196e-05 0.0128399)
(7.72331e-05 -7.15595e-05 0.0128634)
(8.7831e-05 -7.94747e-05 0.0128495)
(5.71802e-05 -7.926e-05 0.0128251)
(3.86569e-05 -7.94448e-05 0.0128297)
(5.78106e-05 9.64534e-06 0.0129128)
(5.00466e-05 1.28386e-05 0.0129071)
(3.0738e-05 1.46082e-05 0.0128999)
(1.83424e-05 1.69652e-05 0.0129106)
(4.93495e-05 -4.3933e-06 0.0128941)
(4.72243e-05 -3.95587e-06 0.0128935)
(3.07954e-05 -1.46902e-06 0.0128879)
(1.76995e-05 2.88439e-06 0.0128975)
(5.49237e-05 -2.4691e-05 0.0128898)
(5.20826e-05 -2.40964e-05 0.0128903)
(3.63721e-05 -2.12181e-05 0.0128843)
(2.41191e-05 -1.63074e-05 0.0128887)
(4.37856e-05 -3.43577e-05 0.0128671)
(4.80679e-05 -3.97635e-05 0.0128788)
(3.64095e-05 -4.0775e-05 0.0128769)
(2.89713e-05 -4.19346e-05 0.0128809)
(3.43584e-05 5.51526e-06 0.0129229)
(3.11815e-05 6.79777e-06 0.0129282)
(2.33925e-05 7.62257e-06 0.0129276)
(1.69342e-05 8.37756e-06 0.0129301)
(3.02342e-05 -1.5421e-06 0.0129096)
(2.96576e-05 -1.7554e-06 0.012919)
(2.32357e-05 -1.0076e-06 0.0129203)
(1.69386e-05 4.37118e-07 0.0129231)
(3.24562e-05 -1.12678e-05 0.0128971)
(3.15665e-05 -1.17153e-05 0.0129104)
(2.52692e-05 -1.11523e-05 0.0129135)
(1.94974e-05 -9.70568e-06 0.0129158)
(2.6719e-05 -1.65829e-05 0.0128667)
(2.87742e-05 -1.9651e-05 0.0128914)
(2.4474e-05 -2.06423e-05 0.0129003)
(2.14396e-05 -2.14816e-05 0.0129046)
(2.11903e-05 3.28699e-06 0.0129273)
(2.01665e-05 3.81212e-06 0.0129382)
(1.70332e-05 4.18163e-06 0.0129411)
(1.3766e-05 4.46607e-06 0.0129419)
(1.92117e-05 -1.69437e-07 0.0129165)
(1.93842e-05 -4.97848e-07 0.0129309)
(1.69074e-05 -3.57224e-07 0.0129356)
(1.38441e-05 1.18889e-07 0.0129371)
(1.99917e-05 -4.80273e-06 0.0129002)
(1.99971e-05 -5.43217e-06 0.0129196)
(1.75776e-05 -5.53649e-06 0.0129273)
(1.48718e-05 -5.17282e-06 0.0129296)
(1.69074e-05 -7.6868e-06 0.0128664)
(1.82742e-05 -9.53041e-06 0.0128966)
(1.68845e-05 -1.02534e-05 0.0129104)
(1.56268e-05 -1.07134e-05 0.0129154)
(1.3492e-05 2.09419e-06 0.0129287)
(1.33795e-05 2.30582e-06 0.0129426)
(1.21629e-05 2.4667e-06 0.0129475)
(1.05828e-05 2.58427e-06 0.0129484)
(1.25619e-05 3.6369e-07 0.012919)
(1.29927e-05 1.09061e-07 0.012936)
(1.21041e-05 8.95115e-08 0.0129428)
(1.06372e-05 2.59436e-07 0.0129444)
(1.27265e-05 -1.78251e-06 0.0129008)
(1.3147e-05 -2.30071e-06 0.0129233)
(1.23044e-05 -2.53283e-06 0.0129334)
(1.10352e-05 -2.48815e-06 0.0129365)
(1.10909e-05 -3.22689e-06 0.0128654)
(1.21102e-05 -4.3541e-06 0.0128984)
(1.18135e-05 -4.88502e-06 0.0129146)
(1.12891e-05 -5.16364e-06 0.0129204)
(8.80472e-06 1.39274e-06 0.0129288)
(9.0434e-06 1.48922e-06 0.0129444)
(8.62857e-06 1.5662e-06 0.0129506)
(7.89571e-06 1.61666e-06 0.012952)
(8.37182e-06 5.78017e-07 0.0129198)
(8.87063e-06 3.97218e-07 0.0129382)
(8.61239e-06 3.42032e-07 0.0129462)
(7.9193e-06 4.01354e-07 0.0129483)
(8.33147e-06 -3.37871e-07 0.0129007)
(8.84267e-06 -7.41357e-07 0.0129248)
(8.63991e-06 -9.76909e-07 0.0129363)
(8.06105e-06 -1.03113e-06 0.01294)
(7.46184e-06 -1.18351e-06 0.0128644)
(8.19437e-06 -1.86495e-06 0.0128989)
(8.2889e-06 -2.21973e-06 0.0129163)
(8.09556e-06 -2.38664e-06 0.0129228)
(5.85083e-06 9.76673e-07 0.0129286)
(6.18006e-06 1.01998e-06 0.0129451)
(6.09716e-06 1.05897e-06 0.0129521)
(5.7693e-06 1.08223e-06 0.012954)
(5.65003e-06 6.19204e-07 0.0129197)
(6.09879e-06 4.88222e-07 0.0129391)
(6.09393e-06 4.29082e-07 0.0129478)
(5.77752e-06 4.45612e-07 0.0129504)
(5.56612e-06 2.33235e-07 0.0129002)
(6.01615e-06 -1.51527e-08 0.0129253)
(6.06498e-06 -2.11736e-07 0.0129376)
(5.81617e-06 -3.0264e-07 0.0129419)
(5.11269e-06 -2.24885e-07 0.0128635)
(5.65385e-06 -6.71341e-07 0.0128988)
(5.80061e-06 -8.92032e-07 0.012917)
(5.74856e-06 -1.01341e-06 0.012924)
(3.92135e-06 6.98857e-07 0.0129281)
(4.23035e-06 7.19938e-07 0.0129453)
(4.27349e-06 7.41529e-07 0.0129528)
(4.12986e-06 7.52498e-07 0.012955)
(3.82783e-06 5.53815e-07 0.0129194)
(4.18975e-06 4.73947e-07 0.0129393)
(4.26839e-06 4.24111e-07 0.0129485)
(4.13012e-06 4.13366e-07 0.0129515)
(3.75738e-06 4.12324e-07 0.0128996)
(4.11931e-06 2.39658e-07 0.0129254)
(4.22274e-06 1.01466e-07 0.0129382)
(4.12337e-06 1.76098e-08 0.0129429)
(3.4885e-06 1.74727e-07 0.0128627)
(3.89142e-06 -1.15737e-07 0.0128986)
(4.05126e-06 -2.81183e-07 0.0129173)
(4.04218e-06 -3.68176e-07 0.0129247)
(2.60959e-06 4.94049e-07 0.0129277)
(2.85912e-06 5.05173e-07 0.0129453)
(2.93736e-06 5.1803e-07 0.0129531)
(2.87543e-06 5.2354e-07 0.0129556)
(2.56399e-06 4.47586e-07 0.012919)
(2.83664e-06 3.96146e-07 0.0129393)
(2.92971e-06 3.576e-07 0.0129488)
(2.87246e-06 3.38922e-07 0.0129521)
(2.50995e-06 4.09929e-07 0.0128992)
(2.78197e-06 2.96269e-07 0.0129253)
(2.88813e-06 1.97472e-07 0.0129384)
(2.85154e-06 1.31258e-07 0.0129434)
(2.35554e-06 2.8263e-07 0.0128622)
(2.63831e-06 1.0027e-07 0.0128983)
(2.7724e-06 -1.05986e-08 0.0129173)
(2.78543e-06 -8.12959e-08 0.012925)
(1.68455e-06 3.38812e-07 0.0129274)
(1.86576e-06 3.44393e-07 0.0129452)
(1.94013e-06 3.51816e-07 0.0129532)
(1.91442e-06 3.54091e-07 0.0129558)
(1.66084e-06 3.32854e-07 0.0129187)
(1.8512e-06 2.98994e-07 0.0129392)
(1.93149e-06 2.70299e-07 0.0129489)
(1.9122e-06 2.51697e-07 0.0129524)
(1.62307e-06 3.32484e-07 0.0128988)
(1.81179e-06 2.62383e-07 0.0129251)
(1.89871e-06 1.96105e-07 0.0129385)
(1.89154e-06 1.45598e-07 0.0129436)
(1.53821e-06 2.64331e-07 0.0128618)
(1.72636e-06 1.49451e-07 0.0128981)
(1.82169e-06 8.06798e-08 0.0129173)
(1.84077e-06 3.03583e-08 0.0129252)
(1.01978e-06 2.09452e-07 0.0129271)
(1.13835e-06 2.11002e-07 0.012945)
(1.19559e-06 2.13704e-07 0.0129532)
(1.19062e-06 2.13423e-07 0.012956)
(1.00733e-06 2.15575e-07 0.0129185)
(1.12902e-06 1.94414e-07 0.0129391)
(1.18795e-06 1.7491e-07 0.012949)
(1.18846e-06 1.60405e-07 0.0129525)
(9.84037e-07 2.24686e-07 0.0128986)
(1.10363e-06 1.82802e-07 0.012925)
(1.16562e-06 1.42987e-07 0.0129385)
(1.17211e-06 1.08861e-07 0.0129438)
(9.40163e-07 1.94002e-07 0.0128616)
(1.05591e-06 1.25412e-07 0.012898)
(1.11944e-06 8.24422e-08 0.0129173)
(1.13726e-06 4.89e-08 0.0129253)
(5.47902e-07 8.31847e-08 0.012927)
(6.17193e-07 8.04055e-08 0.0129449)
(6.56347e-07 7.89464e-08 0.0129532)
(6.63279e-07 7.82758e-08 0.012956)
(5.39451e-07 9.29915e-08 0.0129183)
(6.10765e-07 7.74846e-08 0.012939)
(6.51124e-07 6.48874e-08 0.0129489)
(6.6045e-07 5.5375e-08 0.0129526)
(5.23013e-07 1.04205e-07 0.0128984)
(5.94438e-07 7.69253e-08 0.0129249)
(6.37064e-07 5.33419e-08 0.0129385)
(6.4922e-07 3.32754e-08 0.0129438)
(4.97913e-07 1.01709e-07 0.0128614)
(5.67349e-07 6.16852e-08 0.0128979)
(6.11952e-07 3.42045e-08 0.0129173)
(6.29094e-07 1.01853e-08 0.0129253)
(-0.00328131 0.00107957 0.0294417)
(-0.000811564 -0.000493906 0.00838187)
(-0.00238314 -0.000598279 0.0310989)
(3.88245e-05 -0.000562209 0.017155)
(-0.00232783 -0.000901784 0.0168826)
(-0.00250978 0.0012704 0.0177048)
(-0.000953661 0.000369512 0.0152805)
(-4.27863e-05 0.00079169 0.0189733)
(-0.00128018 0.0013873 0.0181076)
(-0.00107587 0.000861212 0.0204211)
(-0.00215544 0.00232983 0.0197309)
(-0.000471695 0.000486469 0.0197918)
(-0.00292558 0.000637504 0.0235115)
(-0.000113192 -0.00128468 0.0143241)
(-0.00171552 0.000932851 0.0220297)
(-0.00128066 -0.000757923 0.0187884)
(-0.00022581 -0.000724171 0.0447035)
(-0.00321698 0.00177748 0.0336805)
(0.00131885 -0.000283361 0.0189288)
(0.000259783 9.1924e-05 0.00552616)
(-0.000159697 0.00164175 0.0301983)
(-0.000498738 0.000644339 0.00358588)
(8.29766e-05 0.00194876 0.016562)
(0.000331347 -0.0023442 0.0183083)
(-0.00102132 0.000135696 0.0140335)
(-0.0015593 0.001382 0.0471115)
(-0.00197447 0.00103878 0.0284538)
(-0.00088175 -0.00219987 0.0230742)
(-0.000588053 -0.000181521 0.0310267)
(-0.00092484 0.000334973 0.0193461)
(-0.00105802 -0.00106581 0.0325442)
(0.000405286 -7.39829e-05 0.0178796)
(1.33155e-06 0.00150414 0.0158172)
(0.00133927 0.00520515 0.0329942)
(0.00137734 0.00112234 0.0328327)
(-0.000612028 0.00278318 0.0529597)
(0.000132076 0.0038471 0.0268354)
(0.000433602 0.00206786 0.0327181)
(-0.000786071 0.00029257 0.0134685)
(-0.00128798 -0.000717677 0.0468364)
(-0.000841754 0.000881478 0.0288615)
(0.000258517 -0.00072416 0.0226679)
(0.000477683 -0.000813527 0.0402247)
(-0.000452507 0.00145779 0.0204881)
(-0.000216201 -0.000233526 0.0382372)
(-0.00028579 0.000890781 0.0359761)
(0.00240048 -0.000732054 0.0284952)
(-0.00146133 0.00214851 0.026085)
(0.000979982 0.000696139 0.0231934)
(6.30536e-05 -0.000618199 0.0175561)
(-0.000474559 0.000235187 0.010767)
(0.00159604 -0.000245548 0.039537)
(0.00134818 -0.00277369 0.0300023)
(0.00159432 0.00186878 0.048984)
(-0.00102484 -2.47205e-05 0.0210136)
(0.00248666 0.00300642 0.0261444)
(0.000821159 0.000539234 0.0276902)
(0.000323225 0.00363658 0.0413018)
(0.00213818 -0.00140029 0.0417864)
(0.000573671 0.00197314 0.0177721)
(0.00160171 0.0011129 0.0379963)
(4.99371e-05 0.00129491 0.0186902)
(0.00153301 -0.00117176 0.0323088)
(0.00107894 0.000350977 0.0439825)
(-0.000727152 -0.00110451 0.0529432)
(-0.000830871 -0.00341915 0.0337403)
(-0.00230627 0.000253068 0.042304)
(0.00186166 0.00368621 0.0309207)
(0.000213983 -0.0005293 0.00664343)
(-0.000704454 -0.00107666 0.0159825)
(0.00146647 0.00021716 0.0216199)
(0.000474078 0.00124428 0.0134922)
(0.00133295 -0.00207636 0.0195224)
(0.000586511 0.00135998 0.0283059)
(0.00269811 -0.0005328 0.0466584)
(0.00112355 0.00144128 0.0343004)
(0.00119383 0.000952766 0.0307957)
(-0.000147204 0.00104831 0.0549068)
(0.00118419 0.000120073 0.0100645)
(0.000979088 0.00245382 0.0271735)
(-0.000208028 0.000143856 0.00160776)
(0.000251706 0.000764982 0.0098442)
(-7.74825e-05 0.00214523 0.011282)
(-0.000405317 2.39197e-05 0.00436678)
(-0.00189352 0.00199628 0.0352594)
(0.00207816 -0.000381222 0.0245465)
(0.000175073 0.000153489 0.011925)
(-0.000758313 0.00221231 0.0344852)
(0.000348816 0.000305635 0.0112195)
(-0.000412838 0.00124326 0.0216184)
(0.00188729 0.000337309 0.025666)
(5.65765e-06 -4.12951e-05 0.000647589)
(0.00218266 0.00054588 0.0259397)
(0.000505534 0.000953733 0.0115124)
(0.000542697 0.00114553 0.0145955)
(0.00123028 0.000960538 0.03704)
(-0.000177364 0.000542709 0.010885)
(-0.000929457 -0.000293319 0.0208228)
(-0.000471831 -5.50103e-05 0.0203833)
(-9.51494e-05 -5.43705e-05 0.0214464)
(-0.000215501 -0.000485044 0.0153171)
(-0.000224302 -0.000430036 0.0130656)
(0.000145344 -9.92211e-05 0.020555)
(-0.000281942 0.000212491 0.0122199)
(0.000239152 -0.000606018 0.0135156)
(0.000163551 -0.000880375 0.0176723)
(0.000395318 0.000169061 0.0236776)
(0.000274461 8.63573e-05 0.01306)
(0.000565538 -0.000294892 0.0213119)
(0.00108878 -0.000867162 0.0310546)
(0.00242786 0.000872974 0.0113486)
(4.07953e-05 -0.00156997 0.033197)
(8.44621e-06 0.000559774 0.0453749)
(-0.000102024 -6.54747e-05 0.0294841)
(-0.00032471 -0.000192319 0.0262654)
(-0.000109672 0.00026161 0.0256729)
(6.00701e-05 8.85118e-05 0.0306619)
(4.23688e-05 -0.000260255 0.0235517)
(2.40149e-05 0.000173519 0.026548)
(-0.000229463 0.000567341 0.025985)
(5.40209e-05 -0.000291343 0.0230522)
(0.00049747 -0.00100073 0.0269471)
(0.000432577 0.000309721 0.0299114)
(-1.32641e-05 -0.00141775 0.0291494)
(-0.000162525 -0.000362556 0.0266663)
(0.0007073 -0.000459268 0.0307573)
(0.000257005 0.000291713 0.0204294)
(-0.000182555 -0.00150713 0.0321815)
(0.000364783 0.000166813 0.00807891)
(0.00169788 -0.000134345 0.00639642)
(0.000656994 -0.00106632 0.0058751)
(0.00042035 -0.00154974 0.00572098)
(-0.000203755 0.00118005 0.00670491)
(0.00100884 0.000111609 0.00591511)
(4.54426e-05 -0.000586347 0.00667211)
(-0.000188108 -0.00157178 0.00703958)
(-0.000296377 0.000153708 0.00590652)
(0.000741703 -0.00059116 0.00659946)
(-0.000515073 0.000186561 0.00745879)
(0.000127656 -0.0011999 0.00907356)
(-0.000267405 -0.000385281 0.00626641)
(0.00108854 -1.52819e-05 0.00758955)
(-0.000344195 0.000543522 0.00598453)
(8.68951e-05 -0.000318683 0.00983645)
(8.29976e-05 -5.89603e-05 0.016109)
(0.0004981 -0.000350876 0.0152317)
(0.000180244 -0.000719963 0.0147341)
(0.000155499 -0.000989158 0.0146547)
(-0.000151147 0.000128304 0.0156544)
(0.000235194 -0.000277019 0.0151643)
(-0.000136936 -0.000561721 0.0151104)
(-4.28449e-05 -0.00107895 0.0155245)
(-0.00030381 5.56349e-06 0.0152659)
(7.23588e-05 -0.00028666 0.0153723)
(-0.000475972 -7.23093e-05 0.0154152)
(2.79372e-06 -0.00065987 0.0165819)
(-0.000325051 -0.000164993 0.0152273)
(0.000143302 -6.1399e-05 0.0155884)
(-0.000482515 0.000118217 0.0146617)
(-1.08735e-05 -0.000149136 0.016585)
(0.000195368 -0.000228727 0.0125056)
(0.000343714 -0.000287477 0.0123449)
(0.000156339 -0.000391955 0.0122164)
(0.000107996 -0.000523728 0.012244)
(8.55581e-05 -0.000140043 0.0123892)
(0.000265925 -0.000226354 0.012377)
(2.71989e-05 -0.000318428 0.0124011)
(5.5706e-05 -0.000569102 0.0126552)
(6.56159e-06 -0.0001444 0.0122347)
(0.000208003 -0.000190964 0.0124091)
(-0.000113647 -0.000150838 0.0124767)
(5.48031e-05 -0.000401289 0.0130544)
(-6.34606e-05 -0.000123265 0.0120797)
(0.000179938 -3.92026e-05 0.012356)
(-0.000156151 -3.14724e-05 0.0121288)
(4.73685e-05 -0.000130501 0.0130029)
(6.98562e-05 -0.000116604 0.0129974)
(0.000125851 -0.00016184 0.0129251)
(6.06786e-05 -0.000203269 0.0128526)
(5.87283e-05 -0.000270244 0.0128696)
(1.64902e-05 -9.33936e-05 0.0129714)
(8.94008e-05 -0.000139889 0.0129494)
(8.27765e-07 -0.000172459 0.0129116)
(4.23838e-05 -0.000283479 0.0130265)
(-3.50268e-05 -6.80592e-05 0.0129027)
(5.08861e-05 -8.8075e-05 0.0129372)
(-6.80458e-05 -7.79169e-05 0.0128991)
(3.40129e-05 -0.000181497 0.0131457)
(-6.72289e-05 -5.91296e-05 0.0128149)
(2.7367e-05 -2.43948e-05 0.0128803)
(-0.000100337 -2.14267e-05 0.0127528)
(2.70171e-05 -5.51004e-05 0.0131078)
(5.26795e-05 -7.10728e-05 0.0128431)
(7.62245e-05 -8.54171e-05 0.0128587)
(4.47125e-05 -0.000100551 0.0128516)
(4.32356e-05 -0.000130557 0.0128747)
(2.77542e-05 -6.01231e-05 0.0127954)
(6.08857e-05 -7.51549e-05 0.0128387)
(1.8945e-05 -8.73217e-05 0.0128472)
(3.84938e-05 -0.00013679 0.0129169)
(3.19726e-06 -4.74179e-05 0.0127144)
(4.40442e-05 -4.95502e-05 0.0127805)
(-1.1673e-05 -4.7717e-05 0.0127898)
(3.26064e-05 -9.42188e-05 0.0129153)
(-1.9593e-05 -3.2939e-05 0.0125986)
(2.69346e-05 -1.30676e-05 0.0126718)
(-3.09503e-05 -1.62178e-05 0.0126505)
(2.72051e-05 -3.14079e-05 0.012821)
(3.11242e-05 -3.46842e-05 0.012834)
(4.23078e-05 -4.18262e-05 0.0128611)
(3.07257e-05 -4.90144e-05 0.0128687)
(3.12925e-05 -6.26495e-05 0.012883)
(1.85108e-05 -2.98314e-05 0.0127809)
(3.44954e-05 -3.70175e-05 0.0128194)
(1.91837e-05 -4.26937e-05 0.0128341)
(2.97154e-05 -6.42765e-05 0.0128695)
(5.0561e-06 -2.22418e-05 0.0127001)
(2.49783e-05 -2.36051e-05 0.012745)
(5.00965e-06 -2.48678e-05 0.0127582)
(2.64354e-05 -4.56606e-05 0.0128178)
(-7.67759e-06 -1.4654e-05 0.0125911)
(1.40815e-05 -5.97672e-06 0.0126325)
(-6.45183e-06 -8.33424e-06 0.0126319)
(2.25044e-05 -1.55405e-05 0.0127083)
(1.99919e-05 -1.63753e-05 0.0128231)
(2.58832e-05 -1.98283e-05 0.0128593)
(2.18233e-05 -2.37179e-05 0.0128761)
(2.24698e-05 -2.99545e-05 0.012887)
(1.36811e-05 -1.40697e-05 0.0127635)
(2.16517e-05 -1.7536e-05 0.0128053)
(1.64057e-05 -2.06998e-05 0.0128273)
(2.181e-05 -3.02846e-05 0.0128488)
(6.72213e-06 -1.00369e-05 0.0126783)
(1.64121e-05 -1.06478e-05 0.0127209)
(9.61366e-06 -1.21513e-05 0.0127426)
(2.00096e-05 -2.16148e-05 0.0127749)
(-4.9456e-07 -5.60432e-06 0.0125667)
(1.01186e-05 -1.70115e-06 0.0126023)
(3.36378e-06 -3.36172e-06 0.0126164)
(1.75363e-05 -7.0893e-06 0.0126548)
(1.31624e-05 -7.12984e-06 0.0128179)
(1.66353e-05 -8.94242e-06 0.0128578)
(1.55657e-05 -1.1237e-05 0.0128788)
(1.60056e-05 -1.41826e-05 0.0128887)
(9.86506e-06 -5.9414e-06 0.0127549)
(1.41718e-05 -7.7855e-06 0.0127976)
(1.28729e-05 -9.82203e-06 0.0128232)
(1.55435e-05 -1.42189e-05 0.0128391)
(6.10716e-06 -3.6632e-06 0.0126676)
(1.10973e-05 -4.24348e-06 0.0127083)
(9.40498e-06 -5.59833e-06 0.012734)
(1.45494e-05 -1.0128e-05 0.012755)
(2.01076e-06 -1.28888e-06 0.0125552)
(7.4107e-06 2.06995e-07 0.0125869)
(5.91498e-06 -9.26831e-07 0.0126066)
(1.3007e-05 -3.07816e-06 0.0126289)
(8.99786e-06 -2.6767e-06 0.0128142)
(1.11225e-05 -3.71578e-06 0.0128562)
(1.10496e-05 -5.12605e-06 0.0128793)
(1.13387e-05 -6.62106e-06 0.0128892)
(7.18038e-06 -2.15369e-06 0.0127495)
(9.6669e-06 -3.19151e-06 0.0127928)
(9.68044e-06 -4.47002e-06 0.0128203)
(1.09934e-05 -6.58673e-06 0.0128344)
(5.06595e-06 -7.80048e-07 0.0126609)
(7.82342e-06 -1.25508e-06 0.012701)
(7.84048e-06 -2.29862e-06 0.0127288)
(1.03517e-05 -4.6441e-06 0.0127455)
(2.67902e-06 4.97233e-07 0.0125478)
(5.63125e-06 9.66679e-07 0.0125781)
(5.83428e-06 1.45784e-07 0.0126004)
(9.38205e-06 -1.24786e-06 0.0126162)
(6.18673e-06 -6.33689e-07 0.0128118)
(7.60376e-06 -1.22385e-06 0.0128549)
(7.85018e-06 -2.13339e-06 0.0128792)
(8.04474e-06 -2.99389e-06 0.0128895)
(5.19805e-06 -3.60507e-07 0.0127462)
(6.70959e-06 -9.91511e-07 0.0127899)
(7.06007e-06 -1.8377e-06 0.0128185)
(7.74072e-06 -2.9673e-06 0.0128321)
(3.97997e-06 3.9346e-07 0.0126568)
(5.60319e-06 2.84618e-08 0.0126969)
(6.05829e-06 -7.33579e-07 0.0127257)
(7.32059e-06 -2.04274e-06 0.0127409)
(2.54743e-06 1.10493e-06 0.0125435)
(4.26708e-06 1.15728e-06 0.0125732)
(4.87011e-06 5.3879e-07 0.0125967)
(6.67985e-06 -4.15572e-07 0.0126102)
(4.30368e-06 1.99799e-07 0.0128103)
(5.25436e-06 -1.86144e-07 0.012854)
(5.5552e-06 -7.62915e-07 0.012879)
(5.67475e-06 -1.28501e-06 0.0128897)
(3.7359e-06 3.18878e-07 0.012744)
(4.70198e-06 -4.17092e-08 0.0127882)
(5.07887e-06 -6.18332e-07 0.0128173)
(5.44501e-06 -1.27929e-06 0.0128311)
(3.02096e-06 7.81025e-07 0.0126543)
(4.02394e-06 5.09136e-07 0.0126944)
(4.49364e-06 -4.41677e-08 0.0127239)
(5.15447e-06 -8.39874e-07 0.0127388)
(2.1448e-06 1.15948e-06 0.0125408)
(3.20346e-06 1.06252e-06 0.0125703)
(3.77789e-06 5.96544e-07 0.0125945)
(4.72787e-06 -7.14959e-08 0.0126073)
(3.00459e-06 4.65955e-07 0.0128092)
(3.62616e-06 2.23637e-07 0.0128533)
(3.87101e-06 -1.58571e-07 0.0128787)
(3.96538e-06 -4.91928e-07 0.0128898)
(2.6541e-06 4.9801e-07 0.0127427)
(3.29156e-06 2.76297e-07 0.0127871)
(3.59599e-06 -9.08853e-08 0.0128166)
(3.79994e-06 -5.02286e-07 0.0128306)
(2.21668e-06 8.09903e-07 0.0126528)
(2.86271e-06 6.14337e-07 0.012693)
(3.23899e-06 2.19897e-07 0.0127228)
(3.59732e-06 -2.95389e-07 0.0127378)
(1.67446e-06 1.01049e-06 0.0125392)
(2.35322e-06 8.8052e-07 0.0125687)
(2.79563e-06 5.32484e-07 0.0125932)
(3.30856e-06 5.86744e-08 0.0126059)
(2.05775e-06 4.9183e-07 0.0128085)
(2.47478e-06 3.32646e-07 0.0128528)
(2.64738e-06 7.81594e-08 0.0128786)
(2.70953e-06 -1.43283e-07 0.0128899)
(1.83977e-06 4.8882e-07 0.0127418)
(2.25776e-06 3.38684e-07 0.0127864)
(2.48177e-06 9.65433e-08 0.0128162)
(2.60052e-06 -1.61511e-07 0.0128304)
(1.57186e-06 6.83712e-07 0.0126518)
(1.98884e-06 5.48448e-07 0.0126921)
(2.26072e-06 2.76236e-07 0.0127222)
(2.46109e-06 -6.67747e-08 0.0127373)
(1.23547e-06 7.93502e-07 0.0125382)
(1.67234e-06 6.755e-07 0.0125678)
(1.98203e-06 4.22577e-07 0.0125925)
(2.26386e-06 8.99718e-08 0.0126053)
(1.35243e-06 4.06946e-07 0.012808)
(1.62342e-06 3.06309e-07 0.0128525)
(1.74429e-06 1.40336e-07 0.0128784)
(1.78271e-06 -3.98493e-09 0.01289)
(1.22327e-06 3.98548e-07 0.0127413)
(1.48743e-06 2.99996e-07 0.012786)
(1.63783e-06 1.39731e-07 0.012816)
(1.71093e-06 -2.47039e-08 0.0128304)
(1.06072e-06 5.14346e-07 0.0126511)
(1.32366e-06 4.19753e-07 0.0126916)
(1.50507e-06 2.40395e-07 0.0127218)
(1.61937e-06 1.65881e-08 0.0127371)
(8.57746e-07 5.73256e-07 0.0125375)
(1.13184e-06 4.81201e-07 0.0125672)
(1.33368e-06 3.06063e-07 0.012592)
(1.49101e-06 8.12322e-08 0.012605)
(8.32855e-07 2.80198e-07 0.0128077)
(9.92285e-07 2.17659e-07 0.0128523)
(1.07115e-06 1.19417e-07 0.0128783)
(1.09965e-06 3.18136e-08 0.01289)
(7.59515e-07 2.74535e-07 0.0127409)
(9.15519e-07 2.15059e-07 0.0127857)
(1.0084e-06 1.18621e-07 0.0128158)
(1.05217e-06 1.74077e-08 0.0128303)
(6.6609e-07 3.41518e-07 0.0126508)
(8.22901e-07 2.82078e-07 0.0126913)
(9.33707e-07 1.70221e-07 0.0127216)
(9.97704e-07 3.34926e-08 0.012737)
(5.51288e-07 3.78273e-07 0.0125372)
(7.15683e-07 3.1518e-07 0.0125669)
(8.37652e-07 2.02153e-07 0.0125918)
(9.2337e-07 5.96875e-08 0.0126048)
(4.52057e-07 1.40936e-07 0.0128075)
(5.33746e-07 9.96227e-08 0.0128522)
(5.8473e-07 4.90428e-08 0.0128783)
(6.06639e-07 3.93973e-09 0.01289)
(4.10934e-07 1.50732e-07 0.0127407)
(4.92247e-07 1.13041e-07 0.0127855)
(5.50935e-07 5.94186e-08 0.0128157)
(5.81139e-07 4.06234e-09 0.0128303)
(3.62514e-07 1.89418e-07 0.0126505)
(4.47296e-07 1.53703e-07 0.0126911)
(5.14721e-07 9.3057e-08 0.0127215)
(5.55431e-07 1.83475e-08 0.012737)
(3.08402e-07 2.16757e-07 0.0125369)
(3.99508e-07 1.8081e-07 0.0125666)
(4.74234e-07 1.18658e-07 0.0125917)
(5.2607e-07 3.67903e-08 0.0126047)
(0.00158892 0.00367341 0.0238337)
(-0.00216523 0.00432997 0.0331481)
(-0.00119173 0.000612255 0.0142156)
(0.00107912 0.00135018 0.0229648)
(0.00044704 0.00127436 0.0067688)
(-0.00112332 0.00291302 0.0238763)
(-2.69213e-05 0.00268122 0.015717)
(0.00110333 0.00382708 0.0205814)
(-0.00277002 0.00335789 0.0237327)
(-0.0051811 0.00391479 0.0211609)
(-0.00107791 0.00261065 0.0149511)
(-0.0019976 0.00298281 0.0244954)
(-0.00149059 -0.00145826 0.0172846)
(-0.000532136 -0.000334196 0.00861821)
(-0.00137831 0.00156524 0.0319446)
(-0.00115005 0.00042255 0.013234)
(0.000313252 0.000357147 0.0114322)
(-0.000655532 0.00202862 0.0257779)
(-0.000824384 0.000977953 0.00884199)
(-0.000176376 6.78023e-06 0.00813913)
(-0.000584561 0.000768164 0.0394192)
(-0.00119767 -0.000250691 0.0154602)
(-0.00347469 -0.000219595 0.0258544)
(-0.00161444 -0.000466026 0.0239949)
(-0.00407837 0.00100268 0.0471525)
(-0.00201914 0.0010726 0.0231365)
(-0.00228977 -0.000120243 0.0207428)
(-0.0018728 0.00323983 0.0476034)
(0.000230419 -0.00142463 0.0232856)
(-0.00272912 0.00132056 0.0361814)
(-0.00215558 0.000409566 0.0167832)
(0.000721367 0.000486385 0.0216421)
(-0.00113746 -0.00465423 0.0429847)
(-0.000797965 0.00275541 0.0657986)
(-0.000705311 0.00130966 0.0274266)
(-0.0028972 -0.00195027 0.0454481)
(0.000848105 -0.00104847 0.00618165)