/*--------------------------------*- C++ -*----------------------------------*\
| =========                 |                                                 |
| \\      /  F ield         | OpenFOAM: The Open Source CFD Toolbox           |
|  \\    /   O peration     | Version:  2506                                  |
|   \\  /    A nd           | Website:  www.openfoam.com                      |
|    \\/     M anipulation  |                                                 |
\*---------------------------------------------------------------------------*/
FoamFile
{
    version     2.0;
    format      ascii;
    arch        "LSB;label=32;scalar=64";
    class       volScalarField;
    location    "0.07";
    object      Ksl;
}
// * * * * * * * * * * * * * * * * * * * * * * * * * * * * * * * * * * * * * //

dimensions      [1 -3 -1 0 0 0 0];

internalField   nonuniform List<scalar> 
1152
(
133059
241386
200863
223876
202869
122244
156546
200539
189334
273099
226001
213912
189856
78488.7
195421
104766
222675
152730
298827
206277
190154
244286
171393
215756
174959
180049
363771
233791
192570
198755
206321
173463
224324
213038
225512
308281
243957
230540
237685
283881
265070
142731
276014
169911
195720
415079
299273
175945
149405
161344
250039
132276
259699
261407
230968
271969
204180
274141
276510
261115
214827
272976
333711
413818
233503
351748
253202
232635
178249
243408
135034
120975
218098
223111
310968
286579
280445
290241
335510
311116
207212
198177
214031
242954
193333
268501
204420
276324
201950
322668
244302
166523
359776
167249
208839
154227
31906.7
40233.9
41971.3
46133.4
59331.9
32432.6
116879
65301
47083.9
61104.4
72441.3
87446.7
28323.9
25679.9
71325.8
81818.5
0
0
0
0
0
0
0
0
0
0
0
0
0
0
0
0
0
0
0
0
0
0
0
0
0
0
0
0
0
0
0
0
0
0
0
0
0
0
0
0
0
0
0
0
0
0
0
0
0
0
0
0
0
0
0
0
0
0
0
0
0
0
0
0
0
0
0
0
0
0
0
0
0
0
0
0
0
0
0
0
0
0
0
0
0
0
0
0
0
0
0
0
0
0
0
0
0
0
0
0
0
0
0
0
0
0
0
0
0
0
0
0
0
0
0
0
0
0
0
0
0
0
0
0
0
0
0
0
0
0
0
0
0
0
0
0
0
0
0
0
0
0
0
0
0
0
0
0
0
0
0
0
0
0
0
0
0
0
0
0
0
0
0
0
0
0
0
0
0
0
0
0
0
0
0
0
0
0
0
0
0
0
0
0
0
0
0
0
0
0
0
0
0
0
0
0
0
0
0
0
0
0
0
0
0
0
0
0
0
0
0
0
0
0
0
0
0
0
0
0
0
0
0
0
0
0
0
0
0
0
0
0
0
0
0
0
0
0
0
0
0
0
0
0
0
0
0
0
0
0
0
0
0
0
0
0
0
0
0
0
0
0
0
0
0
0
0
0
0
0
0
0
224765
140357
146348
215708
170681
225827
207969
256588
204150
197360
133372
252505
164640
215317
299998
156400
169518
243404
182299
117167
206085
113892
196999
283530
174407
264686
230852
320833
140422
248298
344562
181904
212023
226825
233626
223474
197022
289378
233055
187323
236236
176429
281618
274186
304650
171002
185904
174027
226909
243295
159799
376154
203446
202317
246699
146381
253228
176620
196391
333695
276678
398426
258386
226718
229658
226283
181636
204371
252354
160482
442901
176898
189343
339680
252275
374066
147629
240529
226419
254735
70232.9
209990
300891
140856
259682
281564
255233
298607
201367
168169
216859
199124
196374
208554
292110
209260
94707.7
46986.9
21848.4
33269
98613.7
76332.5
101396
50579.7
131416
63201.6
76640
68983.2
82986.7
84883.4
67893.9
71060.9
0
0
0
0
0
0
0
0
0
0
0
0
0
0
0
0
0
0
0
0
0
0
0
0
0
0
0
0
0
0
0
0
0
0
0
0
0
0
0
0
0
0
0
0
0
0
0
0
0
0
0
0
0
0
0
0
0
0
0
0
0
0
0
0
0
0
0
0
0
0
0
0
0
0
0
0
0
0
0
0
0
0
0
0
0
0
0
0
0
0
0
0
0
0
0
0
0
0
0
0
0
0
0
0
0
0
0
0
0
0
0
0
0
0
0
0
0
0
0
0
0
0
0
0
0
0
0
0
0
0
0
0
0
0
0
0
0
0
0
0
0
0
0
0
0
0
0
0
0
0
0
0
0
0
0
0
0
0
0
0
0
0
0
0
0
0
0
0
0
0
0
0
0
0
0
0
0
0
0
0
0
0
0
0
0
0
0
0
0
0
0
0
0
0
0
0
0
0
0
0
0
0
0
0
0
0
0
0
0
0
0
0
0
0
0
0
0
0
0
0
0
0
0
0
0
0
0
0
0
0
0
0
0
0
0
0
0
0
0
0
0
0
0
0
0
0
0
0
0
0
0
0
0
0
0
0
0
0
0
0
0
0
0
0
0
0
0
0
0
0
0
0
168907
172208
232876
225776
149462
164693
182026
138691
180546
241708
163000
219135
181641
250295
139843
299589
148115
243641
184897
225860
263309
173859
188757
197355
161899
259003
247102
222221
332155
240414
145285
213023
276653
170667
267612
172828
230914
237475
172228
240888
226142
180431
301793
254599
280813
280661
237535
238244
154481
284911
202912
277942
200608
146496
249294
141318
213578
291760
299841
242767
311022
210144
206583
195828
206139
189363
279823
203965
241329
281281
153258
388256
167209
218918
234509
367915
204007
295095
289527
261561
191533
257749
229831
201402
347636
237379
203812
221125
120724
327404
285190
229830
287728
163430
132485
362565
35955.5
43610.6
58006.3
49713.1
73338.3
43584.6
29585.8
31827.4
67260.7
37931
45218.9
39786.8
50315.3
18306.8
37319.7
48377.1
0
0
0
0
0
0
0
0
0
0
0
0
0
0
0
0
0
0
0
0
0
0
0
0
0
0
0
0
0
0
0
0
0
0
0
0
0
0
0
0
0
0
0
0
0
0
0
0
0
0
0
0
0
0
0
0
0
0
0
0
0
0
0
0
0
0
0
0
0
0
0
0
0
0
0
0
0
0
0
0
0
0
0
0
0
0
0
0
0
0
0
0
0
0
0
0
0
0
0
0
0
0
0
0
0
0
0
0
0
0
0
0
0
0
0
0
0
0
0
0
0
0
0
0
0
0
0
0
0
0
0
0
0
0
0
0
0
0
0
0
0
0
0
0
0
0
0
0
0
0
0
0
0
0
0
0
0
0
0
0
0
0
0
0
0
0
0
0
0
0
0
0
0
0
0
0
0
0
0
0
0
0
0
0
0
0
0
0
0
0
0
0
0
0
0
0
0
0
0
0
0
0
0
0
0
0
0
0
0
0
0
0
0
0
0
0
0
0
0
0
0
0
0
0
0
0
0
0
0
0
0
0
0
0
0
0
0
0
0
0
0
0
0
0
0
0
0
0
0
0
0
0
0
0
0
0
0
0
0
0
0
0
0
0
0
0
0
0
0
0
0
0
)
;

boundaryField
{
    inlet
    {
        type            zeroGradient;
    }
    outlet
    {
        type            zeroGradient;
    }
    wall
    {
        type            zeroGradient;
    }
    procBoundary0to1
    {
        type            processor;
        value           nonuniform List<scalar> 
192
(
138544
117856
184287
185515
436827
243968
277057
260734
219335
246905
296225
184836
342040
230142
255718
224432
274347
450896
192277
365755
174969
173052
253344
303470
48309.4
161226
99278.1
209408
0
0
0
0
0
0
0
0
0
0
0
0
0
0
0
0
0
0
0
0
0
0
0
0
0
0
0
0
0
0
0
0
0
0
0
0
0
0
0
0
0
0
0
0
0
0
0
0
0
0
0
0
0
0
0
0
0
0
0
0
0
0
0
0
0
0
0
0
171640
299011
159520
125707
180452
249755
172866
238319
193838
159683
262328
282018
197578
266770
214251
421877
194809
208210
166031
201022
191190
222249
249358
150855
62013.3
51705
43889.5
38768.8
0
0
0
0
0
0
0
0
0
0
0
0
0
0
0
0
0
0
0
0
0
0
0
0
0
0
0
0
0
0
0
0
0
0
0
0
0
0
0
0
0
0
0
0
0
0
0
0
0
0
0
0
0
0
0
0
0
0
0
0
0
0
0
0
0
0
0
0
)
;
    }
    procBoundary0to2
    {
        type            processor;
        value           nonuniform List<scalar> 
192
(
136539
250966
326613
164117
302876
312622
160478
175599
424793
132568
219791
251154
193768
269065
203735
173535
292979
207706
155542
347015
157037
376339
242592
222596
43775
66129.5
55992.9
79429.1
0
0
0
0
0
0
0
0
0
0
0
0
0
0
0
0
0
0
0
0
0
0
0
0
0
0
0
0
0
0
0
0
0
0
0
0
0
0
0
0
0
0
0
0
0
0
0
0
0
0
0
0
0
0
0
0
0
0
0
0
0
0
0
0
0
0
0
0
225694
134872
145219
237025
207381
182248
127228
300018
157655
285450
206909
267420
186808
95739.9
189720
281900
210663
212955
249994
227995
250592
211819
196112
250753
70131.7
74971.4
52072.7
91791.7
0
0
0
0
0
0
0
0
0
0
0
0
0
0
0
0
0
0
0
0
0
0
0
0
0
0
0
0
0
0
0
0
0
0
0
0
0
0
0
0
0
0
0
0
0
0
0
0
0
0
0
0
0
0
0
0
0
0
0
0
0
0
0
0
0
0
0
0
)
;
    }
}


// ************************************************************************* //
