/*--------------------------------*- C++ -*----------------------------------*\
| =========                 |                                                 |
| \\      /  F ield         | OpenFOAM: The Open Source CFD Toolbox           |
|  \\    /   O peration     | Version:  2506                                  |
|   \\  /    A nd           | Website:  www.openfoam.com                      |
|    \\/     M anipulation  |                                                 |
\*---------------------------------------------------------------------------*/
FoamFile
{
    version     2.0;
    format      ascii;
    arch        "LSB;label=32;scalar=64";
    class       surfaceScalarField;
    location    "0.07";
    object      phi;
}
// * * * * * * * * * * * * * * * * * * * * * * * * * * * * * * * * * * * * * //

dimensions      [0 3 -1 0 0 0 0];

oriented        oriented;

internalField   nonuniform List<scalar> 
3120
(
-3.6777e-09
-4.27036e-09
5.16229e-08
3.33961e-09
-3.1058e-09
-4.53833e-09
-7.98067e-10
4.71435e-08
-1.25949e-09
-3.30353e-09
2.42587e-09
3.31266e-08
6.87127e-09
9.22888e-10
3.63461e-08
2.58285e-10
1.89827e-09
-7.79664e-10
4.20262e-08
-3.47313e-09
-4.94636e-09
-3.28842e-09
5.37405e-08
-4.35642e-09
-6.48014e-09
5.26947e-08
2.86192e-10
3.78741e-08
-1.35023e-09
-1.17227e-09
4.78222e-08
-3.68279e-09
-4.37241e-09
6.29003e-09
3.78316e-08
2.02222e-09
5.82794e-09
2.47657e-08
1.14319e-08
3.52005e-08
5.78787e-09
4.24703e-08
-1.4115e-09
-8.06062e-09
8.00788e-08
4.73473e-09
3.76718e-08
6.86733e-08
2.59391e-09
-2.24109e-09
4.21672e-08
6.0828e-09
3.01973e-09
-1.58626e-09
-8.53707e-09
5.66083e-08
3.25214e-09
-1.42095e-09
-3.80745e-09
3.57258e-08
1.04285e-09
-2.37977e-09
3.85218e-08
2.76244e-09
-4.41854e-09
-3.88008e-09
4.31673e-08
4.91619e-09
-4.93315e-10
2.98943e-09
3.82886e-08
-2.08482e-10
7.31529e-10
4.78707e-08
2.18165e-09
3.68074e-08
2.42043e-09
-4.21466e-09
4.47417e-08
9.94511e-10
-2.13156e-09
-1.52699e-08
6.06428e-08
1.2684e-09
-2.43709e-09
2.45343e-08
-6.54206e-09
4.85566e-08
-1.11752e-08
4.86899e-08
5.21422e-09
6.8459e-09
3.42928e-08
8.80403e-10
3.39013e-08
5.65601e-08
-1.25267e-09
-5.06499e-09
5.68882e-08
-8.27721e-09
-1.26128e-10
2.00437e-09
-3.63066e-09
5.64551e-08
5.26587e-10
5.68633e-09
-3.30315e-09
3.96862e-08
-4.33932e-09
-4.99077e-09
5.79522e-08
-4.09692e-09
-3.75784e-10
-2.49667e-09
3.73701e-08
3.60446e-09
5.97127e-10
-4.55468e-09
3.82396e-08
1.90818e-09
-5.44061e-10
4.38005e-08
-2.28387e-09
3.47834e-08
3.47296e-10
-5.35087e-10
4.19508e-08
4.81964e-10
3.88109e-09
-2.54441e-09
5.50986e-08
2.09533e-10
-3.51575e-09
3.11775e-08
-5.64346e-09
4.88741e-08
-1.10398e-09
4.6854e-08
-1.24417e-09
3.49077e-10
2.47122e-08
1.53283e-09
2.61968e-08
3.99223e-08
-2.54668e-09
9.34763e-12
5.69257e-08
-1.17105e-09
3.67076e-09
4.53983e-09
2.47954e-10
4.68585e-08
2.26189e-09
4.11291e-09
4.01961e-09
3.68141e-08
-7.20613e-10
7.418e-09
6.24502e-08
-3.79477e-09
-6.27693e-10
-4.33432e-09
4.74737e-08
-5.13227e-09
6.68299e-09
-4.88997e-09
3.60667e-08
2.37033e-09
-7.30189e-09
5.94345e-08
-9.81821e-09
6.20569e-08
-3.16328e-09
-3.64734e-09
4.7145e-08
-2.71796e-09
4.20113e-09
2.64199e-09
4.02022e-08
-9.90972e-10
-6.76234e-10
2.97439e-08
-1.91628e-09
3.49966e-08
3.71752e-09
3.88958e-08
-4.08534e-09
1.04696e-09
3.26275e-08
-1.68532e-09
2.56818e-08
2.60408e-08
1.93577e-10
9.56621e-10
4.7059e-08
3.73605e-09
4.98037e-09
2.49525e-09
5.08429e-10
3.99864e-08
4.06197e-09
-3.47282e-09
-1.18668e-09
4.06459e-08
3.32288e-09
7.62246e-09
4.11279e-08
1.19759e-09
6.17023e-10
-1.48738e-09
5.59729e-08
-6.67228e-09
1.56709e-09
-3.93169e-10
3.60182e-08
-1.63402e-10
1.23926e-09
5.8739e-08
5.43291e-09
6.09395e-08
9.75069e-10
-2.55261e-09
4.70239e-08
2.11139e-10
1.85085e-09
3.56226e-09
3.53709e-08
1.23235e-09
1.69327e-09
2.99083e-08
3.36665e-09
4.14574e-08
5.67932e-09
2.85851e-08
-7.951e-10
4.53882e-10
4.67945e-08
1.91167e-09
3.35236e-08
4.24064e-08
1.69701e-09
-5.89456e-09
5.71472e-08
-4.29521e-09
-1.59547e-09
-2.19694e-09
-5.81573e-10
4.22328e-08
2.22918e-09
-2.88956e-10
-1.13852e-08
4.87587e-08
1.36437e-09
-7.18064e-09
4.67801e-08
2.56821e-09
5.872e-09
2.6483e-09
4.18691e-08
-3.11054e-10
-1.11786e-08
-1.49936e-09
5.39865e-08
2.86897e-10
5.76038e-09
3.0128e-08
2.21644e-09
5.1017e-08
1.48676e-09
4.29879e-09
4.69645e-08
-3.07777e-09
-3.30495e-09
2.24539e-09
3.64179e-08
-4.79859e-09
1.68796e-09
3.54744e-08
3.51318e-09
3.83712e-08
-1.83968e-09
4.71098e-08
-6.28734e-09
-7.77105e-09
5.8324e-08
-5.99189e-09
3.56391e-08
4.28225e-08
3.64887e-09
4.10415e-10
5.26949e-08
-3.33331e-09
3.72516e-09
8.88153e-10
-2.23844e-09
4.75865e-08
-3.53357e-10
6.15524e-10
1.86864e-09
4.66034e-08
5.59243e-10
-2.22014e-09
4.72077e-08
2.74672e-09
-6.05914e-12
-6.91544e-10
4.3466e-08
-4.87495e-10
4.18365e-09
6.37714e-10
4.69204e-08
2.45707e-09
-1.05782e-09
3.47811e-08
4.56242e-10
4.68176e-08
9.04733e-10
-5.76439e-10
4.48246e-08
1.11984e-09
-3.6059e-10
-2.80068e-09
4.1122e-08
-6.96749e-10
-1.00066e-09
3.57529e-08
-9.68956e-10
3.93034e-08
-1.88223e-09
4.6041e-08
2.6675e-09
-4.04203e-10
5.19091e-08
-2.99579e-09
3.92304e-08
3.85247e-08
-2.82169e-09
-2.02293e-09
4.97559e-08
3.61217e-09
4.17296e-09
-1.10824e-09
-1.30656e-09
4.63929e-08
7.90808e-10
-6.76848e-10
-1.30104e-09
4.55537e-08
1.91947e-09
-3.33471e-09
4.79909e-08
2.9902e-09
-4.673e-09
-2.41149e-09
4.40481e-08
4.48317e-09
-1.63886e-09
-1.26846e-09
4.38482e-08
-1.5494e-09
-2.10482e-09
3.54951e-08
-2.25766e-09
4.62462e-08
-3.99863e-09
-1.85143e-09
4.34711e-08
4.79303e-09
-2.78492e-09
-1.77872e-09
4.04191e-08
-3.27699e-09
-1.65103e-09
3.57911e-08
-1.98467e-09
3.98568e-08
-5.49999e-09
4.34729e-08
6.60891e-09
-2.53262e-09
4.62524e-08
-4.0506e-09
3.98461e-08
3.65044e-08
2.68523e-09
3.74067e-09
4.64471e-08
-2.41087e-09
-7.03242e-10
2.51127e-09
3.38244e-09
4.50124e-08
-1.82836e-09
1.39744e-09
4.39898e-09
4.39568e-08
-1.68818e-09
2.83924e-09
4.45438e-08
-3.23868e-10
5.99966e-10
1.59405e-09
4.3269e-08
2.32526e-09
2.78803e-09
2.16401e-09
4.28788e-08
1.29793e-09
1.62272e-09
3.97616e-08
2.93707e-09
4.25495e-08
1.07886e-09
1.54405e-10
4.24439e-08
1.38877e-09
2.367e-09
8.53378e-11
4.12098e-08
1.33897e-09
-6.93162e-10
3.91358e-08
1.32189e-09
3.99305e-08
-8.38937e-11
4.2397e-08
2.16905e-09
2.76082e-09
4.27186e-08
3.17813e-09
4.02963e-08
3.8704e-08
1.04376e-09
2.11723e-09
4.46123e-08
-5.90837e-10
-7.35693e-10
1.34566e-09
2.35569e-09
4.39248e-08
-1.5704e-09
1.05327e-09
2.7968e-09
4.32402e-08
-1.78777e-09
2.42112e-09
4.31784e-08
-1.47734e-09
3.84552e-10
1.07554e-09
4.29355e-08
9.90236e-10
1.47089e-09
1.54285e-09
4.26056e-08
1.00228e-09
1.45238e-09
4.15751e-08
1.87696e-09
4.18578e-08
8.29686e-10
2.13915e-10
4.24099e-08
6.5908e-11
1.43778e-09
2.95457e-10
4.18494e-08
1.02995e-09
5.65421e-11
4.09396e-08
6.04718e-10
4.08326e-08
6.02365e-10
4.23723e-08
1.06813e-10
1.56023e-09
4.20481e-08
1.55944e-09
4.11098e-08
4.03595e-08
9.84361e-10
1.69972e-09
4.38759e-08
-7.57693e-10
-1.19065e-09
1.07801e-09
1.65439e-09
4.35108e-08
-1.33365e-09
8.78198e-10
1.67759e-09
4.3101e-08
-1.33829e-09
1.57894e-09
4.29149e-08
-1.26453e-09
6.18899e-10
1.04677e-09
4.30089e-08
-3.9094e-11
9.75717e-10
1.12974e-09
4.27745e-08
8.06362e-10
1.0868e-09
4.23358e-08
1.10764e-09
4.2194e-08
7.11704e-10
3.9456e-10
4.26552e-08
-3.04354e-10
9.30415e-10
4.0225e-10
4.23588e-08
7.37164e-10
2.97374e-10
4.19225e-08
3.15464e-10
4.17197e-08
6.56538e-10
4.25896e-08
-3.01326e-10
8.88607e-10
4.23086e-08
7.62341e-10
4.18794e-08
4.15296e-08
5.38603e-10
1.01e-09
4.35174e-08
-3.72514e-10
-8.17365e-10
6.14346e-10
1.00699e-09
4.33236e-08
-8.94753e-10
5.32092e-10
9.98284e-10
4.31013e-08
-9.15599e-10
9.5755e-10
4.29552e-08
-9.05841e-10
4.23033e-10
6.77437e-10
4.30785e-08
-1.59193e-10
5.57279e-10
7.12192e-10
4.29364e-08
4.84431e-10
6.87672e-10
4.27202e-08
6.41942e-10
4.25866e-08
4.65662e-10
3.0345e-10
4.28696e-08
-3.05283e-10
5.32292e-10
3.02288e-10
4.2703e-08
4.1735e-10
2.38438e-10
4.24873e-08
1.67831e-10
4.23489e-08
4.4919e-10
4.28089e-08
-3.23358e-10
4.81332e-10
4.26385e-08
3.48104e-10
4.24282e-08
4.22681e-08
2.96037e-10
5.98879e-10
4.33589e-08
-2.00087e-10
-5.35875e-10
3.36554e-10
5.8912e-10
4.32545e-08
-5.59553e-10
2.9336e-10
5.709e-10
4.31362e-08
-5.61756e-10
5.3714e-10
4.30452e-08
-5.51555e-10
2.51721e-10
4.23646e-10
4.31337e-08
-1.30797e-10
3.01308e-10
4.26889e-10
4.30506e-08
2.53307e-10
4.00017e-10
4.29402e-08
3.52053e-10
4.28568e-08
2.62371e-10
2.124e-10
4.30116e-08
-1.92355e-10
2.75813e-10
1.97391e-10
4.29202e-08
2.00737e-10
1.50894e-10
4.28123e-08
8.51893e-11
4.27349e-08
2.45031e-10
4.29654e-08
-1.98942e-10
2.32234e-10
4.28722e-08
1.35497e-10
4.277e-08
4.26979e-08
1.49624e-10
3.39627e-10
4.32855e-08
-9.57055e-11
-3.1977e-10
1.70993e-10
3.31358e-10
4.32304e-08
-3.27783e-10
1.48803e-10
3.15086e-10
4.31684e-08
-3.24251e-10
2.88432e-10
4.31171e-08
-3.12272e-10
1.3199e-10
2.50053e-10
4.31688e-08
-7.67333e-11
1.49307e-10
2.43808e-10
4.31223e-08
1.19182e-10
2.20999e-10
4.30654e-08
1.84112e-10
4.30197e-08
1.30685e-10
1.34988e-10
4.30983e-08
-1.01448e-10
1.27963e-10
1.18334e-10
4.30494e-08
8.14988e-11
8.48374e-11
4.29957e-08
3.78552e-11
4.29564e-08
1.14246e-10
4.30663e-08
-9.97259e-11
9.54725e-11
4.30181e-08
3.48893e-11
4.29696e-08
4.29385e-08
7.03409e-11
1.88873e-10
4.32521e-08
-4.21552e-11
-1.8358e-10
8.07369e-11
1.8237e-10
4.32236e-08
-1.85272e-10
6.87996e-11
1.69976e-10
4.31917e-08
-1.80672e-10
1.50623e-10
4.31644e-08
-1.70014e-10
6.19559e-11
1.42902e-10
4.31908e-08
-3.73142e-11
6.68105e-11
1.35096e-10
4.31658e-08
4.82495e-11
1.1785e-10
4.3137e-08
9.21309e-11
4.31136e-08
5.69577e-11
8.06485e-11
4.31504e-08
-4.60891e-11
5.05487e-11
6.65947e-11
4.31252e-08
2.25421e-11
4.32565e-11
4.30991e-08
1.23481e-11
4.30808e-08
4.3384e-11
4.31296e-08
-4.15045e-11
2.76579e-11
4.3106e-08
-8.14713e-12
4.3084e-08
4.3072e-08
2.9183e-11
1.03543e-10
4.32376e-08
-1.52033e-11
-1.02901e-10
3.3656e-11
9.84799e-11
4.32233e-08
-1.02268e-10
2.67987e-11
8.94752e-11
4.32074e-08
-9.79656e-11
7.60152e-11
4.31937e-08
-8.95518e-11
2.4173e-11
7.94189e-11
4.3205e-08
-1.38636e-11
2.43045e-11
7.25384e-11
4.31923e-08
1.28734e-11
6.02338e-11
4.31783e-08
4.30263e-11
4.31673e-08
1.87722e-11
4.53878e-11
4.31821e-08
-1.59926e-11
1.25561e-11
3.47454e-11
4.31699e-08
-4.20269e-12
1.89546e-11
4.3158e-08
-7.10205e-13
4.31505e-08
8.47631e-12
4.31692e-08
-1.11816e-11
-3.03113e-12
4.31586e-08
-2.37838e-11
4.31498e-08
4.31465e-08
8.75024e-12
5.59074e-11
4.32321e-08
-2.27835e-12
-5.66994e-11
1.01937e-11
5.19992e-11
4.32254e-08
-5.53263e-11
5.98582e-12
4.56087e-11
4.32181e-08
-5.17206e-11
3.64774e-11
4.32118e-08
-4.54691e-11
5.23951e-12
4.27505e-11
4.32147e-08
-1.59232e-12
3.77731e-12
3.73722e-11
4.32088e-08
-3.32392e-12
2.89189e-11
4.32027e-08
1.76285e-11
4.31982e-08
6.10066e-13
2.37122e-11
4.3202e-08
-1.19468e-12
-4.39226e-12
1.61314e-11
4.31967e-08
-1.44068e-11
5.7066e-12
4.3192e-08
-6.6763e-12
4.31899e-08
-6.75832e-12
4.31945e-08
2.89042e-12
-1.47318e-11
4.31905e-08
-2.68197e-11
4.31879e-08
4.31884e-08
-7.28451e-13
2.95653e-11
4.32307e-08
3.44124e-12
-3.07983e-11
-6.82697e-13
2.66408e-11
4.32281e-08
-2.93171e-11
-3.35152e-12
2.22061e-11
4.32251e-08
-2.64763e-11
1.61382e-11
4.32228e-08
-2.20286e-11
-3.30728e-12
2.20584e-11
4.32216e-08
3.97111e-12
-5.07616e-12
1.81177e-11
4.32194e-08
-9.48981e-12
1.24281e-11
4.32172e-08
5.11192e-12
4.3216e-08
-6.84153e-12
1.11149e-11
4.32148e-08
5.13947e-12
-1.06277e-11
5.9621e-12
4.32131e-08
-1.67674e-11
-7.9766e-13
4.32119e-08
-8.69661e-12
4.32121e-08
-1.18883e-11
4.32108e-08
8.33476e-12
-1.7361e-11
4.321e-08
-2.46203e-11
4.32101e-08
4.3212e-08
-4.46638e-12
1.52919e-11
4.32311e-08
5.22218e-12
-1.64499e-11
-5.01316e-12
1.31181e-11
4.32305e-08
-1.51722e-11
-6.75133e-12
1.00742e-11
4.32298e-08
-1.30245e-11
6.05194e-12
4.32293e-08
-9.96388e-12
-6.36178e-12
1.07667e-11
4.32265e-08
5.88279e-12
-8.02222e-12
8.01361e-12
4.32261e-08
-1.07947e-11
4.19585e-12
4.32258e-08
-5.86727e-13
4.32261e-08
-8.95313e-12
4.39032e-12
4.3223e-08
7.12406e-12
-1.17655e-11
9.88387e-13
4.3223e-08
-1.55405e-11
-3.46159e-12
4.32233e-08
-8.59596e-12
4.32245e-08
-1.23383e-11
4.32212e-08
9.41246e-12
-1.61548e-11
4.32217e-08
-2.06644e-11
4.32229e-08
4.32251e-08
-5.37678e-12
7.69581e-12
4.3232e-08
5.32156e-12
-8.65013e-12
-6.1042e-12
6.12055e-12
4.32323e-08
-7.64667e-12
-7.25739e-12
4.01496e-12
4.32327e-08
-6.06529e-12
1.33836e-12
4.32332e-08
-3.97612e-12
-6.79962e-12
4.89229e-12
4.32297e-08
5.943e-12
-8.18442e-12
2.97759e-12
4.32302e-08
-9.95019e-12
4.10393e-13
4.32309e-08
-2.72387e-12
4.32318e-08
-8.61308e-12
1.18091e-12
4.32282e-08
6.9833e-12
-1.07105e-11
-1.13835e-12
4.32289e-08
-1.30693e-11
-4.07184e-12
4.32299e-08
-7.44467e-12
4.32314e-08
-1.08838e-11
4.32275e-08
8.53558e-12
-1.36271e-11
4.32286e-08
-1.64506e-11
4.32301e-08
4.32323e-08
-4.97773e-12
3.73493e-12
4.32329e-08
4.62326e-12
-4.49666e-12
-5.66029e-12
2.62225e-12
4.32337e-08
-3.72996e-12
-6.46753e-12
1.16899e-12
4.32347e-08
-2.58286e-12
-6.0952e-13
4.32356e-08
-1.15224e-12
-6.01397e-12
1.98445e-12
4.32319e-08
5.13135e-12
-7.09716e-12
6.82346e-13
4.32328e-08
-8.23976e-12
-1.03155e-12
4.32339e-08
-3.06317e-12
4.32351e-08
-7.24272e-12
-2.08922e-13
4.32314e-08
5.92187e-12
-8.79074e-12
-1.7425e-12
4.32324e-08
-1.02657e-11
-3.67292e-12
4.32337e-08
-5.85155e-12
4.32354e-08
-8.80212e-12
4.32313e-08
6.92234e-12
-1.07258e-11
4.32325e-08
-1.24498e-11
4.32342e-08
4.32363e-08
-3.9989e-12
1.7041e-12
4.32337e-08
3.55893e-12
-2.29339e-12
-4.51762e-12
9.53326e-13
4.32348e-08
-1.71186e-12
-5.07319e-12
-1.67121e-14
4.3236e-08
-9.13547e-13
-1.14233e-12
4.32372e-08
5.21433e-14
-4.69355e-12
6.51936e-13
4.32334e-08
3.95421e-12
-5.47198e-12
-2.02776e-13
4.32345e-08
-6.21129e-12
-1.2993e-12
4.32358e-08
-2.56068e-12
4.32372e-08
-5.51867e-12
-6.20682e-13
4.32334e-08
4.49805e-12
-6.56615e-12
-1.65451e-12
4.32345e-08
-7.46118e-12
-2.8486e-12
4.3236e-08
-4.17389e-12
4.32377e-08
-6.5246e-12
4.32336e-08
5.13962e-12
-7.79033e-12
4.32349e-08
-8.79214e-12
4.32366e-08
4.32386e-08
-2.79404e-12
6.87937e-13
4.32343e-08
2.42909e-12
-1.08316e-12
-3.1337e-12
2.36984e-13
4.32355e-08
-6.93671e-13
-3.4665e-12
-3.51826e-13
4.32369e-08
-1.92422e-13
-1.01292e-12
4.32382e-08
4.15944e-13
-3.22299e-12
1.01203e-13
4.32343e-08
2.69456e-12
-3.71614e-12
-4.10082e-13
4.32355e-08
-4.13793e-12
-1.06122e-12
4.32369e-08
-1.77312e-12
4.32384e-08
-3.71686e-12
-6.3012e-13
4.32346e-08
3.03095e-12
-4.3593e-12
-1.21485e-12
4.32358e-08
-4.84993e-12
-1.90686e-12
4.32373e-08
-2.64102e-12
4.32389e-08
-4.32053e-12
4.32349e-08
3.41272e-12
-5.05444e-12
4.32363e-08
-5.58972e-12
4.3238e-08
4.32398e-08
-1.65296e-12
2.13743e-13
1.41099e-12
-4.35274e-13
-1.8566e-12
-4.18198e-14
-2.12665e-13
-2.03685e-12
-3.50792e-13
5.9862e-14
-7.02694e-13
3.92741e-13
-1.89386e-12
-1.03892e-13
1.57232e-12
-2.17179e-12
-3.87231e-13
-2.39275e-12
-7.26878e-13
-1.09526e-12
-2.16915e-12
-4.91439e-13
1.76798e-12
-2.5086e-12
-8.04362e-13
-2.76204e-12
-1.15606e-12
-1.52811e-12
-2.47731e-12
1.99172e-12
-2.85968e-12
-3.13712e-12
5.17137e-10
1.6887e-10
4.10434e-08
7.78528e-10
-7.90124e-10
6.29134e-10
3.84013e-08
-7.57857e-10
-1.25434e-09
-3.04766e-09
3.86679e-08
-2.33896e-09
-5.36002e-09
3.66534e-08
-2.52767e-09
4.13337e-10
-1.46423e-09
5.24092e-08
-8.61544e-09
-4.95866e-09
6.13594e-08
-5.42634e-09
-2.79489e-09
3.86618e-08
-9.89729e-10
2.33514e-08
-4.92853e-09
3.17769e-09
6.09242e-08
-1.04836e-09
6.18885e-10
4.52482e-08
-8.77626e-09
-5.75125e-09
5.49454e-08
4.54241e-09
2.43075e-08
-1.0894e-08
8.19083e-08
-4.25664e-09
4.31945e-08
4.74468e-09
2.42986e-08
5.5732e-08
-6.26435e-09
-1.85956e-10
4.82096e-08
-1.50989e-09
-1.57075e-09
2.02662e-09
3.18303e-08
-1.49306e-10
-1.02288e-10
4.37852e-10
3.50207e-08
1.74095e-09
2.11522e-09
4.02171e-08
3.01491e-10
-1.53496e-09
-5.54538e-10
5.3541e-08
-2.98895e-09
1.28992e-09
6.35499e-08
5.99888e-10
-3.92129e-09
3.94319e-08
-2.96956e-09
3.3952e-08
1.2963e-09
-2.34377e-09
6.10459e-08
-7.31906e-09
8.10416e-10
5.4343e-08
1.95535e-09
4.3796e-09
3.73701e-08
-9.90474e-10
2.52781e-08
9.12526e-09
6.56933e-08
8.52883e-10
5.47273e-08
-5.95174e-09
3.99305e-08
5.52245e-08
2.51711e-09
-5.64989e-10
4.40609e-08
1.58843e-09
-7.0633e-10
-3.48099e-09
3.58484e-08
2.68624e-09
-5.03418e-09
-2.01008e-09
3.99483e-08
1.41032e-09
3.42199e-09
2.02371e-08
3.24671e-09
-6.46017e-09
-1.54234e-09
6.03691e-08
4.12496e-09
4.01065e-09
4.5473e-08
5.46386e-09
7.25022e-10
3.53577e-08
-3.27816e-09
4.97203e-08
8.69908e-09
-2.06039e-09
5.30171e-08
2.45154e-09
-3.4126e-09
6.80137e-08
4.55232e-10
-1.26244e-09
4.13538e-08
-2.80253e-09
2.57396e-08
1.1646e-08
4.56809e-08
5.39366e-09
5.06243e-08
-3.24006e-10
4.90046e-08
4.994e-08
8.5583e-10
-3.33423e-09
4.70161e-08
2.48084e-10
2.37493e-09
-2.33072e-09
3.63192e-08
3.40655e-10
1.02e-09
-4.16333e-09
4.41741e-08
1.29247e-09
-2.30113e-09
2.12335e-08
1.15375e-09
6.591e-09
1.37023e-09
4.88739e-08
-2.0789e-09
-5.75087e-09
5.7563e-08
5.72423e-09
-1.48254e-09
2.48736e-08
-4.31446e-09
5.23256e-08
-6.22873e-09
2.733e-09
5.8258e-08
4.93703e-09
-1.97124e-09
5.30683e-08
1.4306e-09
-3.64499e-09
4.70226e-08
-2.84037e-09
2.2978e-08
-8.60745e-09
6.85878e-08
2.02011e-09
3.70878e-08
2.08241e-09
4.59331e-08
4.1913e-08
-2.13301e-08
-1.1119e-08
8.64013e-08
-6.67714e-09
-7.3839e-09
-7.45855e-09
3.2358e-08
-2.52636e-09
5.59946e-09
-2.9658e-09
3.23225e-08
1.83402e-09
-6.81204e-09
3.71359e-08
2.45147e-10
2.12543e-09
5.68079e-11
3.63146e-08
3.41341e-09
-2.37582e-12
4.88188e-08
1.59161e-09
-3.47476e-10
2.4077e-08
2.75912e-09
3.76738e-08
-2.51962e-10
2.06983e-10
5.7854e-08
1.04196e-09
5.72472e-10
5.11995e-08
5.0212e-09
-9.63469e-10
4.36593e-08
-2.46697e-09
3.34365e-08
7.61091e-10
7.90439e-08
-6.90925e-10
4.9643e-08
4.04152e-09
4.27909e-08
4.18581e-08
2.77039e-08
-5.16267e-09
5.48678e-08
9.63894e-09
1.20333e-08
-3.32916e-09
4.97236e-08
1.63474e-09
-2.29286e-09
-3.99729e-09
5.46205e-08
-3.97443e-09
-3.61913e-09
3.42145e-08
-4.7053e-11
2.35881e-09
-4.65362e-09
3.40465e-08
6.1908e-09
-7.20439e-10
4.23782e-08
2.79353e-09
-1.99927e-09
2.54764e-08
-1.45801e-09
3.79953e-08
1.48821e-08
-2.38732e-10
3.82168e-08
5.76566e-09
-2.06602e-09
6.16616e-08
4.64174e-09
-2.58172e-10
4.30422e-08
-1.14818e-09
3.46907e-08
9.6687e-09
6.65007e-08
5.94908e-09
5.11493e-08
2.24512e-09
4.5383e-08
3.75619e-08
1.51555e-09
-3.92828e-10
5.34478e-08
1.49794e-09
2.59382e-10
-8.9194e-10
4.9227e-08
2.64609e-09
4.39104e-09
2.0337e-09
4.50818e-08
3.37375e-09
-9.08169e-10
3.25942e-08
3.5888e-09
-9.96966e-10
-1.68712e-09
3.60448e-08
1.06049e-09
-1.75697e-10
3.96048e-08
-2.48574e-09
-4.93277e-10
3.15517e-08
6.4842e-10
3.34653e-08
-2.66454e-09
-9.85574e-10
3.95774e-08
8.33914e-11
1.50624e-09
5.72317e-08
-5.28187e-10
3.47328e-11
4.31255e-08
4.13199e-11
3.58899e-08
-5.29386e-10
6.56434e-08
-2.87663e-09
5.49081e-08
-1.63394e-09
4.50392e-08
3.85727e-08
-4.91545e-09
5.22311e-10
5.92841e-08
-1.44164e-09
-6.68087e-09
1.36609e-10
5.17384e-08
-8.79021e-10
-3.81051e-09
5.7191e-10
4.20009e-08
-3.5744e-10
5.39398e-11
3.24299e-08
-8.58031e-11
-4.08212e-09
4.28704e-10
4.02255e-08
-4.93013e-09
-1.93571e-10
4.07877e-08
-5.44552e-09
-2.63334e-10
3.29062e-08
-1.8339e-10
3.27419e-08
-7.34024e-09
4.24524e-10
4.69229e-08
-5.58515e-09
1.42318e-09
5.38609e-08
-4.65383e-09
3.46972e-10
4.15844e-08
-1.8299e-10
3.60298e-08
-5.57636e-09
7.09138e-08
-7.47429e-09
5.76093e-08
-7.36781e-09
4.57761e-08
3.76618e-08
1.44379e-09
6.84366e-09
5.13002e-08
-2.96207e-10
2.9203e-09
6.06675e-09
4.40261e-08
1.71878e-10
2.87357e-09
5.74012e-09
3.58578e-08
4.5261e-10
4.60169e-09
2.8097e-08
1.92878e-10
-2.25169e-09
1.97501e-09
4.73467e-08
-1.38975e-09
1.83793e-09
4.4156e-08
-3.01981e-09
2.12252e-09
3.81539e-08
2.73533e-09
3.39143e-08
-2.94423e-09
-2.59178e-09
5.44355e-08
7.45383e-10
-6.3416e-10
5.26443e-08
1.51227e-11
-5.90367e-10
4.50282e-08
9.5663e-10
3.92126e-08
1.6613e-09
6.68745e-08
2.0551e-09
5.76912e-08
4.4216e-10
4.90758e-08
4.19652e-08
1.2929e-09
3.34571e-09
4.70388e-08
-3.77195e-10
2.07203e-09
2.94525e-09
4.05592e-08
-2.56207e-10
1.69392e-09
2.57456e-09
3.38672e-08
-2.05385e-10
2.04886e-09
2.74015e-08
-2.49532e-10
-7.27687e-10
9.43754e-10
5.04758e-08
-3.2869e-10
9.23844e-10
4.57787e-08
-8.10378e-10
9.48945e-10
4.02614e-08
1.16585e-09
3.4977e-08
-5.54488e-10
-1.52342e-09
5.74578e-08
8.35825e-10
-6.49223e-10
5.2828e-08
5.81867e-10
-4.33438e-10
4.66649e-08
2.10196e-10
4.08165e-08
1.38566e-09
6.42685e-08
1.68572e-09
5.73782e-08
1.03142e-09
5.03496e-08
4.38821e-08
7.19804e-10
2.02889e-09
4.45577e-08
-2.68118e-10
1.08264e-09
1.8634e-09
3.85685e-08
-2.34453e-10
1.01424e-09
1.64397e-09
3.25086e-08
-2.16121e-10
1.34497e-09
2.65619e-08
-2.47151e-10
-2.94057e-10
1.00115e-09
5.1798e-08
-1.17286e-10
1.00351e-09
4.64633e-08
-7.40363e-11
9.9278e-10
4.087e-08
9.65434e-10
3.52443e-08
-1.71093e-10
-2.33026e-10
5.88636e-08
3.06038e-10
1.70854e-11
5.33386e-08
3.74418e-10
1.9593e-10
4.73942e-08
3.81614e-10
4.14711e-08
4.20448e-10
6.36822e-08
6.47518e-10
5.7339e-08
5.42615e-10
5.0946e-08
4.47087e-08
4.27584e-10
1.01189e-09
4.33271e-08
-2.08348e-10
6.1582e-10
9.40745e-10
3.76411e-08
-1.99937e-10
5.6415e-10
8.24077e-10
3.19315e-08
-1.94138e-10
6.87678e-10
2.62722e-08
-2.04496e-10
-2.24592e-11
6.11163e-10
5.22223e-08
9.08723e-11
6.12386e-10
4.66801e-08
1.49259e-10
5.89258e-10
4.10475e-08
5.44116e-10
3.5379e-08
3.39433e-11
6.17262e-11
5.938e-08
2.32386e-10
1.61497e-10
5.35927e-08
3.10132e-10
2.21514e-10
4.76853e-08
2.61522e-10
4.17594e-08
2.10869e-10
6.34943e-08
3.49956e-10
5.73491e-08
3.69087e-10
5.11806e-08
4.50462e-08
2.15532e-10
5.29098e-10
4.27327e-08
-1.49659e-10
3.08843e-10
5.02697e-10
3.71946e-08
-1.47839e-10
2.88557e-10
4.51325e-10
3.16469e-08
-1.45185e-10
3.88706e-10
2.61205e-08
-1.46494e-10
2.42995e-11
3.76753e-10
5.23514e-08
8.7902e-11
3.80347e-10
4.67406e-08
1.26251e-10
3.66956e-10
4.10944e-08
3.35949e-10
3.54284e-08
4.27305e-11
1.33514e-10
5.95815e-08
1.31983e-10
1.68488e-10
5.37169e-08
1.82325e-10
1.89472e-10
4.78135e-08
1.91567e-10
4.18948e-08
9.37704e-11
6.34756e-08
1.65938e-10
5.73948e-08
1.97641e-10
5.13002e-08
4.52076e-08
1.05624e-10
2.74964e-10
4.24511e-08
-9.85454e-11
1.51176e-10
2.65695e-10
3.69835e-08
-9.86817e-11
1.41369e-10
2.43894e-10
3.15113e-08
-9.73532e-11
2.15989e-10
2.60481e-08
-9.60488e-11
2.57035e-11
2.25053e-10
5.23766e-08
5.98083e-11
2.2745e-10
4.67462e-08
7.8514e-11
2.19705e-10
4.11007e-08
2.01437e-10
3.54457e-08
2.7999e-11
1.18543e-10
5.9661e-08
6.92099e-11
1.30744e-10
5.37737e-08
9.54596e-11
1.35811e-10
4.7872e-08
1.29291e-10
4.19617e-08
3.739e-11
6.35018e-08
7.17174e-11
5.74387e-08
9.33513e-11
5.13681e-08
4.52936e-08
5.10555e-11
1.4472e-10
4.23174e-08
-6.17005e-11
7.27645e-11
1.42014e-10
3.68831e-08
-6.22903e-11
6.6943e-11
1.33066e-10
3.14463e-08
-6.14992e-11
1.2084e-10
2.60134e-08
-6.00657e-11
1.75406e-11
1.31255e-10
5.23733e-08
3.46306e-11
1.32884e-10
4.67393e-08
4.19768e-11
1.28769e-10
4.10984e-08
1.18698e-10
3.54531e-08
1.53745e-11
8.44562e-11
5.96931e-08
3.38639e-11
8.86765e-11
5.38004e-08
4.53112e-11
8.87469e-11
4.79013e-08
8.20663e-11
4.19979e-08
1.39066e-11
6.35309e-08
2.84431e-11
5.74723e-08
3.8856e-11
5.14096e-08
4.53439e-08
2.409e-11
7.76968e-11
4.22537e-08
-3.77151e-11
3.36708e-11
7.72398e-11
3.68352e-08
-3.83248e-11
2.94683e-11
7.36225e-11
3.14153e-08
-3.79506e-11
6.82337e-11
2.59971e-08
-3.70325e-11
9.58099e-12
7.5823e-11
5.23661e-08
1.71096e-11
7.68516e-11
4.67328e-08
1.88048e-11
7.4643e-11
4.10961e-08
6.90707e-11
3.54575e-08
6.77459e-12
5.44765e-11
5.9708e-08
1.3983e-11
5.58757e-11
5.38145e-08
1.76632e-11
5.46782e-11
4.7918e-08
4.95049e-11
4.20194e-08
3.38352e-12
6.35544e-08
7.9917e-12
5.74967e-08
1.1352e-11
5.14369e-08
4.53754e-08
1.07593e-11
4.27167e-11
4.22235e-08
-2.29847e-11
1.42199e-11
4.28833e-11
3.68124e-08
-2.34975e-11
1.08445e-11
4.13979e-11
3.14007e-08
-2.33708e-11
3.89163e-11
2.59898e-08
-2.28932e-11
4.07511e-12
4.36637e-11
5.23612e-08
6.47818e-12
4.42171e-11
4.67292e-08
5.66161e-12
4.29193e-11
4.10954e-08
3.97026e-11
3.5461e-08
1.64233e-12
3.31267e-11
5.9717e-08
3.33213e-12
3.34554e-11
5.38237e-08
3.38962e-12
3.20916e-11
4.79289e-08
2.8392e-11
4.20333e-08
-1.4493e-12
6.35724e-08
-1.46884e-12
5.75146e-08
-1.60127e-12
5.14558e-08
4.53963e-08
4.2182e-12
2.40246e-11
4.22094e-08
-1.41361e-11
4.73917e-12
2.42747e-11
3.6802e-08
-1.45368e-11
1.9411e-12
2.36261e-11
3.13943e-08
-1.45298e-11
2.24119e-11
2.59869e-08
-1.42956e-11
8.6689e-13
2.50585e-11
5.23593e-08
7.60767e-13
2.52899e-11
4.67281e-08
-9.31013e-13
2.44457e-11
4.10962e-08
2.25089e-11
3.5464e-08
-9.89561e-13
1.92594e-11
5.97237e-08
-1.76888e-12
1.91421e-11
5.38306e-08
-3.11922e-12
1.79619e-11
4.79368e-08
1.54173e-11
4.20427e-08
-3.17905e-12
6.35861e-08
-5.17891e-12
5.75279e-08
-6.71273e-12
5.14693e-08
4.54105e-08
1.11852e-12
1.37992e-11
4.22032e-08
-8.81986e-12
4.08285e-13
1.39953e-11
3.67975e-08
-9.11907e-12
-1.78549e-12
1.36708e-11
3.13917e-08
-9.16259e-12
1.30212e-11
2.5986e-08
-9.08801e-12
-6.98371e-13
1.43307e-11
5.23593e-08
-1.84161e-12
1.43913e-11
4.67286e-08
-3.61289e-12
1.38026e-11
4.10976e-08
1.26041e-11
3.54666e-08
-1.98807e-12
1.07697e-11
5.97292e-08
-3.67096e-12
1.05388e-11
5.3836e-08
-5.38993e-12
9.64732e-12
4.79426e-08
7.91875e-12
4.20491e-08
-3.45098e-12
6.35965e-08
-5.94966e-12
5.75377e-08
-7.77219e-12
5.14788e-08
4.542e-08
-2.19771e-13
8.0846e-12
4.22008e-08
-5.57951e-12
-1.30274e-12
8.22193e-12
3.67959e-08
-5.79649e-12
-2.93061e-12
8.03729e-12
3.13909e-08
-5.85454e-12
7.68283e-12
2.5986e-08
-5.85531e-12
-1.24952e-12
8.18729e-12
5.23601e-08
-2.65827e-12
8.18438e-12
4.67297e-08
-4.20799e-12
7.78116e-12
4.10991e-08
7.00914e-12
3.54686e-08
-2.11032e-12
5.85808e-12
5.97335e-08
-3.93308e-12
5.63634e-12
5.38401e-08
-5.47521e-12
4.99843e-12
4.79468e-08
3.86392e-12
4.20534e-08
-3.00289e-12
6.36038e-08
-5.36581e-12
5.75445e-08
-7.09779e-12
5.14852e-08
4.5426e-08
-6.90845e-13
4.81034e-12
4.22001e-08
-3.5473e-12
-1.75686e-12
4.90294e-12
3.67955e-08
-3.70209e-12
-2.99473e-12
4.79873e-12
3.13909e-08
-3.75291e-12
4.57082e-12
2.59863e-08
-3.81539e-12
-1.30331e-12
4.69879e-12
5.23612e-08
-2.61911e-12
4.67663e-12
4.67308e-08
-3.82081e-12
4.39208e-12
4.11004e-08
3.8977e-12
3.54701e-08
-1.83121e-12
3.13796e-12
5.97366e-08
-3.46461e-12
2.96402e-12
5.3843e-08
-4.74817e-12
2.52802e-12
4.79495e-08
1.77317e-12
4.20562e-08
-2.37335e-12
6.36087e-08
-4.3542e-12
5.75489e-08
-5.82235e-12
5.14893e-08
4.54298e-08
-7.36122e-13
2.85351e-12
4.22e-08
-2.22004e-12
-1.62277e-12
2.9057e-12
3.67955e-08
-2.32412e-12
-2.51448e-12
2.82834e-12
3.13911e-08
-2.372e-12
2.69932e-12
2.59866e-08
-2.44311e-12
-1.10449e-12
2.68294e-12
5.23622e-08
-2.17029e-12
2.66219e-12
4.67317e-08
-3.05001e-12
2.46176e-12
4.11013e-08
2.14123e-12
3.54711e-08
-1.42812e-12
1.65917e-12
5.97387e-08
-2.72178e-12
1.52835e-12
5.38449e-08
-3.69274e-12
1.23459e-12
4.79514e-08
7.33116e-13
4.20579e-08
-1.76919e-12
6.36117e-08
-3.27166e-12
5.75517e-08
-4.40315e-12
5.14918e-08
4.54321e-08
-5.75339e-13
1.61494e-12
4.22001e-08
-1.32271e-12
-1.20177e-12
1.63445e-12
3.67957e-08
-1.38015e-12
-1.79814e-12
1.5746e-12
3.13913e-08
-1.41317e-12
1.50439e-12
2.59869e-08
-1.46552e-12
-8.19186e-13
1.46251e-12
5.23628e-08
-1.55625e-12
1.43707e-12
4.67323e-08
-2.12698e-12
1.30973e-12
4.1102e-08
1.10939e-12
3.54718e-08
-1.00788e-12
8.29186e-13
5.974e-08
-1.89226e-12
7.38063e-13
5.38461e-08
-2.54167e-12
5.54053e-13
4.79525e-08
2.44376e-13
4.2059e-08
-1.21295e-12
6.36135e-08
-2.21367e-12
5.75533e-08
-2.96956e-12
5.14933e-08
4.54335e-08
-4.05644e-13
8.55327e-13
-7.26706e-13
-7.79069e-13
8.48756e-13
-7.44146e-13
-1.10297e-12
8.0525e-13
-7.51466e-13
7.58483e-13
-7.70604e-13
-5.36438e-13
7.49363e-13
-9.74291e-13
7.13649e-13
-1.29971e-12
6.31064e-13
5.11292e-13
-6.4643e-13
3.66688e-13
-1.16107e-12
2.99148e-13
-1.53448e-12
1.83193e-13
8.97941e-15
-7.60944e-13
-1.33876e-12
-1.76661e-12
-3.24937e-09
-5.17494e-09
5.14625e-08
-2.08252e-09
8.53235e-10
4.92184e-08
-1.14733e-09
3.10251e-09
5.64707e-08
5.56755e-09
5.5445e-08
-2.21876e-09
-4.30212e-09
3.43096e-08
-1.66474e-09
-9.02213e-09
5.51969e-08
-3.7166e-10
-2.28289e-09
5.56154e-08
-6.9309e-09
7.59041e-08
-4.74229e-09
-4.47977e-09
3.41167e-08
9.97792e-10
-1.4627e-09
2.81229e-08
-2.66318e-09
3.811e-09
4.53434e-08
-2.48721e-09
3.99692e-08
-3.08097e-09
1.89132e-08
4.30922e-09
2.53223e-08
-7.39195e-09
6.19724e-08
3.05034e-08
1.53327e-09
-3.77738e-09
5.00534e-08
-2.68901e-12
-4.35938e-09
5.56512e-08
1.65565e-09
-2.23096e-09
5.69482e-08
-8.58201e-09
6.82138e-08
3.87579e-10
-1.41941e-09
3.14146e-08
7.65726e-10
-1.0262e-09
5.14855e-08
-1.9818e-09
-8.86725e-09
6.49991e-08
5.56381e-10
5.98145e-08
2.58733e-09
-4.64865e-09
3.64994e-08
-2.9661e-09
-5.83765e-09
3.84877e-08
1.64584e-09
-2.75447e-09
3.46186e-08
-7.55892e-10
4.30203e-08
1.93685e-09
1.56487e-08
-1.96493e-09
2.66384e-08
3.77076e-09
5.45249e-08
4.16391e-08
-4.67736e-10
6.88128e-10
5.08682e-08
-1.38221e-09
1.42113e-09
5.34989e-08
1.73368e-09
-8.14666e-10
5.51316e-08
5.78705e-09
6.33147e-08
1.34143e-10
-5.10889e-09
3.97636e-08
-3.29804e-09
-1.99636e-09
5.83351e-08
2.37123e-09
-1.81177e-09
6.03268e-08
-2.23915e-09
7.2256e-08
7.04453e-10
-6.74204e-10
3.27703e-08
-2.25045e-09
5.79519e-10
3.88666e-08
9.88288e-10
-1.05661e-09
3.06247e-08
8.36647e-10
4.17214e-08
4.22389e-10
1.76726e-08
-2.51787e-09
3.06847e-08
3.85548e-09
4.27555e-08
4.65693e-08
-2.53442e-09
-1.8897e-09
5.45395e-08
4.8276e-10
1.88395e-09
4.84498e-08
-1.44433e-09
2.85856e-09
5.44152e-08
1.57632e-09
5.88231e-08
-2.9164e-09
3.70872e-09
3.74223e-08
1.16496e-09
6.54739e-10
5.54829e-08
-4.35288e-09
5.42282e-10
6.81609e-08
3.53787e-09
6.54171e-08
-2.13059e-09
-6.51039e-10
4.05529e-08
1.37446e-09
7.75463e-10
3.52408e-08
-2.00431e-09
-1.70176e-09
3.62474e-08
3.46672e-09
3.58288e-08
-9.6857e-10
2.28145e-08
6.72168e-10
3.20813e-08
5.38003e-10
4.04672e-08
4.31552e-08
6.97154e-11
4.30213e-10
4.71895e-08
9.96385e-10
-3.18129e-09
5.20431e-08
1.37635e-09
3.84672e-09
4.95576e-08
-6.25433e-09
6.84161e-08
-1.33357e-09
1.03343e-08
2.63254e-08
4.01618e-09
6.26844e-09
4.06833e-08
-5.26747e-09
3.68177e-09
7.76093e-08
4.12712e-09
4.60537e-08
-1.7173e-09
-1.92027e-09
5.63587e-08
1.36005e-09
2.93014e-09
3.55018e-08
-1.31043e-09
4.57092e-09
3.80287e-08
-5.09658e-10
3.78927e-08
2.46987e-09
2.36497e-08
2.10598e-09
3.94373e-08
-4.77343e-09
5.52404e-08
3.02957e-08
1.51875e-09
-1.63123e-09
5.62787e-08
-4.05627e-10
3.14194e-09
5.07459e-08
-3.60691e-10