/*--------------------------------*- C++ -*----------------------------------*\
| =========                 |                                                 |
| \\      /  F ield         | OpenFOAM: The Open Source CFD Toolbox           |
|  \\    /   O peration     | Version:  2506                                  |
|   \\  /    A nd           | Website:  www.openfoam.com                      |
|    \\/     M anipulation  |                                                 |
\*---------------------------------------------------------------------------*/
FoamFile
{
    version     2.0;
    format      ascii;
    arch        "LSB;label=32;scalar=64";
    class       volVectorField;
    location    "0.07";
    object      U;
}
// * * * * * * * * * * * * * * * * * * * * * * * * * * * * * * * * * * * * * //

dimensions      [0 1 -1 0 0 0 0];

internalField   nonuniform List<vector> 
1152
(
(-0.00245341 -0.000391065 0.0227378)
(-0.00182261 -0.000239907 0.0120048)
(-0.00273754 -0.000685223 0.0146342)
(-0.000207701 2.60206e-05 0.0128133)
(0.00148245 -0.000958348 0.0141396)
(-0.000708416 -0.00109665 0.0249537)
(-0.00240939 -0.00156754 0.0193439)
(-0.000564996 0.000446054 0.0143159)
(0.00088541 -0.00087261 0.0150993)
(-0.00147151 4.78722e-05 0.0103487)
(-0.000750447 5.28971e-05 0.0124419)
(0.000397002 0.00168644 0.01354)
(0.000820603 -0.0010621 0.0149443)
(-0.000820222 -0.00313473 0.0359723)
(8.43068e-05 0.00148776 0.0138209)
(-0.00142789 0.00349734 0.0280086)
(-0.000830202 -0.00155219 0.0315449)
(0.000828913 -0.00408745 0.0477246)
(-0.00076574 -0.00125126 0.0244346)
(-0.00252811 -0.00216808 0.0363295)
(-0.0031947 -0.00199579 0.0373812)
(-0.00142305 -0.00101044 0.0275418)
(-6.29316e-06 -0.000697661 0.0407255)
(-0.00147825 0.000644006 0.0329678)
(0.000231901 -0.00254411 0.0412126)
(-0.000287287 -0.00372246 0.0384328)
(-1.3153e-05 -0.000699645 0.0185602)
(-0.000156449 -0.00121361 0.0297985)
(-0.00487335 -0.00282267 0.0365027)
(-0.00143229 0.000797243 0.0333131)
(0.0028563 0.000734055 0.0320573)
(0.00170027 -0.0018754 0.039014)
(0.00213834 -0.00164598 0.0337934)
(0.000143425 -0.00162542 0.0355332)
(0.00274093 0.000417618 0.0336596)
(0.000392963 -0.000428999 0.0241678)
(-0.0010614 -0.00231454 0.0310194)
(-0.000206046 -0.00219488 0.0337976)
(0.00102587 -0.00127939 0.0336569)
(0.0010759 -0.00220629 0.0282669)
(-0.000180382 -0.000902335 0.0284985)
(0.00171344 -0.00250388 0.0524315)
(0.000304994 -0.00133941 0.0274882)
(0.00167334 -0.00276165 0.0460019)
(-0.000591048 0.00167822 0.037877)
(0.000395987 0.000235978 0.0178949)
(0.000301788 -0.000520621 0.024672)
(0.00289689 0.000166747 0.0433374)
(-0.00104379 -0.00160758 0.0536183)
(0.000978185 -0.000646583 0.049892)
(0.00194919 0.00146366 0.0314405)
(-0.000541231 0.00400912 0.0594133)
(0.000786061 -0.00110921 0.0302305)
(0.00169662 -0.00150912 0.0297523)
(0.00306814 -0.00125695 0.0340745)
(-0.00149547 -0.00196715 0.0283147)
(-0.000382676 -0.00272748 0.0392915)
(0.000785901 -0.000732203 0.0281091)
(0.00092917 -0.00240049 0.0279162)
(0.00137223 -0.00415617 0.0307492)
(0.00261494 0.000214296 0.0362245)
(0.00145186 4.90163e-05 0.0291346)
(-0.000442617 0.000306217 0.0237382)
(0.000165855 0.000471081 0.0202131)
(-0.00122997 -0.00107429 0.0341052)
(0.000799484 -0.00143105 0.0222305)
(-8.47661e-07 -0.00178147 0.0311051)
(0.00199671 0.000685972 0.0331657)
(0.00209721 -0.000137793 0.044451)
(0.000404 0.000321049 0.0322811)
(0.000527441 0.000265715 0.0546938)
(0.00121404 0.00509109 0.0616145)
(9.08426e-05 -0.00141642 0.0359664)
(0.000944367 0.0013147 0.0367491)
(0.000879631 0.000719088 0.024005)
(-0.00027132 0.00189149 0.025993)
(0.00231861 0.000330313 0.0286024)
(0.00193818 -0.000638714 0.0271036)
(0.000803151 -0.000622841 0.0229642)
(-0.00144838 -0.00104792 0.0245235)
(0.00126737 -0.000652862 0.0248616)
(-0.000191887 -0.000771869 0.0260414)
(-0.000771235 -0.00364388 0.0232281)
(-0.000169523 -0.00365268 0.0211822)
(0.0020663 -0.00104341 0.0263799)
(-0.00135157 -0.000769867 0.0186693)
(-0.00407191 -0.00152263 0.0243397)
(0.000272611 -0.00169225 0.0184118)
(0.00158955 0.00263071 0.0248862)
(-0.000510647 -5.03204e-05 0.0162673)
(-0.00237211 0.0020111 0.0203141)
(-0.00283559 0.00175995 0.0292696)
(0.00108924 -7.09142e-05 0.0148896)
(-0.0033011 -0.000486632 0.028539)
(-0.00338525 -0.000172581 0.0230673)
(-0.00389207 0.00181121 0.0302008)
(0.00111447 -0.000366259 0.0235897)
(0.000806584 -0.000503308 0.0180121)
(0.000115465 0.000509723 0.0216655)
(0.000164305 -0.00095497 0.021372)
(5.58674e-05 7.42208e-06 0.020052)
(0.00105847 -0.000194071 0.0214241)
(0.000260146 4.75968e-05 0.0159256)
(0.00313693 -0.00021624 0.0250336)
(-0.000111577 -0.000249554 0.0210416)
(0.00027385 -0.000153679 0.016169)
(-0.000389582 -0.000477283 0.0179844)
(-0.000205012 -8.0455e-05 0.0187451)
(-0.000845523 -0.0001637 0.0158149)
(0.000205859 -9.49723e-05 0.0241375)
(-0.00131121 -0.000705511 0.0169499)
(-0.000119129 -0.000374918 0.019214)
(-0.000862872 -0.000821652 0.0305437)
(-0.000489353 -0.000218955 0.0275722)
(-0.00014631 -0.000295011 0.0276905)
(-0.000261607 -0.000777411 0.0290163)
(-0.00131369 -0.000439375 0.0262551)
(-0.000652179 -0.000258875 0.026844)
(-0.000358068 -0.00037842 0.0169568)
(-0.000347211 -0.000704358 0.029506)
(-0.00122003 -0.000625914 0.0266245)
(-0.00075307 -0.000500481 0.0230996)
(-0.000715394 -0.000549922 0.0200552)
(-0.000904786 -0.000560706 0.0223)
(-0.00164761 -0.000258885 0.026681)
(-0.000807403 -0.000107383 0.0287623)
(-0.000748348 -0.000371735 0.0223677)
(-0.00101674 -0.000212325 0.0202471)
(0.000736762 0.00070234 0.011026)
(0.00072062 0.000791142 0.0106053)
(0.000472827 0.00092136 0.0103769)
(0.000366665 0.000448402 0.0107688)
(-0.000253485 0.000831614 0.00990217)
(0.000627484 0.000834331 0.0100026)
(0.000380083 0.000911592 0.00880173)
(0.000644055 0.000831965 0.0103004)
(-0.000168304 0.000147595 0.00969475)
(0.000587164 0.000133288 0.00939052)
(0.000404919 5.06578e-05 0.00875785)
(0.000510297 0.000625059 0.00934081)
(-0.0004656 -8.90594e-05 0.00973545)
(0.00043144 3.62203e-05 0.0102077)
(0.000769559 -0.000438334 0.00934787)
(0.00100023 -0.000174464 0.00907885)
(0.000208606 0.000393141 0.0164003)
(0.000326706 0.000549994 0.0159947)
(0.000299608 0.000646519 0.0156509)
(0.00027516 0.000546907 0.0156499)
(-0.000104158 0.000485107 0.0155856)
(0.000312587 0.000562873 0.0153927)
(0.000285124 0.000617522 0.0148307)
(0.00037555 0.000608741 0.0150647)
(1.78302e-05 0.000135723 0.015322)
(0.000349341 0.000189606 0.015024)
(0.000302625 0.000176846 0.0145593)
(0.000308059 0.000351999 0.0145504)
(-3.30676e-05 -4.23869e-05 0.0152913)
(0.000313218 1.31161e-05 0.0151688)
(0.000410789 -0.000154487 0.0146809)
(0.000440983 -0.000122364 0.014284)
(0.000242055 0.000406687 0.0146626)
(0.000279414 0.000412285 0.01454)
(0.000250565 0.000416767 0.0143819)
(0.000202951 0.000392106 0.0143337)
(8.76981e-05 0.000388049 0.0142995)
(0.000231565 0.000389397 0.014225)
(0.000226239 0.000387385 0.0140149)
(0.000217981 0.000373543 0.0140103)
(0.000117599 0.000174285 0.0141773)
(0.000232665 0.000187551 0.014048)
(0.000215353 0.00017403 0.0138466)
(0.000179406 0.000194241 0.0137861)
(0.000103223 1.80349e-05 0.0141671)
(0.000214555 2.67956e-05 0.0140592)
(0.00021959 -3.02665e-05 0.0138517)
(0.000176462 -6.00103e-05 0.0136825)
(0.000126128 0.000251925 0.0146765)
(0.000154468 0.000258255 0.0145822)
(0.000149162 0.000259536 0.0144788)
(0.00012111 0.00025274 0.0144184)
(7.88534e-05 0.000231343 0.0144682)
(0.000135733 0.000234549 0.0144054)
(0.000136277 0.000230301 0.0143026)
(0.000114736 0.00021836 0.0142525)
(9.75504e-05 0.000122147 0.0143763)
(0.000136656 0.000128241 0.0143016)
(0.000125345 0.000118893 0.0142013)
(8.99837e-05 0.00010789 0.0141442)
(9.6114e-05 2.69843e-05 0.0143523)
(0.000127045 2.4786e-05 0.0142788)
(0.000111545 -7.1896e-07 0.0141797)
(6.49834e-05 -3.06041e-05 0.0141025)
(6.87734e-05 0.000154183 0.0145886)
(8.47493e-05 0.0001542 0.0145441)
(8.27693e-05 0.000151861 0.0144923)
(6.54315e-05 0.000146201 0.0144539)
(5.23519e-05 0.000137608 0.014489)
(7.53115e-05 0.000136499 0.0144543)
(7.36161e-05 0.000130603 0.0144051)
(5.53605e-05 0.000119895 0.0143698)
(5.94655e-05 8.0392e-05 0.0144383)
(7.29023e-05 7.98927e-05 0.0143984)
(6.38578e-05 7.12944e-05 0.0143497)
(3.82045e-05 5.77238e-05 0.0143157)
(5.75758e-05 2.49586e-05 0.0144206)
(6.50353e-05 1.93687e-05 0.0143794)
(5.0362e-05 4.11806e-06 0.0143324)
(1.76808e-05 -1.68215e-05 0.0142981)
(3.42052e-05 8.87487e-05 0.0145549)
(4.30962e-05 8.78227e-05 0.0145307)
(4.23627e-05 8.51378e-05 0.014503)
(3.25439e-05 8.02333e-05 0.0144806)
(2.88348e-05 7.85084e-05 0.0145029)
(3.82336e-05 7.65963e-05 0.0144828)
(3.60432e-05 7.15345e-05 0.0144572)
(2.40779e-05 6.33184e-05 0.0144369)
(3.09494e-05 4.90567e-05 0.0144728)
(3.51409e-05 4.66057e-05 0.0144512)
(2.85776e-05 3.97398e-05 0.0144266)
(1.23987e-05 2.92896e-05 0.0144087)
(2.84429e-05 1.82817e-05 0.0144599)
(2.89244e-05 1.27585e-05 0.0144382)
(1.85891e-05 2.62966e-06 0.0144155)
(-1.59104e-06 -1.10956e-05 0.0144003)
(1.58936e-05 4.97128e-05 0.014539)
(2.04563e-05 4.86848e-05 0.0145263)
(1.99992e-05 4.64692e-05 0.0145119)
(1.45943e-05 4.27031e-05 0.0144998)
(1.3937e-05 4.38852e-05 0.0145118)
(1.76333e-05 4.20601e-05 0.0145008)
(1.57016e-05 3.82492e-05 0.0144877)
(8.51734e-06 3.24579e-05 0.0144771)
(1.40396e-05 2.86383e-05 0.0144945)
(1.48405e-05 2.6058e-05 0.0144832)
(1.03769e-05 2.10176e-05 0.0144711)
(7.48998e-07 1.38554e-05 0.0144625)
(1.16427e-05 1.16957e-05 0.0144859)
(1.02179e-05 7.30362e-06 0.0144751)
(3.56247e-06 4.79322e-07 0.0144646)
(-8.38307e-06 -8.40265e-06 0.0144584)
(6.48161e-06 2.73489e-05 0.014532)
(8.65709e-06 2.64375e-05 0.0145256)
(8.2373e-06 2.47485e-05 0.0145183)
(5.2644e-06 2.20351e-05 0.0145121)
(5.56267e-06 2.4109e-05 0.0145176)
(6.82237e-06 2.26015e-05 0.0145119)
(5.31313e-06 1.98745e-05 0.0145054)
(1.1542e-06 1.59501e-05 0.0145003)
(4.97527e-06 1.60617e-05 0.0145078)
(4.60265e-06 1.39172e-05 0.0145021)
(1.65261e-06 1.03949e-05 0.0144965)
(-3.91203e-06 5.69976e-06 0.0144927)
(3.01423e-06 6.6857e-06 0.0145024)
(1.3212e-06 3.50798e-06 0.0144973)
(-2.83187e-06 -1.02224e-06 0.0144928)
(-9.76429e-06 -6.71669e-06 0.0144908)
(1.8452e-06 1.48122e-05 0.0145292)
(2.76963e-06 1.40584e-05 0.014526)
(2.36214e-06 1.28133e-05 0.0145226)
(6.92558e-07 1.09257e-05 0.0145196)
(1.26191e-06 1.2979e-05 0.0145215)
(1.49835e-06 1.1811e-05 0.0145187)
(3.76962e-07 9.91643e-06 0.0145157)
(-2.01251e-06 7.30907e-06 0.0145135)
(5.43878e-07 8.59372e-06 0.0145159)
(-1.45674e-07 6.98015e-06 0.0145134)
(-2.08206e-06 4.59872e-06 0.014511)
(-5.26492e-06 1.57507e-06 0.0145096)
(-9.29255e-07 3.33211e-06 0.0145127)
(-2.3932e-06 1.15244e-06 0.0145106)
(-4.9792e-06 -1.7896e-06 0.0145091)
(-8.9494e-06 -5.37875e-06 0.0145088)
(-2.75962e-07 7.88241e-06 0.0145283)
(1.76537e-08 7.28661e-06 0.0145269)
(-3.44026e-07 6.3933e-06 0.0145254)
(-1.32054e-06 5.11575e-06 0.0145242)
(-7.16362e-07 6.79318e-06 0.0145242)
(-8.74381e-07 5.93129e-06 0.014523)
(-1.67774e-06 4.64098e-06 0.0145218)
(-3.07884e-06 2.93354e-06 0.0145211)
(-1.3543e-06 4.31641e-06 0.0145212)
(-2.03976e-06 3.17493e-06 0.0145202)
(-3.3052e-06 1.59653e-06 0.0145194)
(-5.14199e-06 -3.49544e-07 0.0145192)
(-2.39996e-06 1.3116e-06 0.0145194)
(-3.53395e-06 -1.38057e-07 0.0145188)
(-5.17315e-06 -2.01455e-06 0.0145185)
(-7.43829e-06 -4.25476e-06 0.014519)
(-1.11404e-06 4.10878e-06 0.0145282)
(-1.09677e-06 3.65716e-06 0.0145278)
(-1.39968e-06 3.02629e-06 0.0145273)
(-2.00297e-06 2.17298e-06 0.014527)
(-1.45174e-06 3.43645e-06 0.0145261)
(-1.7269e-06 2.81825e-06 0.0145258)
(-2.29575e-06 1.94459e-06 0.0145255)
(-3.14361e-06 8.22374e-07 0.0145254)
(-1.95037e-06 1.99397e-06 0.0145246)
(-2.53237e-06 1.20947e-06 0.0145244)
(-3.37507e-06 1.64884e-07 0.0145243)
(-4.4551e-06 -1.10254e-06 0.0145246)
(-2.66941e-06 2.28194e-07 0.0145237)
(-3.52105e-06 -7.21798e-07 0.0145237)
(-4.59116e-06 -1.91333e-06 0.014524)
(-5.88814e-06 -3.30896e-06 0.0145248)
(-1.30224e-06 2.0918e-06 0.0145285)
(-1.39817e-06 1.76028e-06 0.0145285)
(-1.64449e-06 1.3159e-06 0.0145286)
(-2.02925e-06 7.46464e-07 0.0145286)
(-1.56269e-06 1.66632e-06 0.0145275)
(-1.84483e-06 1.22966e-06 0.0145275)
(-2.25067e-06 6.35655e-07 0.0145277)
(-2.77059e-06 -1.05547e-07 0.0145279)
(-1.92987e-06 8.15505e-07 0.0145267)
(-2.39716e-06 2.78995e-07 0.0145269)
(-2.96933e-06 -4.19858e-07 0.0145272)
(-3.60908e-06 -1.25253e-06 0.0145277)
(-2.41486e-06 -2.55449e-07 0.0145264)
(-3.05966e-06 -8.7534e-07 0.0145267)
(-3.77275e-06 -1.63723e-06 0.0145272)
(-4.50954e-06 -2.50954e-06 0.0145279)
(-1.19211e-06 1.03605e-06 0.0145289)
(-1.31645e-06 7.96755e-07 0.0145291)
(-1.50845e-06 4.85898e-07 0.0145293)
(-1.74694e-06 1.05623e-07 0.0145296)
(-1.38588e-06 7.63872e-07 0.0145284)
(-1.63016e-06 4.6108e-07 0.0145286)
(-1.91753e-06 5.87788e-08 0.014529)
(-2.22719e-06 -4.26375e-07 0.0145293)
(-1.64493e-06 2.62835e-07 0.0145281)
(-2.00491e-06 -1.03323e-07 0.0145284)
(-2.3914e-06 -5.69411e-07 0.0145288)
(-2.75969e-06 -1.10748e-06 0.0145294)
(-1.96816e-06 -3.99501e-07 0.014528)
(-2.45027e-06 -8.00706e-07 0.0145284)
(-2.91632e-06 -1.28591e-06 0.0145289)
(-3.32018e-06 -1.82482e-06 0.0145297)
(-9.45518e-07 4.91627e-07 0.0145292)
(-1.06105e-06 3.23295e-07 0.0145295)
(-1.20052e-06 1.13686e-07 0.0145299)
(-1.33739e-06 -1.34442e-07 0.0145302)
(-1.0839e-06 3.19199e-07 0.014529)
(-1.27214e-06 1.17873e-07 0.0145293)
(-1.46636e-06 -1.4434e-07 0.0145297)
(-1.63849e-06 -4.47934e-07 0.0145302)
(-1.25729e-06 2.58935e-08 0.0145289)
(-1.51698e-06 -2.12711e-07 0.0145293)
(-1.76498e-06 -5.10217e-07 0.0145298)
(-1.96368e-06 -8.3959e-07 0.0145303)
(-1.46523e-06 -3.74958e-07 0.0145289)
(-1.80139e-06 -6.2413e-07 0.0145294)
(-2.09033e-06 -9.21578e-07 0.01453)
(-2.29825e-06 -1.24074e-06 0.0145307)
(-6.58134e-07 2.12447e-07 0.0145294)
(-7.43031e-07 1.06367e-07 0.0145298)
(-8.29387e-07 -2.31853e-08 0.0145302)
(-9.01263e-07 -1.72634e-07 0.0145307)
(-7.44982e-07 1.0993e-07 0.0145294)
(-8.71538e-07 -1.0331e-08 0.0145298)
(-9.885e-07 -1.66576e-07 0.0145302)
(-1.07592e-06 -3.41808e-07 0.0145307)
(-8.4952e-07 -5.23489e-08 0.0145294)
(-1.01662e-06 -1.94702e-07 0.0145298)
(-1.16088e-06 -3.66586e-07 0.0145303)
(-1.25983e-06 -5.5137e-07 0.0145309)
(-9.73408e-07 -2.76993e-07 0.0145295)
(-1.18209e-06 -4.2059e-07 0.01453)
(-1.34372e-06 -5.8789e-07 0.0145306)
(-1.44388e-06 -7.6277e-07 0.0145312)
(-3.88281e-07 7.83933e-08 0.0145296)
(-4.41448e-07 1.89893e-08 0.01453)
(-4.90553e-07 -5.29394e-08 0.0145305)
(-5.30744e-07 -1.33868e-07 0.0145309)
(-4.38363e-07 1.99046e-08 0.0145296)
(-5.12077e-07 -4.70894e-08 0.01453)
(-5.7583e-07 -1.30289e-07 0.0145305)
(-6.22988e-07 -2.22011e-07 0.014531)
(-4.97125e-07 -6.93312e-08 0.0145298)
(-5.90178e-07 -1.45427e-07 0.0145302)
(-6.65604e-07 -2.33774e-07 0.0145307)
(-7.18475e-07 -3.28444e-07 0.0145312)
(-5.6355e-07 -1.83954e-07 0.0145299)
(-6.74256e-07 -2.59907e-07 0.0145303)
(-7.58183e-07 -3.46009e-07 0.0145309)
(-8.12507e-07 -4.3585e-07 0.0145315)
(0.000252437 -0.000139366 0.0120153)
(-0.000613573 0.000587119 0.0205595)
(-0.000383785 -0.00114581 0.0202345)
(-0.000748684 -0.00194512 0.0134027)
(8.29784e-05 -0.000318422 0.016916)
(-0.00145555 -0.00221155 0.0111256)
(-0.00331512 -0.00225205 0.014099)
(0.00010646 -0.00246395 0.0115669)
(-0.000863414 0.000263323 0.0138613)
(-0.000556937 -0.00200432 0.0153704)
(-0.00222042 -0.00469405 0.0217595)
(-0.000907072 0.00035043 0.011312)
(-0.00252766 -4.3524e-05 0.0171057)
(-0.00283289 0.0019433 0.013654)
(-0.000438465 0.00130552 0.00912737)
(0.00220977 0.00131432 0.0200749)
(-0.00181688 -0.000479091 0.0415113)
(-0.00176666 -5.877e-05 0.0273637)
(0.000192245 -0.000166849 0.0394278)
(-0.00251141 0.000852708 0.0606558)
(-0.000243983 -0.000167828 0.0320541)
(-0.00161216 0.000472069 0.0594417)
(0.000471105 -0.00173811 0.0358138)
(-0.00138424 -0.00168386 0.0259193)
(0.000605647 -0.000933112 0.0392558)
(-0.00166064 0.000591769 0.0270074)
(-0.00123487 0.000471721 0.0290662)
(0.000413735 -0.00165805 0.0211007)
(0.00269769 0.00206275 0.0451894)
(0.00180635 -0.000300447 0.0253345)
(-0.0012412 0.000827142 0.0184331)
(-0.0037429 -0.000688054 0.038093)
(0.000936223 -0.000330582 0.0356436)
(0.00182048 -0.00249346 0.034235)
(-0.0011965 -0.00210329 0.0330163)
(0.00122832 -0.00030327 0.0342739)
(-0.0011851 -0.00142605 0.0383389)
(-0.000299201 -0.000250184 0.0256849)
(0.00242306 0.000233345 0.030963)
(0.000395006 0.000586024 0.0404156)
(0.00161111 -0.00103547 0.0316858)
(0.00229998 0.0015794 0.0410171)
(0.000611618 0.00033383 0.0252744)
(0.000294415 -0.00162751 0.0259671)
(0.0023096 0.00117604 0.0230379)
(0.0045109 0.0018909 0.0407803)
(0.000957053 -0.00147833 0.037307)
(0.00059472 -0.000491648 0.0415014)
(0.000618672 -0.000951482 0.0368189)
(0.00100569 -0.00019026 0.0339291)
(0.00135327 -0.0020786 0.050094)
(0.00106572 -0.000485535 0.0204703)
(0.00172363 -0.000373322 0.0376859)
(0.00176447 -0.00263968 0.0382165)
(0.00115979 -0.00132481 0.0302047)
(0.00416942 -0.00226586 0.0512145)
(-0.0012816 0.00138852 0.0288294)
(0.00011602 -0.00280476 0.0431935)
(0.00186074 -0.00140427 0.0378727)
(0.00109711 -0.00136166 0.0226671)
(-0.00258632 -0.00157468 0.0257153)
(-0.00122506 -0.000295152 0.0173762)
(0.00149479 -0.00122113 0.0284044)
(0.00180809 8.42433e-05 0.0336027)
(-0.00344356 -0.00508444 0.0311739)
(-0.0055343 -0.00481678 0.0330173)
(0.000153797 -0.00296059 0.0434148)
(0.000864836 -0.00182572 0.0382797)
(0.00248343 -0.00357986 0.0266753)
(0.00309584 -0.00275907 0.0457497)
(0.00105632 -0.000148022 0.0166739)
(0.00267995 -0.000351005 0.0452202)
(-0.000399074 0.000272101 0.0376894)
(0.00015949 0.000419694 0.0211825)
(0.00214981 -1.22829e-05 0.0294192)
(0.00123729 -5.59149e-05 0.0202811)
(0.000413954 -0.00360038 0.047317)
(-0.000293623 -0.00266839 0.0297612)
(0.00115115 -0.00115986 0.0342408)
(0.00149525 -0.000634948 0.0303448)
(0.0105721 -0.00196725 0.0602298)
(0.00617763 0.000595453 0.0218374)
(0.00210254 0.000109996 0.0169774)
(0.000422559 -0.00173592 0.0335986)
(0.00137746 -0.00172642 0.017285)
(0.00247199 -0.000412707 0.0172263)
(0.00309588 -0.00118458 0.0198872)
(0.00114381 -0.00100404 0.0176318)
(0.0030251 -0.00156414 0.0220834)
(0.00495794 0.000433678 0.0295632)
(0.00237553 -0.000199246 0.0236332)
(0.00225757 -0.000424675 0.0243608)
(0.00222553 0.00169819 0.0235449)
(0.00368965 -0.000521942 0.0232689)
(0.0016469 4.88806e-05 0.0175723)
(0.00332349 -0.000410061 0.0239131)
(0.000250836 0.000176197 0.0160918)
(0.00107044 -0.000907457 0.0276289)
(0.000366136 0.000356978 0.0297108)
(0.00154495 -0.000591286 0.025873)
(0.000139607 -0.000630799 0.0150016)
(-5.7174e-05 2.37456e-06 0.0198343)
(-0.00017529 9.67947e-05 0.0139895)
(-0.000551523 7.5122e-05 0.0214816)
(7.67682e-06 -0.00109349 0.0127032)
(-0.000638176 0.000126616 0.0237769)
(-2.49944e-05 -8.05308e-05 0.0189239)
(-0.000246177 2.56651e-05 0.017221)
(0.000209662 0.000370974 0.0219388)
(-0.000854888 0.000441011 0.0192385)
(-0.000835643 -0.000220305 0.0189616)
(-0.000567262 0.000128105 0.0175139)
(-0.000590513 1.35549e-05 0.0366058)
(-0.00111189 -0.000575277 0.036803)
(-0.00105549 -0.00051725 0.0354064)
(-0.000801775 -0.000540375 0.0322069)
(-0.000399172 -3.63812e-05 0.0198339)
(-0.000840532 -0.000388338 0.0231265)
(-0.0010799 -0.000355631 0.0174224)
(-0.00117593 -0.000399347 0.0241064)
(-0.000678304 -0.000113491 0.0215138)
(-0.00129432 -0.000233046 0.0289727)
(-0.00100939 -0.0003164 0.0223473)
(-0.00111676 -0.000419907 0.021531)
(-0.000518651 0.000192743 0.0318671)
(-0.00136255 0.000324796 0.0266483)
(-0.00157821 4.41892e-06 0.0234734)
(-0.00169142 -6.97854e-05 0.0208232)
(-0.000762114 0.00136924 0.0127321)
(-0.000154205 0.00139846 0.0126721)
(0.000330229 0.00150969 0.0121125)
(0.000463565 0.00130023 0.0113457)
(-0.0011848 0.00171775 0.00760207)
(-0.000948521 0.00147359 0.0085079)
(-0.000815903 0.00151175 0.00834979)
(-0.000903694 0.00126372 0.00913273)
(-0.000272882 -0.000658572 0.00750706)
(-0.000175405 -0.000250201 0.00901284)
(0.000283614 2.78164e-05 0.00853806)
(-0.000303968 0.000315122 0.00863434)
(0.000215569 -0.000533169 0.00998033)
(0.000376688 -0.000262418 0.00931058)
(0.000393721 -0.000384629 0.00867851)
(-0.000306592 9.73026e-06 0.00848237)
(-0.000377648 0.000763007 0.0181618)
(-9.17673e-06 0.000839682 0.0179036)
(0.000221643 0.000846129 0.0173781)
(0.00018387 0.000702754 0.0167971)
(-0.000565877 0.000895583 0.0150106)
(-0.000407258 0.000785714 0.0153343)
(-0.000272576 0.000730623 0.0152848)
(-0.000309886 0.000592098 0.0154019)
(-2.30467e-05 -0.000380723 0.014971)
(4.7095e-05 -0.000164826 0.0154175)
(0.000227048 -7.56212e-06 0.0151704)
(-5.15258e-06 0.000129321 0.0150807)
(0.000167244 -0.000370521 0.0160368)
(0.00032766 -0.000230762 0.0157009)
(0.000346856 -0.00022019 0.0152573)
(3.47881e-05 -5.36261e-05 0.0149676)
(-0.0002378 0.000463616 0.0154413)
(-5.13193e-05 0.000525349 0.0152897)
(9.14387e-05 0.000545353 0.0150343)
(0.000147682 0.000509482 0.0147801)
(-0.000334383 0.000581676 0.0141083)
(-0.000255144 0.000541963 0.014217)
(-0.000140281 0.000515124 0.0142046)
(-5.99259e-05 0.000450737 0.0142229)
(-3.69265e-05 -2.16036e-05 0.0141246)
(-1.06022e-05 6.41934e-05 0.0142486)
(7.34116e-05 0.000137195 0.014169)
(5.99551e-05 0.000179407 0.014117)
(4.9577e-05 -0.000113684 0.0145507)
(0.000111378 -5.91349e-05 0.0144095)
(0.00014082 -3.59809e-05 0.0142276)
(8.04433e-05 1.47472e-05 0.0140952)
(-0.000119318 0.000240778 0.0150773)
(-2.25683e-05 0.000282218 0.0150073)
(4.9156e-05 0.000296018 0.014894)
(7.87933e-05 0.000285616 0.0147676)
(-0.000157822 0.000301836 0.01445)
(-0.000107898 0.000291783 0.0144936)
(-4.01571e-05 0.000277747 0.0144949)
(1.22207e-05 0.000249711 0.0144801)
(-1.80928e-05 4.44146e-05 0.0143834)
(5.67765e-06 7.82624e-05 0.0144283)
(4.8268e-05 0.000106935 0.0144134)
(6.5441e-05 0.000119589 0.0143894)
(1.94861e-05 -2.05571e-05 0.0144857)
(5.45337e-05 -1.54362e-06 0.0144538)
(7.89191e-05 1.13483e-05 0.0144042)
(7.70306e-05 2.60772e-05 0.0143601)
(-6.70502e-05 0.000130058 0.0147792)
(-1.89684e-05 0.000154051 0.0147437)
(1.88889e-05 0.000164887 0.0146897)
(3.93048e-05 0.000164513 0.0146306)
(-7.83638e-05 0.000159476 0.0145173)
(-5.06857e-05 0.000159695 0.0145277)
(-1.4099e-05 0.00015592 0.0145224)
(1.73008e-05 0.000145067 0.0145055)
(-1.35495e-05 5.25546e-05 0.0144777)
(1.62054e-06 6.64106e-05 0.0144861)
(2.40047e-05 7.76361e-05 0.0144767)
(4.04304e-05 8.07392e-05 0.0144586)
(6.27459e-06 1.10298e-05 0.0144962)
(2.32549e-05 1.8451e-05 0.0144841)
(3.79964e-05 2.38288e-05 0.0144641)
(4.56972e-05 2.7112e-05 0.0144409)
(-3.723e-05 6.93305e-05 0.0146481)
(-1.35999e-05 8.25453e-05 0.0146313)
(5.83646e-06 8.96782e-05 0.0146059)
(1.76706e-05 9.14907e-05 0.0145771)
(-3.94953e-05 8.41977e-05 0.0145315)
(-2.44154e-05 8.64022e-05 0.0145334)
(-5.41763e-06 8.59983e-05 0.0145283)
(1.13088e-05 8.18132e-05 0.0145161)
(-9.85931e-06 4.09495e-05 0.0145045)
(-1.03401e-06 4.66619e-05 0.0145049)
(1.08623e-05 5.07228e-05 0.014499)
(2.10275e-05 5.06998e-05 0.0144875)
(1.06224e-06 1.70426e-05 0.0145006)
(8.68518e-06 1.98443e-05 0.0144955)
(1.657e-05 2.15919e-05 0.0144866)
(2.25479e-05 2.1317e-05 0.0144744)
(-2.07605e-05 3.7161e-05 0.0145846)
(-9.18012e-06 4.43257e-05 0.0145767)
(7.10548e-07 4.86462e-05 0.0145645)
(7.07074e-06 5.03586e-05 0.0145503)
(-2.04033e-05 4.48557e-05 0.0145323)
(-1.24325e-05 4.68498e-05 0.0145319)
(-2.82705e-06 4.73051e-05 0.0145279)
(5.49348e-06 4.56472e-05 0.0145202)
(-6.60504e-06 2.74233e-05 0.0145149)
(-1.82031e-06 2.98622e-05 0.014514)
(4.23947e-06 3.1235e-05 0.0145102)
(9.46083e-06 3.04307e-05 0.0145033)
(-4.68532e-07 1.43175e-05 0.0145068)
(2.74772e-06 1.52804e-05 0.0145047)
(6.44116e-06 1.55709e-05 0.0145006)
(9.43768e-06 1.4432e-05 0.0144942)
(-1.17562e-05 2.01917e-05 0.0145548)
(-6.134e-06 2.40067e-05 0.0145509)
(-1.2067e-06 2.64583e-05 0.014545)
(1.96941e-06 2.75921e-05 0.0145379)
(-1.08995e-05 2.42442e-05 0.0145306)
(-6.87308e-06 2.55626e-05 0.0145298)
(-2.18629e-06 2.59935e-05 0.0145271)
(1.70077e-06 2.522e-05 0.0145225)
(-4.27844e-06 1.71186e-05 0.0145198)
(-1.95177e-06 1.81399e-05 0.014519)
(8.82794e-07 1.84763e-05 0.0145166)
(3.18252e-06 1.75919e-05 0.0145127)
(-8.20527e-07 9.92113e-06 0.014513)
(2.64378e-07 1.01838e-05 0.014512)
(1.63181e-06 9.95825e-06 0.01451)
(2.64967e-06 8.79826e-06 0.0145067)
(-6.8232e-06 1.11831e-05 0.0145405)
(-4.1621e-06 1.31597e-05 0.0145386)
(-1.80285e-06 1.44557e-05 0.0145356)
(-3.52689e-07 1.50668e-05 0.0145321)
(-6.04942e-06 1.33174e-05 0.0145289)
(-4.15854e-06 1.40399e-05 0.0145282)
(-2.01013e-06 1.42465e-05 0.0145266)
(-3.48916e-07 1.37624e-05 0.0145241)
(-2.74656e-06 1.0261e-05 0.0145224)
(-1.82328e-06 1.06281e-05 0.0145219)
(-7.03332e-07 1.05546e-05 0.0145205)
(8.21698e-08 9.78195e-06 0.0145184)
(-7.90604e-07 6.21398e-06 0.0145177)
(-7.37802e-07 6.18998e-06 0.0145173)
(-5.46761e-07 5.82083e-06 0.0145163)
(-5.33346e-07 4.86142e-06 0.0145147)
(-4.07294e-06 6.32085e-06 0.0145338)
(-2.88232e-06 7.30159e-06 0.0145329)
(-1.8347e-06 7.9252e-06 0.0145314)
(-1.26311e-06 8.18473e-06 0.0145296)
(-3.47927e-06 7.41056e-06 0.014528)
(-2.70523e-06 7.73375e-06 0.0145276)
(-1.83199e-06 7.7533e-06 0.0145268)
(-1.25023e-06 7.38115e-06 0.0145254)
(-1.76077e-06 5.97061e-06 0.0145243)
(-1.56881e-06 6.03018e-06 0.014524)
(-1.29884e-06 5.81526e-06 0.0145233)
(-1.23292e-06 5.19878e-06 0.0145223)
(-6.6275e-07 3.60368e-06 0.0145213)
(-1.04914e-06 3.47503e-06 0.0145211)
(-1.35955e-06 3.10866e-06 0.0145207)
(-1.7725e-06 2.38032e-06 0.0145201)
(-2.49865e-06 3.64539e-06 0.0145307)
(-2.02277e-06 4.10075e-06 0.0145303)
(-1.60985e-06 4.36143e-06 0.0145296)
(-1.47884e-06 4.42172e-06 0.0145288)
(-2.06269e-06 4.16643e-06 0.0145279)
(-1.83992e-06 4.26444e-06 0.0145277)
(-1.56974e-06 4.18089e-06 0.0145272)
(-1.48936e-06 3.87431e-06 0.0145266)
(-1.12664e-06 3.39241e-06 0.0145257)
(-1.26842e-06 3.32885e-06 0.0145256)
(-1.37108e-06 3.09532e-06 0.0145253)
(-1.60989e-06 2.62531e-06 0.0145249)
(-5.08273e-07 1.94001e-06 0.014524)
(-1.01848e-06 1.79471e-06 0.014524)
(-1.48977e-06 1.49036e-06 0.0145239)
(-2.02989e-06 9.60127e-07 0.0145238)
(-1.56785e-06 2.14326e-06 0.0145295)
(-1.42626e-06 2.33251e-06 0.0145293)
(-1.31103e-06 2.40986e-06 0.014529)
(-1.37532e-06 2.37594e-06 0.0145287)
(-1.25136e-06 2.3673e-06 0.0145281)
(-1.27622e-06 2.35938e-06 0.014528)
(-1.27436e-06 2.23906e-06 0.0145278)
(-1.40472e-06 1.98934e-06 0.0145276)
(-7.1674e-07 1.89904e-06 0.0145269)
(-9.71788e-07 1.80281e-06 0.0145269)
(-1.21418e-06 1.59817e-06 0.0145268)
(-1.54889e-06 1.25086e-06 0.0145267)
(-3.67368e-07 9.64796e-07 0.014526)
(-8.5169e-07 8.3927e-07 0.0145261)
(-1.32667e-06 6.0675e-07 0.0145261)
(-1.84868e-06 2.37976e-07 0.0145262)
(-9.95227e-07 1.27722e-06 0.0145291)
(-9.99325e-07 1.33836e-06 0.014529)
(-1.00708e-06 1.33459e-06 0.0145289)
(-1.13884e-06 1.26855e-06 0.0145288)
(-7.71151e-07 1.36021e-06 0.0145284)
(-8.86513e-07 1.31242e-06 0.0145283)
(-9.88175e-07 1.19246e-06 0.0145283)
(-1.17803e-06 9.93708e-07 0.0145283)
(-4.5583e-07 1.05901e-06 0.0145278)
(-7.18536e-07 9.66228e-07 0.0145278)
(-9.8139e-07 8.02751e-07 0.0145279)
(-1.30363e-06 5.52772e-07 0.0145279)
(-2.58125e-07 4.38003e-07 0.0145274)
(-6.61774e-07 3.42594e-07 0.0145275)
(-1.07228e-06 1.76144e-07 0.0145275)
(-1.50821e-06 -7.36063e-08 0.0145277)
(-6.23642e-07 7.57311e-07 0.014529)
(-6.74583e-07 7.62121e-07 0.014529)
(-7.29874e-07 7.27037e-07 0.014529)
(-8.63117e-07 6.61811e-07 0.014529)
(-4.74895e-07 7.78677e-07 0.0145287)
(-6.03235e-07 7.22908e-07 0.0145287)
(-7.21275e-07 6.20651e-07 0.0145287)
(-8.96306e-07 4.75471e-07 0.0145288)
(-2.88072e-07 5.84771e-07 0.0145285)
(-5.10576e-07 5.09149e-07 0.0145285)
(-7.34994e-07 3.87847e-07 0.0145285)
(-9.91192e-07 2.13364e-07 0.0145287)
(-1.77678e-07 1.76739e-07 0.0145283)
(-4.86205e-07 1.10542e-07 0.0145283)
(-8.04006e-07 -1.68692e-09 0.0145284)
(-1.12904e-06 -1.65266e-07 0.0145286)
(-3.715e-07 4.29178e-07 0.014529)
(-4.23172e-07 4.13153e-07 0.014529)
(-4.79525e-07 3.74323e-07 0.0145291)
(-5.81988e-07 3.22891e-07 0.0145292)
(-2.79539e-07 4.25192e-07 0.0145289)
(-3.83157e-07 3.77259e-07 0.0145289)
(-4.77561e-07 3.0249e-07 0.014529)
(-6.05845e-07 2.06352e-07 0.0145291)
(-1.73941e-07 3.06941e-07 0.0145289)
(-3.34798e-07 2.52112e-07 0.0145289)
(-4.95312e-07 1.70948e-07 0.014529)
(-6.70032e-07 5.96984e-08 0.0145291)
(-1.15308e-07 5.94074e-08 0.0145288)
(-3.26314e-07 1.66123e-08 0.0145289)
(-5.40882e-07 -5.28753e-08 0.014529)
(-7.54995e-07 -1.52392e-07 0.0145292)
(-2.08337e-07 2.26972e-07 0.0145291)
(-2.4436e-07 2.05019e-07 0.0145292)
(-2.80281e-07 1.73648e-07 0.0145292)
(-3.34361e-07 1.3721e-07 0.0145294)
(-1.5538e-07 2.18425e-07 0.0145291)
(-2.22207e-07 1.81549e-07 0.0145291)
(-2.82596e-07 1.3335e-07 0.0145292)
(-3.55829e-07 7.5464e-08 0.0145294)
(-9.88204e-08 1.48566e-07 0.0145291)
(-1.98894e-07 1.09989e-07 0.0145292)
(-2.9535e-07 5.94178e-08 0.0145293)
(-3.95226e-07 -5.06334e-09 0.0145295)
(-6.90165e-08 1.13564e-08 0.0145292)
(-1.97831e-07 -1.71785e-08 0.0145292)
(-3.22999e-07 -5.94518e-08 0.0145293)
(-4.44402e-07 -1.16003e-07 0.0145296)
(-0.00127548 -0.000567254 0.0167229)
(-0.00176488 0.000731631 0.0177402)
(-0.000775372 0.000812898 0.0123585)
(0.000113564 0.000717943 0.0137898)
(-0.00190576 -0.00114393 0.0181457)
(-0.00193111 -0.00141611 0.0180796)
(-0.000443159 0.000479694 0.0156387)
(-0.00197397 -0.000159071 0.0234005)
(-0.00469181 -0.000986085 0.0155212)
(-0.00170083 -0.00147053 0.0119069)
(-0.000771953 0.00027013 0.0175621)
(-4.68344e-07 -0.00207661 0.0123838)
(-0.00250617 0.000105112 0.0156679)
(-0.000549745 -1.24563e-05 0.0111345)
(-0.00145654 -0.00158122 0.0203495)
(-0.000215599 -0.000393078 0.0084816)
(-0.000497142 -0.000653095 0.0465456)
(0.000531408 -0.00070532 0.0271572)
(0.000371036 -0.000361735 0.0404541)
(-9.84934e-05 -0.00189198 0.032494)
(-0.000564478 -0.00121767 0.0245745)
(-0.000293367 -0.0010749 0.0403627)
(-0.000759386 -0.00271193 0.037107)
(0.00119568 -0.00117926 0.0369185)
(0.00149521 -0.00227826 0.0426217)
(-0.00132715 -0.0022653 0.0264589)
(-0.00136725 -0.00232629 0.0289733)
(0.000581365 -0.000702173 0.0307884)
(0.000467421 -0.00190812 0.0197014)
(-0.000536447 -0.00250438 0.0293979)
(-3.78588e-05 -0.000849332 0.049765)
(-0.000826086 -0.000805859 0.0331306)
(0.000797466 -0.000599749 0.0265348)