/*--------------------------------*- C++ -*----------------------------------*\
| =========                 |                                                 |
| \\      /  F ield         | OpenFOAM: The Open Source CFD Toolbox           |
|  \\    /   O peration     | Version:  2506                                  |
|   \\  /    A nd           | Website:  www.openfoam.com                      |
|    \\/     M anipulation  |                                                 |
\*---------------------------------------------------------------------------*/
FoamFile
{
    version     2.0;
    format      ascii;
    arch        "LSB;label=32;scalar=64";
    class       volVectorField;
    location    "0.07";
    object      Us;
}
// * * * * * * * * * * * * * * * * * * * * * * * * * * * * * * * * * * * * * //

dimensions      [0 1 -1 0 0 0 0];

internalField   nonuniform List<vector> 
1152
(
(-0.0004359 -0.000124738 0.000164075)
(-0.000626966 -0.0013684 0.000269254)
(-0.00118572 0.000150193 7.428e-05)
(-0.000289684 -0.000318726 0.00014598)
(-0.000375044 -0.000339394 0.000172513)
(-0.000454962 -0.000788901 0.000341349)
(-0.000317881 -0.000220689 0.000327193)
(-0.000209634 6.58601e-05 0.000237388)
(-0.00101325 -0.00103898 -0.000363796)
(-0.000239631 -0.000205261 0.000323999)
(9.36308e-05 -7.38789e-05 8.38128e-06)
(-7.67008e-05 0.000145089 1.68639e-05)
(-0.000346987 -0.000299793 0.000143395)
(-0.000397714 -8.29661e-05 -6.36375e-05)
(0.000262451 0.000560311 6.12009e-05)
(3.30287e-05 0.00062107 -0.000350009)
(-0.000843727 -0.00128318 0.00616821)
(0.000653267 -0.00209508 0.00655777)
(-0.000226774 -0.000960334 0.00590429)
(-0.000517823 -0.000963472 0.00640486)
(-0.000912851 -0.00214577 0.00642864)
(-0.000686192 -0.00107891 0.00537249)
(7.21726e-05 -0.000330982 0.00622005)
(3.28365e-05 0.000403716 0.00622176)
(-0.000336866 -0.00188916 0.00767211)
(4.88708e-05 -0.00111513 0.00674403)
(0.000290162 -0.000532366 0.0056771)
(0.000748086 -0.000802503 0.00614647)
(-0.00123811 -0.000792117 0.00699347)
(-0.000645568 -0.000207806 0.00606563)
(0.00122249 6.10858e-05 0.00613485)
(0.000603555 -0.00107717 0.00636058)
(0.000592998 -0.000728614 0.00609797)
(0.00049276 -0.000565939 0.00659746)
(0.000597842 4.18069e-05 0.00592497)
(0.000597475 0.000206477 0.0057025)
(2.86914e-05 -0.000615427 0.0063917)
(-0.000173551 -0.000760391 0.00705715)
(0.000715427 -0.000257468 0.00655831)
(0.000803967 2.33528e-05 0.0066321)
(0.000567806 -0.000480172 0.00664084)
(0.000857938 -0.000141523 0.00621835)
(-0.000105963 -7.9753e-05 0.00717355)
(0.000943682 -0.000349205 0.00772297)
(0.000416404 -0.000524387 0.00598898)
(0.000893353 -0.000156201 0.00590627)
(0.000322166 -0.000243936 0.00637039)
(0.000216848 0.000396363 0.00651267)
(0.000165887 -0.000243586 0.00777226)
(0.00065331 -0.000229981 0.00663619)
(0.000733283 -0.000246938 0.00649777)
(0.000265311 -0.000755116 0.00710041)
(0.000616665 -0.000241094 0.00629609)
(0.00036761 -4.88517e-05 0.00612822)
(0.000278547 -0.000310064 0.00619639)
(0.000246576 -0.000222407 0.00603722)
(0.00033619 -0.000554766 0.00659207)
(0.000579412 -0.000307692 0.00576602)
(0.000246405 -0.000460133 0.00602062)
(0.000505124 -0.000204635 0.00650798)
(0.000900572 -0.000426044 0.00579542)
(0.000721909 -0.00025619 0.00569866)
(0.000351915 -0.000236902 0.0060484)
(0.000168788 -2.50716e-06 0.00651892)
(0.000441856 -0.000187443 0.00650879)
(0.00043403 -0.000739671 0.00618931)
(0.000533485 -0.000358846 0.00710889)
(0.000489937 1.92977e-05 0.00610551)
(0.000574639 -0.000397312 0.00595354)
(0.000267477 -0.000122013 0.00592938)
(0.000408253 -0.00015811 0.00632671)
(0.000407464 -1.39879e-05 0.00586252)
(0.000539954 -0.000423243 0.00565059)
(0.000226206 -0.00021192 0.00589567)
(0.000167913 -0.000262928 0.00596895)
(0.000139437 -0.000148964 0.00594699)
(0.000619488 -0.000117705 0.00581252)
(7.25106e-05 -0.000532629 0.00594327)
(-1.20563e-05 -0.0002075 0.00610302)
(-0.000118227 -0.000113935 0.0062627)
(0.000389121 -6.35068e-05 0.0060415)
(0.000402701 -8.74285e-05 0.00606749)
(0.000393963 5.08938e-05 0.00609971)
(0.000558406 -8.07617e-05 0.00584626)
(0.000359316 -0.000135017 0.00606855)
(0.00040492 -0.00026315 0.00593301)
(0.000228643 1.58117e-05 0.00600477)
(0.000113841 -5.26051e-05 0.0061386)
(0.000392449 -4.6998e-05 0.00575343)
(0.00019899 -0.000173145 0.0059903)
(-1.41832e-05 -0.000139193 0.00601568)
(-4.78802e-05 -0.00012561 0.0060566)
(8.86623e-05 -5.85556e-05 0.00585483)
(-0.000100196 -0.000252825 0.00609044)
(-0.000305094 -0.000205669 0.00620066)
(9.23702e-06 -0.000115057 0.006173)
(0.000946722 -0.000387499 0.00566867)
(0.000758785 -0.000722825 0.00594739)
(0.000168337 -8.48698e-05 0.00583345)
(0.000255977 -0.00050421 0.00548427)
(8.70319e-05 -3.77606e-05 0.00578928)
(0.000438361 -0.000480007 0.00598199)
(0.000335464 -9.35045e-06 0.00585271)
(0.00318245 -0.0003615 0.00419255)
(-8.59553e-05 -0.00010657 0.00554079)
(0.000164679 -8.87807e-05 0.00612317)
(-0.000383037 -0.000300389 0.0057381)
(-0.000269535 -0.000282593 0.00582613)
(-0.00026623 -7.12831e-05 0.00581213)
(-0.00016345 -0.000237212 0.00619695)
(-0.00150993 -0.000587135 0.00559105)
(-0.000754656 -0.000428665 0.00589183)
(0 0 0)
(0 0 0)
(0 0 0)
(0 0 0)
(0 0 0)
(0 0 0)
(0 0 0)
(0 0 0)
(0 0 0)
(0 0 0)
(0 0 0)
(0 0 0)
(0 0 0)
(0 0 0)
(0 0 0)
(0 0 0)
(0 0 0)
(0 0 0)
(0 0 0)
(0 0 0)
(0 0 0)
(0 0 0)
(0 0 0)
(0 0 0)
(0 0 0)
(0 0 0)
(0 0 0)
(0 0 0)
(0 0 0)
(0 0 0)
(0 0 0)
(0 0 0)
(0 0 0)
(0 0 0)
(0 0 0)
(0 0 0)
(0 0 0)
(0 0 0)
(0 0 0)
(0 0 0)
(0 0 0)
(0 0 0)
(0 0 0)
(0 0 0)
(0 0 0)
(0 0 0)
(0 0 0)
(0 0 0)
(0 0 0)
(0 0 0)
(0 0 0)
(0 0 0)
(0 0 0)
(0 0 0)
(0 0 0)
(0 0 0)
(0 0 0)
(0 0 0)
(0 0 0)
(0 0 0)
(0 0 0)
(0 0 0)
(0 0 0)
(0 0 0)
(0 0 0)
(0 0 0)
(0 0 0)
(0 0 0)
(0 0 0)
(0 0 0)
(0 0 0)
(0 0 0)
(0 0 0)
(0 0 0)
(0 0 0)
(0 0 0)
(0 0 0)
(0 0 0)
(0 0 0)
(0 0 0)
(0 0 0)
(0 0 0)
(0 0 0)
(0 0 0)
(0 0 0)
(0 0 0)
(0 0 0)
(0 0 0)
(0 0 0)
(0 0 0)
(0 0 0)
(0 0 0)
(0 0 0)
(0 0 0)
(0 0 0)
(0 0 0)
(0 0 0)
(0 0 0)
(0 0 0)
(0 0 0)
(0 0 0)
(0 0 0)
(0 0 0)
(0 0 0)
(0 0 0)
(0 0 0)
(0 0 0)
(0 0 0)
(0 0 0)
(0 0 0)
(0 0 0)
(0 0 0)
(0 0 0)
(0 0 0)
(0 0 0)
(0 0 0)
(0 0 0)
(0 0 0)
(0 0 0)
(0 0 0)
(0 0 0)
(0 0 0)
(0 0 0)
(0 0 0)
(0 0 0)
(0 0 0)
(0 0 0)
(0 0 0)
(0 0 0)
(0 0 0)
(0 0 0)
(0 0 0)
(0 0 0)
(0 0 0)
(0 0 0)
(0 0 0)
(0 0 0)
(0 0 0)
(0 0 0)
(0 0 0)
(0 0 0)
(0 0 0)
(0 0 0)
(0 0 0)
(0 0 0)
(0 0 0)
(0 0 0)
(0 0 0)
(0 0 0)
(0 0 0)
(0 0 0)
(0 0 0)
(0 0 0)
(0 0 0)
(0 0 0)
(0 0 0)
(0 0 0)
(0 0 0)
(0 0 0)
(0 0 0)
(0 0 0)
(0 0 0)
(0 0 0)
(0 0 0)
(0 0 0)
(0 0 0)
(0 0 0)
(0 0 0)
(0 0 0)
(0 0 0)
(0 0 0)
(0 0 0)
(0 0 0)
(0 0 0)
(0 0 0)
(0 0 0)
(0 0 0)
(0 0 0)
(0 0 0)
(0 0 0)
(0 0 0)
(0 0 0)
(0 0 0)
(0 0 0)
(0 0 0)
(0 0 0)
(0 0 0)
(0 0 0)
(0 0 0)
(0 0 0)
(0 0 0)
(0 0 0)
(0 0 0)
(0 0 0)
(0 0 0)
(0 0 0)
(0 0 0)
(0 0 0)
(0 0 0)
(0 0 0)
(0 0 0)
(0 0 0)
(0 0 0)
(0 0 0)
(0 0 0)
(0 0 0)
(0 0 0)
(0 0 0)
(0 0 0)
(0 0 0)
(0 0 0)
(0 0 0)
(0 0 0)
(0 0 0)
(0 0 0)
(0 0 0)
(0 0 0)
(0 0 0)
(0 0 0)
(0 0 0)
(0 0 0)
(0 0 0)
(0 0 0)
(0 0 0)
(0 0 0)
(0 0 0)
(0 0 0)
(0 0 0)
(0 0 0)
(0 0 0)
(0 0 0)
(0 0 0)
(0 0 0)
(0 0 0)
(0 0 0)
(0 0 0)
(0 0 0)
(0 0 0)
(0 0 0)
(0 0 0)
(0 0 0)
(0 0 0)
(0 0 0)
(0 0 0)
(0 0 0)
(0 0 0)
(0 0 0)
(0 0 0)
(0 0 0)
(0 0 0)
(0 0 0)
(0 0 0)
(0 0 0)
(0 0 0)
(0 0 0)
(0 0 0)
(0 0 0)
(0 0 0)
(0 0 0)
(0 0 0)
(0 0 0)
(0 0 0)
(0 0 0)
(0 0 0)
(0 0 0)
(0 0 0)
(0 0 0)
(0 0 0)
(0 0 0)
(0 0 0)
(0 0 0)
(0 0 0)
(-0.000183108 9.95995e-05 0.000107545)
(-0.000868589 0.000317376 -4.10808e-06)
(-0.000505363 0.000455149 0.000617928)
(-0.000503939 1.31973e-05 0.000327509)
(-0.000760323 0.000277179 2.52102e-05)
(-0.000831124 -0.000657809 -6.94382e-05)
(-0.000765257 -4.21461e-05 0.000291708)
(-0.000539312 -0.000518644 0.000409227)
(-4.88133e-05 0.000137376 0.000156063)
(-0.000145231 -0.000494744 0.00016585)
(-0.000816205 -0.00236626 -0.00124879)
(-0.00113158 -0.000301059 1.2418e-05)
(8.925e-05 -0.000377889 0.000330013)
(2.38013e-05 0.000542362 0.000163002)
(-0.000497359 8.63642e-05 -0.000214759)
(0.00013569 0.00015701 0.000223754)
(-0.000655652 0.000336674 0.00725106)
(-0.000783785 0.000362574 0.0056103)
(9.43296e-06 -0.000143067 0.00699382)
(-0.000975087 -0.000864042 0.00729805)
(-0.000473275 0.000256086 0.00537554)
(-0.00106096 -3.87788e-05 0.00695756)
(-0.000287723 -0.0006503 0.00675145)
(-0.00111789 -0.00155389 0.00649453)
(-6.3415e-05 -0.000259898 0.0062013)
(-0.0006254 0.000618054 0.00620565)
(-0.000681236 -5.99642e-05 0.00526021)
(-0.000327934 -0.00136105 0.00572333)
(0.000600187 0.000123863 0.00485344)
(0.000459587 1.13652e-05 0.00450704)
(-0.000806716 0.000397019 0.00455423)
(-0.0014768 -0.000505091 0.00609838)
(-0.000506159 0.000247999 0.00567179)
(-0.000107751 -0.000918295 0.00721911)
(-0.000395428 -0.000990677 0.00631834)
(0.000613256 -0.000431524 0.00641561)
(-0.000284881 3.53617e-05 0.00747669)
(-0.000751418 -0.000200345 0.00614888)
(-0.000450034 -0.000446862 0.00569287)
(0.000441796 -5.76466e-05 0.00658625)
(7.06897e-05 -2.21924e-05 0.00658461)
(0.000292003 0.000520314 0.00565675)
(0.000733857 0.000443157 0.00523425)
(0.000856148 -0.000483973 0.0057815)
(0.00110735 0.000311126 0.00425333)
(0.000894926 -0.00024724 0.00473625)
(0.000494487 0.000355 0.00516582)
(0.000963934 -0.000257835 0.00570302)
(2.29664e-05 0.000437127 0.00502736)
(0.000859735 0.000574062 0.00616913)
(0.000751793 0.000632517 0.00617934)
(0.00104101 0.000152017 0.00573437)
(-6.2366e-05 -4.36987e-05 0.00509237)
(0.000585515 -0.000818023 0.00511178)
(0.000732756 0.000190833 0.00550309)
(0.000738402 0.000395178 0.0058409)
(6.07337e-05 0.000333366 0.00427497)
(0.000737564 6.14381e-06 0.00510727)
(0.00110184 8.31359e-05 0.00517231)
(0.000545638 -0.000237878 0.00574167)
(0.000323044 -0.000173356 0.00367985)
(0.000494947 2.56895e-05 0.00432324)
(0.00118006 -0.000575969 0.00557327)
(0.000881516 -0.000487825 0.00549258)
(0.000603295 -0.000573288 0.00485944)
(0.000321112 -3.41383e-05 0.00643096)
(0.00091388 -5.70931e-06 0.00557462)
(0.000823022 7.10637e-05 0.00570185)
(0.000648084 -0.000550334 0.00325852)
(0.000680189 4.40134e-05 0.00447672)
(0.00067723 0.000318782 0.00570047)
(0.000644082 -1.51333e-05 0.00583674)
(-0.000258195 0.000183381 0.00552751)
(0.000191322 0.000401482 0.00468955)
(0.000621112 0.000288395 0.00516544)
(0.000696785 -0.0001822 0.00550217)
(0.000303644 0.000424274 0.00403435)
(1.06668e-05 0.000277109 0.00420508)
(0.000781851 -0.000136536 0.00501765)
(0.000769026 1.52764e-05 0.00542857)
(0.000614101 -0.000437727 0.00412569)
(0.000973934 -0.000310541 0.0054107)
(0.000689239 -0.000254631 0.00545894)
(0.000660584 -0.000201618 0.00564981)
(0.000595421 -0.000588221 0.00270625)
(0.000677598 -0.000270098 0.00419389)
(0.000440544 -0.000179895 0.00554542)
(0.000510193 -0.000485601 0.00583561)
(0.000167921 -0.00100207 0.00185942)
(0.000310107 -0.000156066 0.00426831)
(0.000278524 -0.000200598 0.00514136)
(0.000227762 -0.000211063 0.00538857)
(0.00039943 0.000190064 0.00258419)
(0.000302081 -0.000690683 0.0041266)
(0.000147819 -0.000409359 0.00463169)
(0.000127083 -1.34731e-05 0.00543225)
(0.000382017 9.11232e-05 0.00382399)
(0.00136835 -0.000670256 0.0062305)
(0.00103395 -0.000424883 0.00586594)
(0.0014235 -0.000666498 0.00559835)
(0.000218413 -0.000602323 0.00287887)
(-0.000274827 9.22766e-05 0.00385417)
(-6.67795e-05 7.16402e-06 0.00542651)
(4.19392e-05 -1.67501e-05 0.00567828)
(0.000100692 -0.00100097 0.00118647)
(-0.000683097 0.000126827 0.0040876)
(-0.000339464 6.13315e-05 0.00522571)
(-0.00011475 -9.65565e-05 0.00512496)
(9.38584e-05 0.000404226 0.00217393)
(-0.00094472 0.000232877 0.00414072)
(-0.000868761 -0.000103925 0.00453316)
(-0.000489108 -4.87144e-06 0.00542923)
(0 0 0)
(0 0 0)
(0 0 0)
(0 0 0)
(0 0 0)
(0 0 0)
(0 0 0)
(0 0 0)
(0 0 0)
(0 0 0)
(0 0 0)
(0 0 0)
(0 0 0)
(0 0 0)
(0 0 0)
(0 0 0)
(0 0 0)
(0 0 0)
(0 0 0)
(0 0 0)
(0 0 0)
(0 0 0)
(0 0 0)
(0 0 0)
(0 0 0)
(0 0 0)
(0 0 0)
(0 0 0)
(0 0 0)
(0 0 0)
(0 0 0)
(0 0 0)
(0 0 0)
(0 0 0)
(0 0 0)
(0 0 0)
(0 0 0)
(0 0 0)
(0 0 0)
(0 0 0)
(0 0 0)
(0 0 0)
(0 0 0)
(0 0 0)
(0 0 0)
(0 0 0)
(0 0 0)
(0 0 0)
(0 0 0)
(0 0 0)
(0 0 0)
(0 0 0)
(0 0 0)
(0 0 0)
(0 0 0)
(0 0 0)
(0 0 0)
(0 0 0)
(0 0 0)
(0 0 0)
(0 0 0)
(0 0 0)
(0 0 0)
(0 0 0)
(0 0 0)
(0 0 0)
(0 0 0)
(0 0 0)
(0 0 0)
(0 0 0)
(0 0 0)
(0 0 0)
(0 0 0)
(0 0 0)
(0 0 0)
(0 0 0)
(0 0 0)
(0 0 0)
(0 0 0)
(0 0 0)
(0 0 0)
(0 0 0)
(0 0 0)
(0 0 0)
(0 0 0)
(0 0 0)
(0 0 0)
(0 0 0)
(0 0 0)
(0 0 0)
(0 0 0)
(0 0 0)
(0 0 0)
(0 0 0)
(0 0 0)
(0 0 0)
(0 0 0)
(0 0 0)
(0 0 0)
(0 0 0)
(0 0 0)
(0 0 0)
(0 0 0)
(0 0 0)
(0 0 0)
(0 0 0)
(0 0 0)
(0 0 0)
(0 0 0)
(0 0 0)
(0 0 0)
(0 0 0)
(0 0 0)
(0 0 0)
(0 0 0)
(0 0 0)
(0 0 0)
(0 0 0)
(0 0 0)
(0 0 0)
(0 0 0)
(0 0 0)
(0 0 0)
(0 0 0)
(0 0 0)
(0 0 0)
(0 0 0)
(0 0 0)
(0 0 0)
(0 0 0)
(0 0 0)
(0 0 0)
(0 0 0)
(0 0 0)
(0 0 0)
(0 0 0)
(0 0 0)
(0 0 0)
(0 0 0)
(0 0 0)
(0 0 0)
(0 0 0)
(0 0 0)
(0 0 0)
(0 0 0)
(0 0 0)
(0 0 0)
(0 0 0)
(0 0 0)
(0 0 0)
(0 0 0)
(0 0 0)
(0 0 0)
(0 0 0)
(0 0 0)
(0 0 0)
(0 0 0)
(0 0 0)
(0 0 0)
(0 0 0)
(0 0 0)
(0 0 0)
(0 0 0)
(0 0 0)
(0 0 0)
(0 0 0)
(0 0 0)
(0 0 0)
(0 0 0)
(0 0 0)
(0 0 0)
(0 0 0)
(0 0 0)
(0 0 0)
(0 0 0)
(0 0 0)
(0 0 0)
(0 0 0)
(0 0 0)
(0 0 0)
(0 0 0)
(0 0 0)
(0 0 0)
(0 0 0)
(0 0 0)
(0 0 0)
(0 0 0)
(0 0 0)
(0 0 0)
(0 0 0)
(0 0 0)
(0 0 0)
(0 0 0)
(0 0 0)
(0 0 0)
(0 0 0)
(0 0 0)
(0 0 0)
(0 0 0)
(0 0 0)
(0 0 0)
(0 0 0)
(0 0 0)
(0 0 0)
(0 0 0)
(0 0 0)
(0 0 0)
(0 0 0)
(0 0 0)
(0 0 0)
(0 0 0)
(0 0 0)
(0 0 0)
(0 0 0)
(0 0 0)
(0 0 0)
(0 0 0)
(0 0 0)
(0 0 0)
(0 0 0)
(0 0 0)
(0 0 0)
(0 0 0)
(0 0 0)
(0 0 0)
(0 0 0)
(0 0 0)
(0 0 0)
(0 0 0)
(0 0 0)
(0 0 0)
(0 0 0)
(0 0 0)
(0 0 0)
(0 0 0)
(0 0 0)
(0 0 0)
(0 0 0)
(0 0 0)
(0 0 0)
(0 0 0)
(0 0 0)
(0 0 0)
(0 0 0)
(0 0 0)
(0 0 0)
(0 0 0)
(0 0 0)
(0 0 0)
(0 0 0)
(0 0 0)
(0 0 0)
(0 0 0)
(0 0 0)
(0 0 0)
(0 0 0)
(0 0 0)
(0 0 0)
(0 0 0)
(0 0 0)
(0 0 0)
(0 0 0)
(0 0 0)
(0 0 0)
(0 0 0)
(0 0 0)
(0 0 0)
(0 0 0)
(0 0 0)
(0 0 0)
(0 0 0)
(0 0 0)
(-9.84073e-05 -1.03178e-05 1.99381e-05)
(-0.000415682 -0.000125409 -0.00015028)
(-0.000281595 0.000253718 1.68871e-05)
(-0.000200731 5.81013e-05 -6.31764e-06)
(-0.000237008 0.000376436 -0.00134482)
(-0.000480679 0.000264249 -0.000350626)
(-6.30339e-05 0.000316928 -0.000720924)
(0.000475735 0.000213677 0.000280355)
(-0.00216477 -0.000160341 -4.1156e-06)
(-0.000771202 -0.0002693 4.34192e-05)
(-0.000616421 0.000299647 -0.000129011)
(8.4181e-05 -0.00059189 -0.000465405)
(-0.000178515 -0.000536534 -9.7454e-05)
(-0.000919678 -0.000705725 -8.79385e-05)
(-0.000419525 -0.000314744 -0.000968592)
(0.000237756 -0.000144504 -9.87902e-05)
(-0.000943578 -0.000220546 0.0048649)
(0.000341602 6.42235e-05 0.00456404)
(-0.000365153 7.21997e-05 0.00901089)
(-0.000238938 5.02079e-05 0.00758024)
(-0.000834878 -0.00109676 0.00419741)
(-0.000759517 -0.000451188 0.00531796)
(0.000109322 -0.000523265 0.0064831)
(0.000270673 0.00112103 0.00670358)
(0.000449484 -0.00109521 0.00581603)
(-0.00059721 -0.00210742 0.00560589)
(-0.000604913 -0.00117682 0.00736491)
(0.000208903 -0.000566563 0.00520609)
(0.000467976 -0.00125907 0.00458003)
(0.000147672 -0.00182573 0.00595496)
(0.000101688 -0.00174617 0.00728366)
(0.000605708 -8.00743e-05 0.0052705)
(0.000271163 -0.000522245 0.00521271)
(-0.000901836 -0.000202508 0.00617103)
(0.000100714 0.000179438 0.00617202)
(0.00151813 7.24126e-05 0.00657579)
(0.000842365 -0.00134583 0.00795213)
(-0.000579748 0.000322651 0.00525921)
(-0.000876981 0.000129258 0.0055981)
(-3.90634e-05 0.000689934 0.00687854)
(0.000636611 -0.000274823 0.00574758)
(0.000230303 0.000466064 0.00526747)
(-0.00048551 0.000683666 0.00564197)
(-0.000143918 5.0793e-05 0.00636811)
(0.000795908 -0.000140171 0.00630548)
(0.000340044 0.000356848 0.00578604)
(0.000276197 0.000178572 0.0054382)
(-0.00058676 0.000176287 0.00588999)
(5.15119e-05 -0.000506442 0.00558331)
(0.000543939 -0.000360699 0.00451266)
(-0.000103973 0.000117881 0.00598871)
(-0.000139408 8.26138e-05 0.00461749)
(0.000485534 -1.52962e-05 0.00757177)
(0.000167221 0.000324217 0.00480537)
(-0.000315792 -0.000155127 0.00474011)
(-0.000503461 0.000175946 0.00493748)
(0.00058215 0.000269613 0.0066781)
(0.000657024 -0.000269664 0.00573329)
(-0.000167142 -8.29172e-06 0.00492044)
(-0.000307334 0.000384997 0.00621426)
(0.000277567 -0.000523289 0.00672871)
(0.00068193 -0.000426256 0.00610447)
(-8.10002e-05 -0.000367959 0.00607386)
(-0.000393271 0.000248611 0.00592722)
(0.000562327 -0.000548711 0.00397567)
(0.000778287 0.000163123 0.00299201)
(0.000428434 -0.000413968 0.00488958)
(-0.000191626 0.000550488 0.00433234)
(0.000566071 -0.000360202 0.00549563)
(0.000146175 5.78215e-05 0.00465038)
(1.09809e-05 -0.000142506 0.00477408)
(0.000425572 0.000386656 0.00536953)
(0.00136331 -0.000205958 0.0058873)
(0.000728297 -0.00052264 0.0056994)
(-8.04378e-06 0.000195415 0.00546882)
(-0.0001102 0.000425767 0.00581869)
(0.000802077 -0.000444161 0.00594246)
(0.000987492 -0.000324877 0.00617652)
(0.000175368 0.000536653 0.00636172)
(0.000302052 0.000493184 0.00561416)
(0.000426462 -0.000676793 0.00371029)
(2.18759e-05 -4.90718e-05 0.00273251)
(0.000303102 0.000588661 0.00397375)
(-3.59776e-05 0.00030002 0.00366825)
(0.000865024 -0.000604912 0.00428304)
(0.000422916 -0.000362728 0.00451794)
(0.000408906 0.000638089 0.00451268)
(0.000350494 -0.000106007 0.00454682)
(0.000977683 -0.000659828 0.00558476)
(0.00112365 -0.000104052 0.00579779)
(0.000550083 0.000247888 0.00499204)
(0.000714242 -0.00030457 0.00527269)
(0.000627797 -0.000491342 0.00585108)
(0.000550877 0.000146397 0.00615894)
(0.000574141 0.000152431 0.00573386)
(0.000577376 3.8849e-06 0.00556632)
(0.00106268 -0.00141968 0.00372709)
(-0.000122532 0.000243485 0.00400242)
(2.56482e-05 -0.000246423 0.00308567)
(0.000257624 -0.000246495 0.00396606)
(0.00050762 -0.00117103 0.00457194)
(0.000399583 -0.00066468 0.00495996)
(0.000384609 -0.000429547 0.0041938)
(0.00087855 -0.000666783 0.00477956)
(0.000727462 -0.00121323 0.00487053)
(0.00108016 -0.000688292 0.00578942)
(0.000670736 -0.000428883 0.00518199)
(0.000441954 -0.000513497 0.00519401)
(0.00211962 -0.00127537 0.00423783)
(0.000420914 -0.00049997 0.00627034)
(0.000512033 -0.000225812 0.00566373)
(0.000521658 -0.000643348 0.00526915)
(0 0 0)
(0 0 0)
(0 0 0)
(0 0 0)
(0 0 0)
(0 0 0)
(0 0 0)
(0 0 0)
(0 0 0)
(0 0 0)
(0 0 0)
(0 0 0)
(0 0 0)
(0 0 0)
(0 0 0)
(0 0 0)
(0 0 0)
(0 0 0)
(0 0 0)
(0 0 0)
(0 0 0)
(0 0 0)
(0 0 0)
(0 0 0)
(0 0 0)
(0 0 0)
(0 0 0)
(0 0 0)
(0 0 0)
(0 0 0)
(0 0 0)
(0 0 0)
(0 0 0)
(0 0 0)
(0 0 0)
(0 0 0)
(0 0 0)
(0 0 0)
(0 0 0)
(0 0 0)
(0 0 0)
(0 0 0)
(0 0 0)
(0 0 0)
(0 0 0)
(0 0 0)
(0 0 0)
(0 0 0)
(0 0 0)
(0 0 0)
(0 0 0)
(0 0 0)
(0 0 0)
(0 0 0)
(0 0 0)
(0 0 0)
(0 0 0)
(0 0 0)
(0 0 0)
(0 0 0)
(0 0 0)
(0 0 0)
(0 0 0)
(0 0 0)
(0 0 0)
(0 0 0)
(0 0 0)
(0 0 0)
(0 0 0)
(0 0 0)
(0 0 0)
(0 0 0)
(0 0 0)
(0 0 0)
(0 0 0)
(0 0 0)
(0 0 0)
(0 0 0)
(0 0 0)
(0 0 0)
(0 0 0)
(0 0 0)
(0 0 0)
(0 0 0)
(0 0 0)
(0 0 0)
(0 0 0)
(0 0 0)
(0 0 0)
(0 0 0)
(0 0 0)
(0 0 0)
(0 0 0)
(0 0 0)
(0 0 0)
(0 0 0)
(0 0 0)
(0 0 0)
(0 0 0)
(0 0 0)
(0 0 0)
(0 0 0)
(0 0 0)
(0 0 0)
(0 0 0)
(0 0 0)
(0 0 0)
(0 0 0)
(0 0 0)
(0 0 0)
(0 0 0)
(0 0 0)
(0 0 0)
(0 0 0)
(0 0 0)
(0 0 0)
(0 0 0)
(0 0 0)
(0 0 0)
(0 0 0)
(0 0 0)
(0 0 0)
(0 0 0)
(0 0 0)
(0 0 0)
(0 0 0)
(0 0 0)
(0 0 0)
(0 0 0)
(0 0 0)
(0 0 0)
(0 0 0)
(0 0 0)
(0 0 0)
(0 0 0)
(0 0 0)
(0 0 0)
(0 0 0)
(0 0 0)
(0 0 0)
(0 0 0)
(0 0 0)
(0 0 0)
(0 0 0)
(0 0 0)
(0 0 0)
(0 0 0)
(0 0 0)
(0 0 0)
(0 0 0)
(0 0 0)
(0 0 0)
(0 0 0)
(0 0 0)
(0 0 0)
(0 0 0)
(0 0 0)
(0 0 0)
(0 0 0)
(0 0 0)
(0 0 0)
(0 0 0)
(0 0 0)
(0 0 0)
(0 0 0)
(0 0 0)
(0 0 0)
(0 0 0)
(0 0 0)
(0 0 0)
(0 0 0)
(0 0 0)
(0 0 0)
(0 0 0)
(0 0 0)
(0 0 0)
(0 0 0)
(0 0 0)
(0 0 0)
(0 0 0)
(0 0 0)
(0 0 0)
(0 0 0)
(0 0 0)
(0 0 0)
(0 0 0)
(0 0 0)
(0 0 0)
(0 0 0)
(0 0 0)
(0 0 0)
(0 0 0)
(0 0 0)
(0 0 0)
(0 0 0)
(0 0 0)
(0 0 0)
(0 0 0)
(0 0 0)
(0 0 0)
(0 0 0)
(0 0 0)
(0 0 0)
(0 0 0)
(0 0 0)
(0 0 0)
(0 0 0)
(0 0 0)
(0 0 0)
(0 0 0)
(0 0 0)
(0 0 0)
(0 0 0)
(0 0 0)
(0 0 0)
(0 0 0)
(0 0 0)
(0 0 0)
(0 0 0)
(0 0 0)
(0 0 0)
(0 0 0)
(0 0 0)
(0 0 0)
(0 0 0)
(0 0 0)
(0 0 0)
(0 0 0)
(0 0 0)
(0 0 0)
(0 0 0)
(0 0 0)
(0 0 0)
(0 0 0)
(0 0 0)
(0 0 0)
(0 0 0)
(0 0 0)
(0 0 0)
(0 0 0)
(0 0 0)
(0 0 0)
(0 0 0)
(0 0 0)
(0 0 0)
(0 0 0)
(0 0 0)
(0 0 0)
(0 0 0)
(0 0 0)
(0 0 0)
(0 0 0)
(0 0 0)
(0 0 0)
(0 0 0)
(0 0 0)
(0 0 0)
(0 0 0)
(0 0 0)
(0 0 0)
(0 0 0)
(0 0 0)
(0 0 0)
(0 0 0)
(0 0 0)
(0 0 0)
(0 0 0)
(0 0 0)
(0 0 0)
(0 0 0)
(0 0 0)
(0 0 0)
)
;

boundaryField
{
    inlet
    {
        type            zeroGradient;
    }
    outlet
    {
        type            zeroGradient;
    }
    wall
    {
        type            zeroGradient;
    }
    procBoundary0to1
    {
        type            processor;
        value           nonuniform List<vector> 
192
(
(-0.00011071 -0.000217133 0.000103444)
(-0.000110794 -0.000215835 0.000158097)
(-0.000132121 0.000610219 -0.000623659)
(3.52759e-05 0.000953807 -0.000156259)
(0.000114627 -3.75961e-05 0.00424664)
(0.00054948 0.00080444 0.00695349)
(-0.00116288 0.00108934 0.00657545)
(0.000599594 0.000602148 0.00714992)
(0.000490176 0.000195249 0.00568334)
(0.000492504 0.000565944 0.00636785)
(4.59569e-05 0.000478115 0.00688179)
(0.000294625 0.000199052 0.00695606)
(0.000360004 0.000184114 0.00554431)
(0.000171557 5.71903e-05 0.00579011)
(0.000249085 0.000232934 0.00609598)
(0.000301123 4.46014e-05 0.00620387)
(0.000436219 9.51397e-05 0.00577255)
(0.000263839 -0.000120823 0.00570497)
(0.000134792 8.33787e-05 0.00596645)
(-3.79325e-05 -8.37435e-05 0.00615561)
(0.000166363 -0.000135824 0.00571146)
(5.23435e-05 7.4733e-05 0.00589645)
(-5.15723e-05 -6.78143e-06 0.00598975)
(-8.42367e-05 4.11878e-05 0.00610602)
(-0.000174803 -0.000101251 0.00570902)
(-0.00157508 -8.47675e-05 0.00469889)
(-6.64022e-05 6.49567e-05 0.00599615)
(-0.00010733 -0.000233087 0.00613769)
(0 0 0)
(0 0 0)
(0 0 0)
(0 0 0)
(0 0 0)
(0 0 0)
(0 0 0)
(0 0 0)
(0 0 0)
(0 0 0)
(0 0 0)
(0 0 0)
(0 0 0)
(0 0 0)
(0 0 0)
(0 0 0)
(0 0 0)
(0 0 0)
(0 0 0)
(0 0 0)
(0 0 0)
(0 0 0)
(0 0 0)
(0 0 0)
(0 0 0)
(0 0 0)
(0 0 0)
(0 0 0)
(0 0 0)
(0 0 0)
(0 0 0)
(0 0 0)
(0 0 0)
(0 0 0)
(0 0 0)
(0 0 0)
(0 0 0)
(0 0 0)
(0 0 0)
(0 0 0)
(0 0 0)
(0 0 0)
(0 0 0)
(0 0 0)
(0 0 0)
(0 0 0)
(0 0 0)
(0 0 0)
(0 0 0)
(0 0 0)
(0 0 0)
(0 0 0)
(0 0 0)
(0 0 0)
(0 0 0)
(0 0 0)
(0 0 0)
(0 0 0)
(0 0 0)
(0 0 0)
(0 0 0)
(0 0 0)
(0 0 0)
(0 0 0)
(0 0 0)
(0 0 0)
(0 0 0)
(0 0 0)
(-9.75161e-05 0.000157839 -0.000345227)
(0.000254343 -0.000154353 0.000261002)
(0.000725355 -0.000680262 -0.000786489)
(6.73881e-05 -0.000309407 -0.000145693)
(-0.00121904 -0.000312842 0.00464372)
(-0.000215373 -0.00100731 0.00472293)
(0.000610775 -0.00117663 0.00566796)
(7.32115e-05 -0.000997807 0.00502807)
(-6.06385e-05 6.84743e-06 0.00601057)
(0.000236867 0.000240608 0.00609759)
(0.000122082 9.47541e-05 0.00720419)
(-0.00104167 0.000267004 0.00606413)
(-9.89609e-05 -0.000236243 0.00545044)
(0.000179138 0.000399406 0.00663974)
(-0.000530426 0.000828135 0.00650288)
(4.41012e-05 0.000640492 0.00544794)
(-0.000451779 -0.000504961 0.00394031)
(-0.0008736 -0.00033129 0.00462121)
(-0.000132638 0.000433164 0.0058046)
(0.000475738 0.000151334 0.0055126)
(-2.43963e-05 -0.00030467 0.00374298)
(0.000145793 -0.000406532 0.00469508)
(0.00059723 0.000162302 0.00523438)
(0.000590949 -0.000137108 0.00554798)
(-8.24363e-05 -0.00113434 0.00362786)
(0.000523955 -0.000413449 0.0044571)
(0.000740498 -0.00036558 0.00539434)
(0.000499785 -0.000117405 0.00565034)
(0 0 0)
(0 0 0)
(0 0 0)
(0 0 0)
(0 0 0)
(0 0 0)
(0 0 0)
(0 0 0)
(0 0 0)
(0 0 0)
(0 0 0)
(0 0 0)
(0 0 0)
(0 0 0)
(0 0 0)
(0 0 0)
(0 0 0)
(0 0 0)
(0 0 0)
(0 0 0)
(0 0 0)
(0 0 0)
(0 0 0)
(0 0 0)
(0 0 0)
(0 0 0)
(0 0 0)
(0 0 0)
(0 0 0)
(0 0 0)
(0 0 0)
(0 0 0)
(0 0 0)
(0 0 0)
(0 0 0)
(0 0 0)
(0 0 0)
(0 0 0)
(0 0 0)
(0 0 0)
(0 0 0)
(0 0 0)
(0 0 0)
(0 0 0)
(0 0 0)
(0 0 0)
(0 0 0)
(0 0 0)
(0 0 0)
(0 0 0)
(0 0 0)
(0 0 0)
(0 0 0)
(0 0 0)
(0 0 0)
(0 0 0)
(0 0 0)
(0 0 0)
(0 0 0)
(0 0 0)
(0 0 0)
(0 0 0)
(0 0 0)
(0 0 0)
(0 0 0)
(0 0 0)
(0 0 0)
(0 0 0)
)
;
    }
    procBoundary0to2
    {
        type            processor;
        value           nonuniform List<vector> 
192
(
(-0.000524818 -0.000235704 -0.000131549)
(0.00022153 -0.00129014 -4.08558e-05)
(0.000430147 0.000625083 -0.000135809)
(0.000118037 0.000859168 -0.00028595)
(0.000735394 -1.43303e-05 0.00603899)
(0.00114783 0.000640419 0.00531512)
(-0.000207858 0.000955213 0.0065506)
(-0.000435709 -0.000334166 0.00647819)
(0.00101583 -0.000484672 0.00530283)
(0.000917023 -0.000690834 0.00653795)
(0.000156148 0.000159213 0.00704873)
(2.88693e-05 0.000336421 0.00692398)
(0.000673686 -0.000285928 0.00553618)
(0.000516754 -0.000242926 0.00596079)
(0.000116903 -0.000135317 0.00641972)
(2.19939e-05 0.000224519 0.0066144)
(0.000430683 -4.21416e-05 0.00583689)
(0.000193443 -0.000186575 0.00614513)
(6.97237e-05 -0.000231419 0.0061721)
(-4.38426e-05 -0.000324192 0.00632057)
(4.64297e-05 -0.000193077 0.00582905)
(-0.000130574 -0.000193746 0.00600756)
(-0.000158439 -0.000219202 0.00624825)
(-0.000188559 -0.00025329 0.0062697)
(-0.000303272 -5.33358e-05 0.00558034)
(-0.000416436 -0.000103147 0.00584652)
(-0.000387059 -0.000317582 0.0060728)
(-0.000202179 -0.000278181 0.00628699)
(0 0 0)
(0 0 0)
(0 0 0)
(0 0 0)
(0 0 0)
(0 0 0)
(0 0 0)
(0 0 0)
(0 0 0)
(0 0 0)
(0 0 0)
(0 0 0)
(0 0 0)
(0 0 0)
(0 0 0)
(0 0 0)
(0 0 0)
(0 0 0)
(0 0 0)
(0 0 0)
(0 0 0)
(0 0 0)
(0 0 0)
(0 0 0)
(0 0 0)
(0 0 0)
(0 0 0)
(0 0 0)
(0 0 0)
(0 0 0)
(0 0 0)
(0 0 0)
(0 0 0)
(0 0 0)
(0 0 0)
(0 0 0)
(0 0 0)
(0 0 0)
(0 0 0)
(0 0 0)
(0 0 0)
(0 0 0)
(0 0 0)
(0 0 0)
(0 0 0)
(0 0 0)
(0 0 0)
(0 0 0)
(0 0 0)
(0 0 0)
(0 0 0)
(0 0 0)
(0 0 0)
(0 0 0)
(0 0 0)
(0 0 0)
(0 0 0)
(0 0 0)
(0 0 0)
(0 0 0)
(0 0 0)
(0 0 0)
(0 0 0)
(0 0 0)
(0 0 0)
(0 0 0)
(0 0 0)
(0 0 0)
(6.99109e-05 -0.000287566 0.000267549)
(-0.000578824 0.000954408 -0.000182008)
(-0.000598805 0.000454013 3.04502e-05)
(-0.000961055 0.000131622 -0.000274766)
(-0.000359482 -0.000854444 0.00527245)
(-0.00162864 -0.000360647 0.00554525)
(-0.000980452 -0.000223616 0.00632895)
(-0.000799561 -0.000199126 0.00499511)
(-0.000574819 0.000484113 0.00678875)
(0.000244388 -0.000254689 0.00531762)
(0.000547737 -0.0012952 0.00538068)
(0.000907015 -0.000399945 0.00508811)
(0.000541794 -0.00173188 0.00559201)
(0.00131213 -0.000335632 0.00510994)
(0.000827677 -0.000614762 0.0050918)
(0.00088866 -0.000254886 0.00543993)
(-9.36019e-05 0.0010107 0.00365718)
(0.000330603 -0.000135462 0.00468733)
(0.000494401 -0.000343618 0.00499583)
(0.000570075 5.75726e-05 0.005612)
(0.000512555 8.57956e-05 0.0028095)
(-2.59624e-05 -0.000105695 0.0043996)
(-0.000165722 7.62652e-06 0.00532352)
(-0.00023263 -7.5584e-05 0.00543169)
(4.90819e-05 8.09016e-05 0.00222198)
(-0.000318755 -0.000235149 0.00435185)
(-0.000357715 -0.000139463 0.00491584)
(-0.00038477 -0.00041273 0.00531714)
(0 0 0)
(0 0 0)
(0 0 0)
(0 0 0)
(0 0 0)
(0 0 0)
(0 0 0)
(0 0 0)
(0 0 0)
(0 0 0)
(0 0 0)
(0 0 0)
(0 0 0)
(0 0 0)
(0 0 0)
(0 0 0)
(0 0 0)
(0 0 0)
(0 0 0)
(0 0 0)
(0 0 0)
(0 0 0)
(0 0 0)
(0 0 0)
(0 0 0)
(0 0 0)
(0 0 0)
(0 0 0)
(0 0 0)
(0 0 0)
(0 0 0)
(0 0 0)
(0 0 0)
(0 0 0)
(0 0 0)
(0 0 0)
(0 0 0)
(0 0 0)
(0 0 0)
(0 0 0)
(0 0 0)
(0 0 0)
(0 0 0)
(0 0 0)
(0 0 0)
(0 0 0)
(0 0 0)
(0 0 0)
(0 0 0)
(0 0 0)
(0 0 0)
(0 0 0)
(0 0 0)
(0 0 0)
(0 0 0)
(0 0 0)
(0 0 0)
(0 0 0)
(0 0 0)
(0 0 0)
(0 0 0)
(0 0 0)
(0 0 0)
(0 0 0)
(0 0 0)
(0 0 0)
(0 0 0)
(0 0 0)
)
;
    }
}


// ************************************************************************* //
