/*--------------------------------*- C++ -*----------------------------------*\
| =========                 |                                                 |
| \\      /  F ield         | OpenFOAM: The Open Source CFD Toolbox           |
|  \\    /   O peration     | Version:  2506                                  |
|   \\  /    A nd           | Website:  www.openfoam.com                      |
|    \\/     M anipulation  |                                                 |
\*---------------------------------------------------------------------------*/
FoamFile
{
    version     2.0;
    format      ascii;
    arch        "LSB;label=32;scalar=64";
    class       volScalarField;
    location    "0.07";
    object      voidfraction;
}
// * * * * * * * * * * * * * * * * * * * * * * * * * * * * * * * * * * * * * //

dimensions      [0 0 0 0 0 0 0];

internalField   nonuniform List<scalar> 
1152
(
0.502297
0.436463
0.444363
0.423296
0.444363
0.518097
0.491764
0.444363
0.46543
0.415396
0.412763
0.43383
0.45753
0.583931
0.454897
0.53653
0.412763
0.46543
0.39433
0.412763
0.44173
0.41013
0.44173
0.41803
0.44963
0.439097
0.336396
0.407496
0.43383
0.43383
0.423296
0.452263
0.412763
0.423296
0.415396
0.367996
0.399596
0.407496
0.40223
0.375896
0.396963
0.48123
0.378529
0.452263
0.43383
0.315329
0.362729
0.446997
0.45753
0.460163
0.40223
0.494397
0.39433
0.391696
0.407496
0.38643
0.420663
0.381163
0.378529
0.389063
0.420663
0.378529
0.344296
0.323229
0.40223
0.344296
0.38643
0.41013
0.446997
0.39433
0.475963
0.502297
0.41013
0.41013
0.360096
0.373263
0.373263
0.370629
0.357463
0.354829
0.428563
0.431196
0.415396
0.39433
0.439097
0.381163
0.420663
0.378529
0.428563
0.367996
0.399596
0.454897
0.346929
0.452263
0.42593
0.478597
0.776165
0.749832
0.705065
0.678731
0.636598
0.760365
0.52073
0.612898
0.705065
0.676098
0.591831
0.568131
0.741932
0.797232
0.639231
0.636598
1
1
1
1
1
1
1
1
1
1
1
1
1
1
1
1
1
1
1
1
1
1
1
1
1
1
1
1
1
1
1
1
1
1
1
1
1
1
1
1
1
1
1
1
1
1
1
1
1
1
1
1
1
1
1
1
1
1
1
1
1
1
1
1
1
1
1
1
1
1
1
1
1
1
1
1
1
1
1
1
1
1
1
1
1
1
1
1
1
1
1
1
1
1
1
1
1
1
1
1
1
1
1
1
1
1
1
1
1
1
1
1
1
1
1
1
1
1
1
1
1
1
1
1
1
1
1
1
1
1
1
1
1
1
1
1
1
1
1
1
1
1
1
1
1
1
1
1
1
1
1
1
1
1
1
1
1
1
1
1
1
1
1
1
1
1
1
1
1
1
1
1
1
1
1
1
1
1
1
1
1
1
1
1
1
1
1
1
1
1
1
1
1
1
1
1
1
1
1
1
1
1
1
1
1
1
1
1
1
1
1
1
1
1
1
1
1
1
1
1
1
1
1
1
1
1
1
1
1
1
1
1
1
1
1
1
1
1
1
1
1
1
1
1
1
1
1
1
1
1
1
1
1
1
1
1
1
1
1
1
1
1
1
1
1
1
1
1
1
1
1
1
0.425368
0.486387
0.488628
0.465515
0.467322
0.415322
0.440483
0.39981
0.43972
0.441822
0.503795
0.409896
0.486365
0.428323
0.378727
0.478781
0.449648
0.402847
0.45236
0.491801
0.428186
0.490843
0.429403
0.386972
0.451155
0.403764
0.401705
0.353052
0.480996
0.392716
0.345563
0.441193
0.428065
0.405941
0.412466
0.417324
0.428186
0.386088
0.410014
0.441535
0.407323
0.448165
0.382712
0.388241
0.368247
0.457994
0.447266
0.451216
0.403785
0.415223
0.448733
0.338465
0.434709
0.425067
0.396164
0.447954
0.395889
0.446051
0.427821
0.355758
0.375406
0.333373
0.389782
0.408616
0.414576
0.399753
0.434226
0.421705
0.38905
0.446992
0.307528
0.444744
0.430192
0.359364
0.389834
0.342224
0.473837
0.390738
0.407469
0.386064
0.584538
0.418317
0.394332
0.461134
0.395573
0.386088
0.390625
0.374134
0.430192
0.450279
0.423073
0.428845
0.434465
0.422388
0.391992
0.416134
0.592632
0.681312
0.775141
0.74152
0.552115
0.605343
0.587287
0.650157
0.521666
0.61731
0.627253
0.631862
0.581218
0.586572
0.610875
0.629132
1
1
1
1
1
1
1
1
1
1
1
1
1
1
1
1
1
1
1
1
1
1
1
1
1
1
1
1
1
1
1
1
1
1
1
1
1
1
1
1
1
1
1
1
1
1
1
1
1
1
1
1
1
1
1
1
1
1
1
1
1
1
1
1
1
1
1
1
1
1
1
1
1
1
1
1
1
1
1
1
1
1
1
1
1
1
1
1
1
1
1
1
1
1
1
1
1
1
1
1
1
1
1
1
1
1
1
1
1
1
1
1
1
1
1
1
1
1
1
1
1
1
1
1
1
1
1
1
1
1
1
1
1
1
1
1
1
1
1
1
1
1
1
1
1
1
1
1
1
1
1
1
1
1
1
1
1
1
1
1
1
1
1
1
1
1
1
1
1
1
1
1
1
1
1
1
1
1
1
1
1
1
1
1
1
1
1
1
1
1
1
1
1
1
1
1
1
1
1
1
1
1
1
1
1
1
1
1
1
1
1
1
1
1
1
1
1
1
1
1
1
1
1
1
1
1
1
1
1
1
1
1
1
1
1
1
1
1
1
1
1
1
1
1
1
1
1
1
1
1
1
1
1
1
1
1
1
1
1
1
1
1
1
1
1
1
1
1
1
1
1
1
0.479324
0.465147
0.416852
0.420147
0.486387
0.478662
0.450279
0.509426
0.448733
0.407244
0.468182
0.418524
0.452372
0.412649
0.499224
0.368523
0.465835
0.40427
0.424475
0.40404
0.393565
0.446992
0.429136
0.426344
0.445107
0.385085
0.396957
0.405258
0.364752
0.40302
0.477569
0.413628
0.390296
0.452102
0.393983
0.454151
0.409035
0.412886
0.452394
0.404585
0.416093
0.434943
0.370841
0.391992
0.377895
0.380553
0.40719
0.403605
0.465835
0.391225
0.428286
0.380775
0.433788
0.468918
0.40165
0.477776
0.419719
0.382315
0.373215
0.403047
0.369133
0.419068
0.418017
0.436181
0.42267
0.432534
0.378737
0.423727
0.405941
0.388525
0.469308
0.331395
0.455987
0.410014
0.394583
0.334508
0.421705
0.364505
0.374707
0.381052
0.433461
0.395573
0.414946
0.427306
0.368812
0.403142
0.429136
0.410519
0.495881
0.382315
0.382712
0.403047
0.391038
0.447954
0.477569
0.343464
0.708637
0.710832
0.662689
0.683229
0.650372
0.80998
0.746283
0.772516
0.644578
0.767329
0.703227
0.745742
0.675804
0.801007
0.734724
0.736884
1
1
1
1
1
1
1
1
1
1
1
1
1
1
1
1
1
1
1
1
1
1
1
1
1
1
1
1
1
1
1
1
1
1
1
1
1
1
1
1
1
1
1
1
1
1
1
1
1
1
1
1
1
1
1
1
1
1
1
1
1
1
1
1
1
1
1
1
1
1
1
1
1
1
1
1
1
1
1
1
1
1
1
1
1
1
1
1
1
1
1
1
1
1
1
1
1
1
1
1
1
1
1
1
1
1
1
1
1
1
1
1
1
1
1
1
1
1
1
1
1
1
1
1
1
1
1
1
1
1
1
1
1
1
1
1
1
1
1
1
1
1
1
1
1
1
1
1
1
1
1
1
1
1
1
1
1
1
1
1
1
1
1
1
1
1
1
1
1
1
1
1
1
1
1
1
1
1
1
1
1
1
1
1
1
1
1
1
1
1
1
1
1
1
1
1
1
1
1
1
1
1
1
1
1
1
1
1
1
1
1
1
1
1
1
1
1
1
1
1
1
1
1
1
1
1
1
1
1
1
1
1
1
1
1
1
1
1
1
1
1
1
1
1
1
1
1
1
1
1
1
1
1
1
1
1
1
1
1
1
1
1
1
1
1
1
1
1
1
1
1
1
)
;

boundaryField
{
    inlet
    {
        type            fixedValue;
        value           uniform 1;
    }
    outlet
    {
        type            fixedValue;
        value           uniform 1;
    }
    wall
    {
        type            zeroGradient;
    }
    procBoundary0to1
    {
        type            processor;
        value           nonuniform List<scalar> 
192
(
0.502297
0.52073
0.454897
0.44963
0.325862
0.389063
0.373263
0.375896
0.407496
0.396963
0.375896
0.446997
0.349563
0.40223
0.389063
0.404863
0.378529
0.307429
0.428563
0.346929
0.462797
0.446997
0.399596
0.367996
0.673465
0.499664
0.549697
0.45753
1
1
1
1
1
1
1
1
1
1
1
1
1
1
1
1
1
1
1
1
1
1
1
1
1
1
1
1
1
1
1
1
1
1
1
1
1
1
1
1
1
1
1
1
1
1
1
1
1
1
1
1
1
1
1
1
1
1
1
1
1
1
1
1
1
1
1
1
0.45773
0.376891
0.471586
0.511357
0.441623
0.390738
0.434
0.391075
0.438044
0.461951
0.391992
0.368523
0.434465
0.38876
0.420735
0.3159
0.432675
0.422388
0.460531
0.431169
0.439834
0.414476
0.420735
0.466251
0.647435
0.693391
0.69268
0.714332
1
1
1
1
1
1
1
1
1
1
1
1
1
1
1
1
1
1
1
1
1
1
1
1
1
1
1
1
1
1
1
1
1
1
1
1
1
1
1
1
1
1
1
1
1
1
1
1
1
1
1
1
1
1
1
1
1
1
1
1
1
1
1
1
1
1
1
1
)
;
    }
    procBoundary0to2
    {
        type            processor;
        value           nonuniform List<scalar> 
192
(
0.491764
0.40223
0.357463
0.460163
0.360096
0.365363
0.446997
0.446997
0.323229
0.48913
0.41803
0.396963
0.431196
0.389063
0.431196
0.452263
0.381163
0.412763
0.46543
0.344296
0.454897
0.331129
0.396963
0.41013
0.681365
0.633964
0.655031
0.631331
1
1
1
1
1
1
1
1
1
1
1
1
1
1
1
1
1
1
1
1
1
1
1
1
1
1
1
1
1
1
1
1
1
1
1
1
1
1
1
1
1
1
1
1
1
1
1
1
1
1
1
1
1
1
1
1
1
1
1
1
1
1
1
1
1
1
1
1
0.436254
0.505469
0.491485
0.41864
0.427306
0.444148
0.495906
0.366017
0.470258
0.384804
0.429578
0.381052
0.446992
0.527229
0.440633
0.37604
0.416568
0.426344
0.396414
0.406111
0.393302
0.418432
0.434
0.411122
0.609852
0.628113
0.681625
0.596556
1
1
1
1
1
1
1
1
1
1
1
1
1
1
1
1
1
1
1
1
1
1
1
1
1
1
1
1
1
1
1
1
1
1
1
1
1
1
1
1
1
1
1
1
1
1
1
1
1
1
1
1
1
1
1
1
1
1
1
1
1
1
1
1
1
1
1
1
)
;
    }
}


// ************************************************************************* //
