/*--------------------------------*- C++ -*----------------------------------*\
| =========                 |                                                 |
| \\      /  F ield         | OpenFOAM: The Open Source CFD Toolbox           |
|  \\    /   O peration     | Version:  2506                                  |
|   \\  /    A nd           | Website:  www.openfoam.com                      |
|    \\/     M anipulation  |                                                 |
\*---------------------------------------------------------------------------*/
FoamFile
{
    version     2.0;
    format      ascii;
    arch        "LSB;label=32;scalar=64";
    class       volScalarField;
    location    "0.1";
    object      Ksl;
}
// * * * * * * * * * * * * * * * * * * * * * * * * * * * * * * * * * * * * * //

dimensions      [1 -3 -1 0 0 0 0];

internalField   nonuniform List<scalar> 
1152
(
187382
352454
173109
491088
80889.4
118711
153199
3.88326e+06
238090
156301
174543
75900
216006
93604
166111
129020
125264
172446
122107
6.00682e+06
358557
110729
158154
152080
122559
163886
212799
89146.2
87782.2
134032
146593
213679
211214
2.98972e+07
204210
174294
108415
271402
570161
154696
288190
246422
162072
226809
94983.3
609747
253086
775376
217742
316272
316614
121783
226177
207495
341667
178016
406295
289611
313294
135214
286047
207814
229794
1.61838e+06
269155
350383
226275
144316
170397
183960
230670
533191
372447
169599
438921
131375
170021
506420
138266
1.12774e+06
748290
162977
356682
1.0992e+06
180336
270226
288355
175951
238245
377546
122280
296156
110289
157932
400969
291659
126527
99767.3
76546.2
88091
57544.2
88903.4
159354
176854
120280
82635.6
184854
85635
51936
110946
112549
144313
0
0
-1.16896e-12
110.869
0
609.033
115.482
0
0
0
0
0
0
0
0
227.224
0
0
0
0
0
0
0
0
0
0
0
0
0
0
0
0
0
0
0
0
0
0
0
0
0
0
0
0
0
0
0
0
0
0
0
0
0
0
0
0
0
0
0
0
0
0
0
0
0
0
0
0
0
0
0
0
0
0
0
0
0
0
0
0
0
0
0
0
0
0
0
0
0
0
0
0
0
0
0
0
0
0
0
0
0
0
0
0
0
0
0
0
0
0
0
0
0
0
0
0
0
0
0
0
0
0
0
0
0
0
0
0
0
0
0
0
0
0
0
0
0
0
0
0
0
0
0
0
0
0
0
0
0
0
0
0
0
0
0
0
0
0
0
0
0
0
0
0
0
0
0
0
0
0
0
0
0
0
0
0
0
0
0
0
0
0
0
0
0
0
0
0
0
0
0
0
0
0
0
0
0
0
0
0
0
0
0
0
0
0
0
0
0
0
0
0
0
0
0
0
0
0
0
0
0
0
0
0
0
0
0
0
0
0
0
0
0
0
0
0
0
0
0
0
0
0
0
0
0
0
0
0
0
0
0
0
0
0
0
0
0
0
0
0
0
0
0
0
0
0
0
0
0
0
0
0
84453.8
294901
65653.8
1.10161e+06
128866
359944
154364
205634
149727
96098.9
129740
221304
96056.4
241709
118549
127396
177180
115057
151195
124826
101165
192727
154273
186159
193478
102903
123698
108897
187053
143061
107366
190287
262842
141823
253031
130641
762388
517210
1.00671e+06
303963
169863
214417
183795
445870
173892
162570
293138
192815
681430
288586
463458
141688
194084
157887
240215
273255
252105
238896
165839
239953
242790
254288
234212
225095
110556
194247
159085
182917
793898
231299
348318
171205
389435
177797
159303
243181
151448
146417
494835
152605
1.64062e+06
680205
194214
1.26106e+06
131674
228224
340126
109070
330586
212159
164050
2.17109e+06
185002
233624
514209
93277.6
5764.05
67546.2
43382.6
18900.6
63476.2
95936.6
61753.2
53885
134352
59534.1
57553.4
13929.7
61920.1
32342.6
126649
24948.7
0
0
0
0
0
0
0
0
0
0
0
0
0
0
0
0
0
0
0
0
0
0
0
0
0
0
0
0
0
0
0
0
0
0
0
0
0
0
0
0
0
0
0
0
0
0
0
0
0
0
0
0
0
0
0
0
0
0
0
0
0
0
0
0
0
0
0
0
0
0
0
0
0
0
0
0
0
0
0
0
0
0
0
0
0
0
0
0
0
0
0
0
0
0
0
0
0
0
0
0
0
0
0
0
0
0
0
0
0
0
0
0
0
0
0
0
0
0
0
0
0
0
0
0
0
0
0
0
0
0
0
0
0
0
0
0
0
0
0
0
0
0
0
0
0
0
0
0
0
0
0
0
0
0
0
0
0
0
0
0
0
0
0
0
0
0
0
0
0
0
0
0
0
0
0
0
0
0
0
0
0
0
0
0
0
0
0
0
0
0
0
0
0
0
0
0
0
0
0
0
0
0
0
0
0
0
0
0
0
0
0
0
0
0
0
0
0
0
0
0
0
0
0
0
0
0
0
0
0
0
0
0
0
0
0
0
0
0
0
0
0
0
0
0
0
0
0
0
0
0
0
0
0
0
0
0
0
0
0
0
0
0
0
0
0
0
0
0
0
0
0
0
131237
90434.5
175850
108465
217809
88328.9
201671
90809.2
153254
95231.2
201182
91423
113799
3.93717e+06
79545.6
183584
301166
240476
423573
273594
115636
302050
108512
122595
91997.3
152589
118981
116017
154480
84081.9
321282
220715
178408
185468
172120
140739
342700
169223
379926
1.88164e+06
109267
450181
339385
4.04222e+06
292541
155684
153407
258702
229941
135898
266599
177143
345773
192703
178497
286450
171559
168743
1.56603e+06
158366
185487
170958
267424
202350
128682
209735
517923
276472
229850
218054
176268
335114
246614
191945
357466
172033
183190
275022
152802
489251
395453
86935.2
237431
198398
235797
193362
220101
337549
298958
141487
192472
159282
169708
296161
217967
261607
47020.1
21661.3
97583.5
31721.8
46242.5
100608
71762.9
132605
67636.4
64443.2
88882.8
77933.1
108211
105617
66224.4
55177.8
0
0
0
0
0
0
0
0
0
0
0
0
696.233
0
0
0
0
0
0
0
0
0
0
0
0
0
0
0
0
0
0
0
0
0
0
0
0
0
0
0
0
0
0
0
0
0
0
0
0
0
0
0
0
0
0
0
0
0
0
0
0
0
0
0
0
0
0
0
0
0
0
0
0
0
0
0
0
0
0
0
0
0
0
0
0
0
0
0
0
0
0
0
0
0
0
0
0
0
0
0
0
0
0
0
0
0
0
0
0
0
0
0
0
0
0
0
0
0
0
0
0
0
0
0
0
0
0
0
0
0
0
0
0
0
0
0
0
0
0
0
0
0
0
0
0
0
0
0
0
0
0
0
0
0
0
0
0
0
0
0
0
0
0
0
0
0
0
0
0
0
0
0
0
0
0
0
0
0
0
0
0
0
0
0
0
0
0
0
0
0
0
0
0
0
0
0
0
0
0
0
0
0
0
0
0
0
0
0
0
0
0
0
0
0
0
0
0
0
0
0
0
0
0
0
0
0
0
0
0
0
0
0
0
0
0
0
0
0
0
0
0
0
0
0
0
0
0
0
0
0
0
0
0
0
0
0
0
0
0
0
0
0
0
0
0
0
0
0
0
0
0
0
)
;

boundaryField
{
    inlet
    {
        type            zeroGradient;
    }
    outlet
    {
        type            zeroGradient;
    }
    wall
    {
        type            zeroGradient;
    }
    procBoundary2to0
    {
        type            processor;
        value           nonuniform List<scalar> 
192
(
162258
61433.8
106420
195015
128031
179841
157680
100734
297272
144264
1.07206e+06
802710
182383
115958
242216
119944
239078
226737
309991
388085
83822
638718
244574
145168
58374.3
143094
175375
110380
0
0
0
575.137
0
0
0
0
0
0
0
0
0
0
0
0
0
0
0
0
0
0
0
0
0
0
0
0
0
0
0
0
0
0
0
0
0
0
0
0
0
0
0
0
0
0
0
0
0
0
0
0
0
0
0
0
0
0
0
0
0
0
0
0
0
0
0
0
250420
284273
95324.7
148803
118130
94549.8
141591
120511
1.10274e+06
231335
1.91039e+07
188225
183269
278686
314029
219649
332504
3.63267e+06
162880
171739
173847
230645
184181
242646
89332
58921.5
37236.6
53291.9
0
0
0
0
0
0
0
0
0
0
0
0
0
0
0
0
0
0
0
0
0
0
0
0
0
0
0
0
0
0
0
0
0
0
0
0
0
0
0
0
0
0
0
0
0
0
0
0
0
0
0
0
0
0
0
0
0
0
0
0
0
0
0
0
0
0
0
0
)
;
    }
    procBoundary2to3
    {
        type            processor;
        value           nonuniform List<scalar> 
192
(
42513.9
53391.6
2.83857e+06
215299
105193
178844
224430
118136
144605
5.2594e+06
266329
278167
2.41007e+06
165979
365883
161581
3.61558e+06
293217
344055
196905
168891
125989
351929
102605
118626
112327
106048
413041
0
0
0
0
0
0
0
0
0
0
0
0
0
0
0
0
0
0
0
0
0
0
0
0
0
0
0
0
0
0
0
0
0
0
0
0
0
0
0
0
0
0
0
0
0
0
0
0
0
0
0
0
0
0
0
0
0
0
0
0
0
0
0
0
0
0
0
0
64190.7
216609
78977.5
6.47834e+06
222905
119703
130867
87092.5
292171
223783
212677
270756
1.95707e+06
256993
182828
222394
270749
296248
955829
3.8746e+06
100419
1.38497e+06
134750
266488
97784.6
65126.6
44221.8
45479.4
0
0
0
0
0
0
0
0
0
0
0
0
0
0
0
0
0
0
0
0
0
0
0
0
0
0
0
0
0
0
0
0
0
0
0
0
0
0
0
0
0
0
0
0
0
0
0
0
0
0
0
0
0
0
0
0
0
0
0
0
0
0
0
0
0
0
0
0
)
;
    }
}


// ************************************************************************* //
