/*--------------------------------*- C++ -*----------------------------------*\
| =========                 |                                                 |
| \\      /  F ield         | OpenFOAM: The Open Source CFD Toolbox           |
|  \\    /   O peration     | Version:  2506                                  |
|   \\  /    A nd           | Website:  www.openfoam.com                      |
|    \\/     M anipulation  |                                                 |
\*---------------------------------------------------------------------------*/
FoamFile
{
    version     2.0;
    format      ascii;
    arch        "LSB;label=32;scalar=64";
    class       volScalarField;
    location    "0.1";
    object      p;
}
// * * * * * * * * * * * * * * * * * * * * * * * * * * * * * * * * * * * * * //

dimensions      [0 2 -2 0 0 0 0];

internalField   nonuniform List<scalar> 
1152
(
17.671
17.4573
17.5328
17.7085
17.7848
17.6619
17.8588
17.6537
17.9959
18.0561
18.1467
17.8436
18.0077
18.0873
18.2274
18.2459
14.6121
12.3332
14.4956
14.4661
15.1685
14.7556
15.0934
15.1879
15.4521
15.393
15.5149
15.6854
15.5632
15.7266
15.8159
15.8489
14.0067
16.2363
13.81
13.5864
13.593
13.4723
13.6238
13.3408
13.7672
13.5629
13.4449
13.4928
13.6274
13.6433
13.5135
13.7074
11.7242
15.8973
11.547
10.854
11.0988
11.318
10.56
10.6839
10.7016
10.1278
10.1515
9.94698
10.4313
9.73089
9.10768
9.4096
6.71781
7.01954
6.97325
7.05274
6.35288
6.50998
6.43538
6.5637
5.79179
5.92451
5.4849
6.1157
5.1656
5.32281
5.34638
5.19241
1.90192
2.29154
2.17525
2.68454
2.01932
2.32534
2.63344
2.69969
1.90617
2.12109
2.5234
2.45306
1.76549
1.97237
2.27034
1.72479
1.00946
1.0196
1.03368
0.998673
1.0282
0.998621
0.957482
0.96782
0.994493
1.01604
0.987667
0.987051
1.01283
0.987161
0.955625
0.8336
0.998685
0.998065
0.996799
0.996198
0.996496
0.996904
0.996931
0.991791
0.993475
0.992937
0.992219
0.985624
0.990861
0.989229
0.986609
0.980649
1.0008
1.00019
0.999387
1.0009
0.999833
0.998653
0.996886
0.998527
0.998388
0.997982
0.996418
0.999318
0.997754
0.996375
0.993261
0.995845
0.999411
0.999464
0.99934
1.00011
0.998599
0.998321
0.997781
0.998593
0.997614
0.997368
0.996676
0.997784
0.99668
0.996027
0.994476
0.995633
0.999361
0.999369
0.999354
0.999723
0.998818
0.998705
0.998571
0.998902
0.998224
0.998035
0.997793
0.998228
0.997634
0.99731
0.996861
0.997363
0.999264
0.999264
0.999301
0.999488
0.998892
0.998852
0.998841
0.999012
0.998496
0.998409
0.998348
0.998545
0.998093
0.997964
0.997852
0.998052
0.999271
0.999283
0.999324
0.999439
0.999019
0.999008
0.999026
0.999133
0.998753
0.998717
0.998712
0.998814
0.998488
0.998431
0.998407
0.998499
0.999325
0.999342
0.99938
0.999446
0.999151
0.999155
0.99918
0.99924
0.998969
0.998958
0.998971
0.999024
0.998789
0.998766
0.998768
0.998814
0.999395
0.999411
0.999441
0.999485
0.999272
0.99928
0.999303
0.999342
0.999145
0.999145
0.99916
0.999194
0.999022
0.999014
0.999022
0.999051
0.999468
0.999482
0.999505
0.999536
0.99938
0.999389
0.999408
0.999436
0.999291
0.999295
0.999308
0.999333
0.999206
0.999205
0.999213
0.999235
0.99954
0.999552
0.999569
0.999592
0.999477
0.999485
0.9995
0.999521
0.999414
0.999419
0.99943
0.999449
0.999355
0.999356
0.999364
0.99938
0.99961
0.999619
0.999632
0.999649
0.999564
0.999571
0.999583
0.999598
0.99952
0.999524
0.999533
0.999547
0.999478
0.99948
0.999487
0.999499
0.999676
0.999683
0.999693
0.999705
0.999643
0.999649
0.999657
0.999669
0.999612
0.999616
0.999623
0.999633
0.999583
0.999585
0.99959
0.999599
0.999739
0.999745
0.999752
0.99976
0.999716
0.99972
0.999726
0.999735
0.999694
0.999697
0.999702
0.999709
0.999674
0.999675
0.99968
0.999686
0.9998
0.999804
0.999808
0.999814
0.999784
0.999787
0.999791
0.999797
0.999769
0.999771
0.999774
0.99978
0.999755
0.999756
0.999759
0.999764
0.999858
0.999861
0.999864
0.999868
0.999848
0.99985
0.999853
0.999856
0.999838
0.999839
0.999842
0.999845
0.999829
0.99983
0.999832
0.999835
0.999915
0.999917
0.999919
0.999921
0.99991
0.999911
0.999912
0.999914
0.999904
0.999905
0.999906
0.999908
0.999899
0.9999
0.999901
0.999902
0.999972
0.999972
0.999973
0.999974
0.99997
0.99997
0.999971
0.999972
0.999968
0.999968
0.999969
0.999969
0.999967
0.999967
0.999967
0.999968
18.1171
18.2691
18.1975
18.4049
18.1278
18.5357
18.382
18.6725
18.2503
18.2183
18.239
18.3438
18.213
18.3706
18.1512
18.3173
15.7907
15.7534
16.0672
15.8349
15.8025
15.8003
15.9793
15.9866
15.8222
15.8885
15.9695
16.0308
15.9304
15.7972
16.0181
16.0416
13.5521
13.4808
13.5731
13.2157
13.6235
13.1605
13.6244
13.3766
13.3245
13.5125
13.4716
13.8247
13.2396
13.3974
13.8091
13.3418
9.08516
9.51764
8.86474
9.13997
9.48941
9.32428
9.1126
8.76105
9.72258
9.3567
9.21437
8.84909
9.46134
9.38001
9.48131
8.76715
5.1425
5.31751
5.12562
5.02285
5.22051
5.5529
5.18413
4.53456
5.64735
5.51398
5.35445
4.61943
5.60326
5.51466
5.56563
4.41899
0.470672
1.39856
1.43229
0.209004
1.56154
1.68072
1.2185
1.05403
1.72215
1.70366
1.60987
-0.0230764
1.98788
1.51066
1.37897
1.29587
1.04958
0.998612
0.91311
0.834482
1.0077
0.982663
0.966677
0.911444
0.972617
0.997416
0.988122
1.01609
1.00236
1.00472
0.971907
0.979765
0.990918
0.986816
0.979838
0.969191
0.989341
0.986863
0.984682
0.97973
0.988193
0.986047
0.984846
0.986577
0.9874
0.985537
0.984067
0.981723
0.998102
0.99724
0.995138
1.00235
0.997188
0.995834
0.992018
0.995349
0.996509
0.99623
0.993841
0.996738
0.996578
0.996443
0.992758
0.995723
0.996239
0.995591
0.994012
0.996021
0.995957
0.995007
0.992894
0.993379
0.995797
0.995337
0.994049
0.994879
0.9957
0.995299
0.993802
0.994664
0.997358
0.996953
0.996481
0.997183
0.997228
0.996653
0.995846
0.996165
0.997141
0.996623
0.995943
0.996202
0.997133
0.996626
0.995857
0.996154
0.997854
0.997669
0.997523
0.99773
0.997753
0.997469
0.997191
0.997326
0.997682
0.997365
0.997042
0.997155
0.997631
0.997301
0.996941
0.997058
0.998322
0.998222
0.998164
0.998237
0.998249
0.998081
0.997956
0.998002
0.998197
0.997989
0.997822
0.997858
0.998167
0.997939
0.997747
0.997783
0.998673
0.99862
0.998596
0.99863
0.998619
0.998521
0.998458
0.998477
0.998581
0.998452
0.998362
0.998372
0.998558
0.998414
0.99831
0.998319
0.998942
0.998913
0.998903
0.998924
0.998903
0.998844
0.99881
0.998821
0.998876
0.998795
0.998744
0.998749
0.99886
0.998768
0.998708
0.998712
0.99915
0.999134
0.999131
0.999147
0.999123
0.999086
0.999067
0.999076
0.999104
0.999052
0.999022
0.999026
0.999093
0.999033
0.998998
0.999001
0.999316
0.999307
0.999307
0.999319
0.999297
0.999274
0.999263
0.999271
0.999283
0.99925
0.999232
0.999236
0.999275
0.999237
0.999216
0.999219
0.999451
0.999446
0.999447
0.999457
0.999437
0.999422
0.999417
0.999423
0.999427
0.999406
0.999395
0.9994
0.999422
0.999397
0.999384
0.999388
0.999563
0.999561
0.999563
0.99957
0.999554
0.999544
0.999541
0.999546
0.999547
0.999533
0.999527
0.99953
0.999543
0.999527
0.999519
0.999522
0.99966
0.999659
0.99966
0.999666
0.999653
0.999647
0.999646
0.99965
0.999649
0.999639
0.999636
0.999638
0.999646
0.999635
0.99963
0.999633
0.999745
0.999745
0.999746
0.99975
0.999741
0.999737
0.999736
0.999739
0.999738
0.999732
0.999729
0.999732
0.999736
0.999729
0.999726
0.999728
0.999823
0.999823
0.999824
0.999826
0.99982
0.999818
0.999817
0.999819
0.999818
0.999814
0.999813
0.999814
0.999817
0.999813
0.999811
0.999812
0.999896
0.999896
0.999896
0.999897
0.999894
0.999893
0.999893
0.999894
0.999893
0.999891
0.99989
0.999891
0.999892
0.99989
0.999889
0.99989
0.999966
0.999965
0.999966
0.999966
0.999965
0.999965
0.999964
0.999965
0.999965
0.999964
0.999964
0.999964
0.999964
0.999964
0.999963
0.999964
18.3609
18.1811
18.2081
17.87
18.1949
18.149
18.0306
17.806
17.7806
17.8852
17.9504
17.8473
17.9766
17.7553
17.9626
18.066
15.4376
15.3903
14.9554
15.0893
15.615
15.6511
15.4826
15.3983
15.5399
15.6848
15.5893
15.4218
15.8185
15.8375
15.8208
15.6527
12.6151
12.7456
13.5959
13.5824
13.5054
13.034
13.5147
13.8593
13.3965
13.3035
13.6819
13.7612
13.3112
13.4134
13.3478
13.411
9.1051
9.58429
10.613
10.9965
9.50683
9.70306
9.93751
10.6458
10.2656
9.8474
10.1156
10.7252
9.73019
9.90115
9.86995
10.1261
5.44743
5.25865
5.90437
6.41469
5.52986
5.7653
6.00623
6.23291
6.26096
5.85974
5.70558
5.94146
6.00871
6.07233
5.78616
5.68091
1.63575
1.56894
1.53187
1.35637
1.49675
1.88479
1.89247
1.85354
1.76626
1.96916
1.93521
2.01075
2.3068
2.05348
1.87258
1.59726
1.0172
1.02923
1.0048
1.02101
1.01085
1.00271
1.0112
0.996405
1.00269
1.009
0.99883
1.00599
0.9889
0.992214
1.0016
1.00677
0.996505
0.998299
0.998018
0.998404
0.994351
0.994472
0.995207
0.996078
0.991923
0.992293
0.992768
0.993242
0.991872
0.99104
0.990906
0.991143
1.00277
1.00278
1.00139
1.00131
1.00058
1.00011
0.999954
0.999703
0.999239
0.999293
0.998971
0.998815
0.996336
0.996614
0.997365
0.99799
0.999827
0.999957
0.999531
0.999482
0.998717
0.998688
0.998613
0.998572
0.997746
0.997836
0.997778
0.997757
0.996337
0.996426
0.996585
0.996791
0.999669
0.999614
0.999469
0.999409
0.999016
0.99893
0.998886
0.998866
0.998462
0.998413
0.998361
0.998344
0.997647
0.997642
0.997706
0.997786
0.999409
0.999384
0.999328
0.999299
0.998964
0.998943
0.998923
0.99891
0.998584
0.998562
0.998543
0.998544
0.998033
0.998054
0.998092
0.998149
0.999338
0.999322
0.999295
0.999277
0.99904
0.999025
0.999019
0.999025
0.998776
0.998761
0.998758
0.998771
0.998448
0.998452
0.998475
0.998516
0.999343
0.999333
0.999323
0.99932
0.999145
0.999138
0.999138
0.999147
0.998957
0.99895
0.998954
0.998971
0.998745
0.99875
0.998767
0.998799
0.999388
0.999384
0.999382
0.999386
0.999254
0.999251
0.999253
0.999264
0.999122
0.999119
0.999125
0.999141
0.998983
0.998987
0.999001
0.999024
0.999452
0.999451
0.999452
0.999458
0.999359
0.999357
0.999361
0.999371
0.999266
0.999265
0.999271
0.999285
0.999174
0.999177
0.999187
0.999205
0.999522
0.999522
0.999525
0.999531
0.999456
0.999456
0.99946
0.999469
0.999391
0.999392
0.999397
0.999408
0.999329
0.999332
0.99934
0.999352
0.999593
0.999594
0.999597
0.999602
0.999546
0.999546
0.99955
0.999557
0.9995
0.999501
0.999505
0.999514
0.999458
0.99946
0.999466
0.999475
0.999662
0.999663
0.999665
0.99967
0.999628
0.999629
0.999632
0.999638
0.999596
0.999597
0.999601
0.999607
0.999567
0.999569
0.999573
0.99958
0.999728
0.999729
0.999731
0.999734
0.999704
0.999705
0.999707
0.999712
0.999682
0.999683
0.999685
0.99969
0.999662
0.999663
0.999667
0.999672
0.999792
0.999792
0.999794
0.999796
0.999775
0.999776
0.999777
0.999781
0.99976
0.999761
0.999762
0.999766
0.999747
0.999748
0.99975
0.999753
0.999853
0.999853
0.999854
0.999856
0.999842
0.999843
0.999844
0.999846
0.999833
0.999833
0.999834
0.999836
0.999824
0.999825
0.999826
0.999828
0.999912
0.999913
0.999913
0.999914
0.999906
0.999907
0.999907
0.999908
0.999901
0.999901
0.999902
0.999903
0.999896
0.999897
0.999897
0.999899
0.999971
0.999971
0.999971
0.999971
0.999969
0.999969
0.999969
0.99997
0.999967
0.999967
0.999967
0.999968
0.999966
0.999966
0.999966
0.999966
)
;

boundaryField
{
    inlet
    {
        type            zeroGradient;
    }
    outlet
    {
        type            fixedValue;
        value           uniform 1;
    }
    wall
    {
        type            zeroGradient;
    }
    procBoundary2to0
    {
        type            processor;
        value           nonuniform List<scalar> 
192
(
17.4863
17.2438
17.3672
17.4091
14.8974
14.8092
14.9497
14.8629
13.396
12.8196
13.281
12.8323
10.8243
11.5545
10.8576
10.3884
5.74486
7.29933
7.18926
7.56394
2.06934
2.23011
2.72766
3.0378
1.03795
1.00668
0.997988
0.997146
0.998744
0.998313
0.997888
0.998209
1.00186
1.00011
0.99903
1.00062
0.999957
0.999665
0.99952
1.00037
0.999717
0.999665
0.999702
1.00011
0.999529
0.999547
0.999619
0.999821
0.999471
0.999504
0.999566
0.99968
0.999473
0.999503
0.999551
0.999622
0.999503
0.999528
0.999564
0.999611
0.999548
0.999567
0.999594
0.999628
0.999599
0.999614
0.999634
0.999659
0.999653
0.999665
0.99968
0.999697
0.999707
0.999716
0.999727
0.99974
0.999762
0.999768
0.999776
0.999785
0.999816
0.99982
0.999826
0.999832
0.999869
0.999872
0.999875
0.99988
0.999921
0.999923
0.999925
0.999927
0.999974
0.999974
0.999975
0.999976
17.9484
17.5906
17.3954
17.5501
14.974
14.7708
13.5918
14.7874
13.1634
13.2809
14.5932
13.6884
9.34927
9.56843
12.8695
10.7684
5.47946
5.26868
6.01167
6.07669
1.84292
1.80962
1.571
1.73668
1.00869
1.01634
1.02286
1.02303
0.99775
0.997879
0.998273
0.99827
1.00186
1.00228
1.00228
1.00221
0.999703
0.999936
0.99994
0.999957
0.999749
0.999766
0.999749
0.999733
0.999547
0.999567
0.999546
0.999528
0.99948
0.999483
0.999473
0.999465
0.999468
0.999468
0.999464
0.999463
0.99949
0.99949
0.99949
0.999492
0.999531
0.999532
0.999534
0.999537
0.999582
0.999584
0.999586
0.99959
0.999638
0.999639
0.999641
0.999645
0.999695
0.999696
0.999698
0.999701
0.999752
0.999753
0.999755
0.999757
0.999808
0.999809
0.99981
0.999812
0.999864
0.999864
0.999865
0.999867
0.999919
0.999919
0.999919
0.99992
0.999973
0.999973
0.999973
0.999973
)
;
    }
    procBoundary2to3
    {
        type            processor;
        value           nonuniform List<scalar> 
192
(
17.2327
17.4443
18.0296
18.2885
15.1098
15.2705
15.6112
15.8289
13.125
12.8348
13.3833
13.4576
11.9674
11.2853
9.98897
9.32628
5.41118
5.90543
5.66809
4.87412
3.43152
2.69649
2.09166
1.8498
1.00478
1.00703
0.998513
0.992693
0.995221
0.993118
0.987402
0.986415
1.00067
0.998974
0.998566
0.994037
1.00009
0.998856
0.997688
0.995529
0.999805
0.999054
0.998172
0.997147
0.999607
0.999129
0.998572
0.998009
0.99953
0.999217
0.998873
0.998534
0.999518
0.999306
0.999081
0.998862
0.999536
0.999391
0.999239
0.999091
0.999573
0.999471
0.999366
0.999265
0.999618
0.999546
0.999473
0.999403
0.999668
0.999616
0.999565
0.999516
0.999719
0.999682
0.999646
0.999611
0.99977
0.999744
0.999719
0.999695
0.999821
0.999804
0.999786
0.99977
0.999873
0.999861
0.99985
0.999839
0.999924
0.999917
0.999911
0.999905
0.999974
0.999972
0.99997
0.999968
18.3195
18.3557
17.9808
17.486
16.1465
16.0152
16.173
16.3277
13.3513
13.639
13.796
14.2465
9.05128
9.41805
9.44027
9.20798
4.50193
4.84088
4.71614
5.56392
1.48997
0.695499
1.31695
1.33547
0.909491
0.992617
0.989846
0.9842
0.979466
0.985903
0.984993
0.9824
0.994667
0.992054
0.993435
0.993314
0.994652
0.99339
0.994057
0.993899
0.996644
0.996026
0.995933
0.995892
0.997638
0.997281
0.997092
0.996989
0.998259
0.998026
0.997873
0.99779
0.998671
0.998516
0.998408
0.998349
0.998961
0.998857
0.998783
0.998743
0.999176
0.999106
0.999055
0.999028
0.999341
0.999293
0.999259
0.999241
0.999473
0.99944
0.999417
0.999404
0.999582
0.999559
0.999543
0.999534
0.999675
0.999659
0.999648
0.999642
0.999756
0.999745
0.999738
0.999734
0.99983
0.999823
0.999819
0.999816
0.9999
0.999896
0.999893
0.999892
0.999967
0.999966
0.999965
0.999964
)
;
    }
}


// ************************************************************************* //
