/*--------------------------------*- C++ -*----------------------------------*\
| =========                 |                                                 |
| \\      /  F ield         | OpenFOAM: The Open Source CFD Toolbox           |
|  \\    /   O peration     | Version:  2506                                  |
|   \\  /    A nd           | Website:  www.openfoam.com                      |
|    \\/     M anipulation  |                                                 |
\*---------------------------------------------------------------------------*/
FoamFile
{
    version     2.0;
    format      ascii;
    arch        "LSB;label=32;scalar=64";
    class       volVectorField;
    location    "0.1";
    object      Us;
}
// * * * * * * * * * * * * * * * * * * * * * * * * * * * * * * * * * * * * * //

dimensions      [0 1 -1 0 0 0 0];

internalField   nonuniform List<vector> 
1152
(
(0.000157632 -4.48898e-05 0.000420172)
(-4.41699e-05 -0.00020944 5.37997e-05)
(-9.34734e-06 0.000240664 -0.000176306)
(0.000100365 0.000135927 -0.000316487)
(9.6633e-05 0.000314106 0.000235512)
(-1.11623e-05 0.000135297 0.000198332)
(-0.000218597 0.000663655 -9.16145e-05)
(-1.509e-05 0.0005116 -0.000221358)
(0.000131784 0.000393641 0.000100564)
(-0.000113331 0.000999925 -0.000376788)
(0.000222929 0.00101956 -0.000233736)
(0.000480851 0.000528951 5.57538e-05)
(-0.000136966 -5.83791e-05 0.000584234)
(-0.00292471 0.00233982 -0.000677182)
(-7.43808e-05 -9.15277e-05 -0.000752952)
(0.000768988 -0.000554732 0.000190809)
(-0.000787922 -0.000965077 0.00821038)
(-0.000100654 -0.000992636 0.00526098)
(0.000420752 -0.000394169 0.00714972)
(-0.00046669 -0.00116454 0.00435642)
(0.000296832 -0.00152121 0.00387088)
(0.000514309 -0.00323009 0.00754096)
(-0.000416371 -0.000878153 0.00539116)
(-0.000801395 -0.000950013 0.0063841)
(-0.000349118 -0.00167997 0.00469851)
(-0.000506577 -0.00147679 0.00615867)
(-0.000378163 -0.00123827 0.00467926)
(-0.00106892 -0.002477 0.010069)
(-0.000828243 -0.00288321 0.0103988)
(-0.00183252 -0.00189454 0.00848004)
(-0.000356636 -0.00224771 0.00693235)
(-0.000482812 -0.00184918 0.00883127)
(-0.00109511 -0.0012395 0.0143551)
(8.31702e-05 4.82669e-05 0.0101949)
(-0.000202385 0.000271766 0.0124329)
(-0.00101381 0.000200224 0.0134386)
(0.000811664 -0.00186414 0.0155153)
(0.000376437 -0.00171357 0.0130123)
(-0.000394264 -0.000715609 0.0117335)
(-0.000178033 -0.00035387 0.013636)
(0.00122174 -0.0022196 0.0118853)
(0.000719793 -0.0015547 0.0125737)
(-0.000816196 -0.00144978 0.0117914)
(-0.000615073 -0.00166733 0.0131332)
(-0.000557088 -0.00135838 0.0132832)
(0.000831727 -0.0017621 0.0116503)
(-0.000371401 -0.00198489 0.0104384)
(0.000190723 -0.00153356 0.0123786)
(-0.000232637 -0.000403493 0.0159037)
(-0.000588617 -0.000200473 0.0162569)
(-0.00191823 -0.000672663 0.0156041)
(-0.00196068 -4.16161e-05 0.0160663)
(-8.83396e-05 -0.00164131 0.0150105)
(0.00023605 -0.00141337 0.0139277)
(-0.000780352 -0.000783004 0.0133183)
(-0.000611337 -0.000805767 0.014901)
(-0.000294822 -0.00136266 0.0138416)
(-0.000290429 -0.00129991 0.0133153)
(-0.000783705 -0.00207973 0.012151)
(0.000363587 -0.00155219 0.0123841)
(-0.00164342 -0.00171166 0.0130855)
(-0.00129847 -0.00256735 0.0123536)
(-0.00074195 -0.00182543 0.0102367)
(0.000320826 -0.00170739 0.0112436)
(0.000187003 0.000186162 0.01519)
(-0.000611778 -0.000233763 0.0155973)
(-0.000990338 -7.53137e-06 0.0147743)
(-0.000581298 -0.00055454 0.0147195)
(0.000125567 0.00013061 0.0142306)
(-0.000629354 -0.000726621 0.0143531)
(-0.000703423 -0.00107347 0.0137652)
(0.000142433 -0.000349286 0.0135896)
(-0.000686884 -0.000226413 0.0130255)
(-0.000931588 -0.000891841 0.0133865)
(-0.00083861 -0.00204562 0.0128884)
(-0.00012612 -0.00131306 0.0131253)
(-0.000831565 -0.000695938 0.0129046)
(-0.000843101 -0.00124772 0.0115759)
(-0.000407879 -0.00171543 0.0113936)
(-7.47592e-05 -0.00179193 0.0120349)
(0.000711847 0.00116281 0.0145239)
(9.14503e-05 0.00102975 0.0140639)
(-0.0004344 0.000816606 0.0139599)
(0.000116529 -0.000211147 0.0133734)
(-0.000202826 0.00079756 0.0141681)
(-5.1555e-05 0.000605904 0.0138628)
(-0.000143132 -0.000726008 0.0133214)
(0.000175161 -0.0020201 0.0127644)
(0.000378983 0.000691028 0.0126577)
(0.000542132 0.000770837 0.0126524)
(0.000309111 -0.00103651 0.0121446)
(0.000147019 -0.00144063 0.0128343)
(0.00011184 0.00128242 0.0118253)
(-0.000454323 0.000606945 0.0113845)
(-0.000981519 0.000104244 0.0124868)
(-0.000383887 -0.000273821 0.0132247)
(0.000802013 0.00238504 0.013918)
(0.00105219 0.0012076 0.0129187)
(9.86511e-05 0.00114961 0.0129243)
(0.000984513 0.00170695 0.0129906)
(0.00108704 0.00225532 0.0131365)
(0.000875825 0.00172338 0.0126583)
(0.000456564 0.00055141 0.0131791)
(0.000519116 0.000236373 0.0130794)
(0.000328086 0.00260867 0.0117576)
(0.000359493 0.00199067 0.0118923)
(0.000212473 2.15026e-06 0.012251)
(-0.000899388 -0.000684126 0.0133117)
(0.000465933 0.00153098 0.0111057)
(0.000690077 0.000657817 0.0105156)
(-8.04811e-05 0.000818927 0.0132375)
(-0.000162862 0.000859 0.0127561)
(0 0 0)
(0 0 0)
(-2.09688e-18 -1.28771e-19 -1.08128e-17)
(0.00199956 0.000732028 0.0130898)
(0 0 0)
(-3.23645e-05 0.00065448 0.0124733)
(0.00182885 0.00079619 0.0132653)
(0 0 0)
(0 0 0)
(0 0 0)
(0 0 0)
(0 0 0)
(0 0 0)
(0 0 0)
(0 0 0)
(0.0009882 0.00125387 0.0127089)
(0 0 0)
(0 0 0)
(0 0 0)
(0 0 0)
(0 0 0)
(0 0 0)
(0 0 0)
(0 0 0)
(0 0 0)
(0 0 0)
(0 0 0)
(0 0 0)
(0 0 0)
(0 0 0)
(0 0 0)
(0 0 0)
(0 0 0)
(0 0 0)
(0 0 0)
(0 0 0)
(0 0 0)
(0 0 0)
(0 0 0)
(0 0 0)
(0 0 0)
(0 0 0)
(0 0 0)
(0 0 0)
(0 0 0)
(0 0 0)
(0 0 0)
(0 0 0)
(0 0 0)
(0 0 0)
(0 0 0)
(0 0 0)
(0 0 0)
(0 0 0)
(0 0 0)
(0 0 0)
(0 0 0)
(0 0 0)
(0 0 0)
(0 0 0)
(0 0 0)
(0 0 0)
(0 0 0)
(0 0 0)
(0 0 0)
(0 0 0)
(0 0 0)
(0 0 0)
(0 0 0)
(0 0 0)
(0 0 0)
(0 0 0)
(0 0 0)
(0 0 0)
(0 0 0)
(0 0 0)
(0 0 0)
(0 0 0)
(0 0 0)
(0 0 0)
(0 0 0)
(0 0 0)
(0 0 0)
(0 0 0)
(0 0 0)
(0 0 0)
(0 0 0)
(0 0 0)
(0 0 0)
(0 0 0)
(0 0 0)
(0 0 0)
(0 0 0)
(0 0 0)
(0 0 0)
(0 0 0)
(0 0 0)
(0 0 0)
(0 0 0)
(0 0 0)
(0 0 0)
(0 0 0)
(0 0 0)
(0 0 0)
(0 0 0)
(0 0 0)
(0 0 0)
(0 0 0)
(0 0 0)
(0 0 0)
(0 0 0)
(0 0 0)
(0 0 0)
(0 0 0)
(0 0 0)
(0 0 0)
(0 0 0)
(0 0 0)
(0 0 0)
(0 0 0)
(0 0 0)
(0 0 0)
(0 0 0)
(0 0 0)
(0 0 0)
(0 0 0)
(0 0 0)
(0 0 0)
(0 0 0)
(0 0 0)
(0 0 0)
(0 0 0)
(0 0 0)
(0 0 0)
(0 0 0)
(0 0 0)
(0 0 0)
(0 0 0)
(0 0 0)
(0 0 0)
(0 0 0)
(0 0 0)
(0 0 0)
(0 0 0)
(0 0 0)
(0 0 0)
(0 0 0)
(0 0 0)
(0 0 0)
(0 0 0)
(0 0 0)
(0 0 0)
(0 0 0)
(0 0 0)
(0 0 0)
(0 0 0)
(0 0 0)
(0 0 0)
(0 0 0)
(0 0 0)
(0 0 0)
(0 0 0)
(0 0 0)
(0 0 0)
(0 0 0)
(0 0 0)
(0 0 0)
(0 0 0)
(0 0 0)
(0 0 0)
(0 0 0)
(0 0 0)
(0 0 0)
(0 0 0)
(0 0 0)
(0 0 0)
(0 0 0)
(0 0 0)
(0 0 0)
(0 0 0)
(0 0 0)
(0 0 0)
(0 0 0)
(0 0 0)
(0 0 0)
(0 0 0)
(0 0 0)
(0 0 0)
(0 0 0)
(0 0 0)
(0 0 0)
(0 0 0)
(0 0 0)
(0 0 0)
(0 0 0)
(0 0 0)
(0 0 0)
(0 0 0)
(0 0 0)
(0 0 0)
(0 0 0)
(0 0 0)
(0 0 0)
(0 0 0)
(0 0 0)
(0 0 0)
(0 0 0)
(0 0 0)
(0 0 0)
(0 0 0)
(0 0 0)
(0 0 0)
(0 0 0)
(0 0 0)
(0 0 0)
(0 0 0)
(0 0 0)
(0 0 0)
(0 0 0)
(0 0 0)
(0 0 0)
(0 0 0)
(0 0 0)
(0 0 0)
(0 0 0)
(0 0 0)
(0 0 0)
(0 0 0)
(0 0 0)
(0 0 0)
(0 0 0)
(0 0 0)
(0 0 0)
(0 0 0)
(0 0 0)
(0 0 0)
(0 0 0)
(0 0 0)
(0 0 0)
(0 0 0)
(0 0 0)
(0 0 0)
(0 0 0)
(0 0 0)
(0 0 0)
(0 0 0)
(0 0 0)
(0 0 0)
(0 0 0)
(0 0 0)
(0 0 0)
(0 0 0)
(0 0 0)
(0 0 0)
(0 0 0)
(0 0 0)
(0 0 0)
(0 0 0)
(0 0 0)
(0 0 0)
(0 0 0)
(0 0 0)
(0 0 0)
(0 0 0)
(0 0 0)
(0 0 0)
(0 0 0)
(0 0 0)
(0 0 0)
(0 0 0)
(0 0 0)
(0 0 0)
(4.14227e-05 -0.000226879 -0.000104211)
(-9.20607e-05 0.000141993 -6.09405e-05)
(0.000303317 -0.000386314 -0.00132512)
(-0.000203787 -0.000155431 -0.000114058)
(-9.0374e-05 -0.000442189 -1.5508e-05)
(0.000338281 -8.69793e-05 -0.000262757)
(0.000599705 -0.000385143 -0.000709159)
(-0.000135947 0.000128736 -0.000498671)
(-0.000131357 -0.000314048 -0.000342793)
(0.000149246 6.8044e-05 -0.000161685)
(3.79806e-05 0.000265822 -0.000415706)
(-0.000333313 0.000517378 -0.000267205)
(-0.000479915 -0.000562995 -0.000685802)
(0.00025831 2.05718e-05 -0.000159813)
(-9.98411e-05 0.000120978 -9.90583e-06)
(0.00110365 0.000306794 -0.000249064)
(-0.000390455 -0.00148254 0.00468987)
(-0.000607744 -0.00183066 0.00933919)
(0.000127967 -0.00199913 0.00829054)
(-0.000557176 -0.00191542 0.00970838)
(0.000720027 -0.000423081 0.00842037)
(0.000544674 -0.00121811 0.00679361)
(0.000414738 -0.000859216 0.00667391)
(0.000207437 -0.00159655 0.00744683)
(0.000205567 -0.000108796 0.00697722)
(-0.000533428 -0.000882738 0.0107355)
(1.5498e-06 -0.000868623 0.00816403)
(-0.00120357 -0.00190894 0.00794529)
(0.000750419 -0.00088805 0.00663011)
(-0.000307806 -0.000592887 0.00996312)
(-0.00064205 -0.000333231 0.0103871)
(-0.000847573 -0.000494618 0.00466274)
(0.00090103 -0.000671446 0.0120762)
(0.000150504 -0.00156797 0.0104433)
(-0.0003735 -0.00229071 0.0101199)
(0.00022255 -0.0018022 0.00930287)
(0.000209251 -0.000337849 0.0103618)
(0.000611535 -0.00133297 0.0101694)
(0.000348377 -0.00164027 0.0101708)
(-0.00010742 -0.00218135 0.0097941)
(0.000260649 0.000283565 0.0109372)
(0.000398418 -0.0016305 0.0113049)
(-0.000217629 -0.0008979 0.0106003)
(-0.00148784 -0.00191934 0.00995517)
(0.000411697 0.0005477 0.0109487)
(-0.000136117 -0.00084911 0.0111739)
(-6.52107e-05 2.07259e-05 0.0109149)
(-0.00103707 -0.000518036 0.0107577)
(-0.000355704 -0.00184446 0.0111473)
(-7.67279e-05 -0.00134183 0.0116703)
(-0.000647158 -0.00140425 0.00961714)
(0.000149201 -0.000788574 0.00858991)
(0.00100087 -0.00114818 0.0107297)
(-0.000272319 -0.000508006 0.0107379)
(-0.0010052 -0.00120283 0.00957409)
(-0.000601265 -0.000858313 0.0100661)
(0.00115863 -0.000692835 0.0111251)
(-0.000979726 -0.00122688 0.0108044)
(-0.00118921 -0.000961559 0.00966782)
(-0.00101082 -0.000619254 0.00977142)
(0.00148044 0.000228363 0.0112254)
(0.000783158 0.000241401 0.009682)
(0.000287607 0.000576029 0.0103294)
(-0.00161899 -0.000388396 0.00982781)
(1.72504e-05 -0.000734081 0.0119899)
(-0.00156364 -0.000482445 0.0110473)
(0.000329238 -0.000331716 0.0110311)
(-0.00113286 -0.000488976 0.0100887)
(0.000960089 -0.000427772 0.0114727)
(-0.00124816 0.000707832 0.0104821)
(-0.00179416 0.000841297 0.0106776)
(-0.000227461 0.000562605 0.0106286)
(0.00148398 -0.000618749 0.0124946)
(0.000351735 0.000605857 0.0102131)
(-0.000872301 0.000636098 0.00920674)
(-0.000272995 0.000446782 0.00887483)
(0.000811532 0.00152245 0.0104245)
(-0.000102911 0.000646237 0.00982606)
(-0.000705165 0.000653651 0.00887775)
(-0.00053517 -8.31714e-05 0.00726729)
(0.000383662 0.000629109 0.0116172)
(-0.000216534 0.000761054 0.0111722)
(-0.000800501 0.000975329 0.0129923)
(-6.36715e-05 0.000730467 0.0122051)
(0.000994862 0.000494509 0.011209)
(0.000195454 0.00116017 0.0110337)
(-4.31702e-05 0.00218094 0.0119781)
(0.000623924 0.00204022 0.0115832)
(0.00128849 0.00114574 0.0113095)
(0.00102697 0.000556274 0.00890598)
(-0.000853854 0.00181927 0.00981013)
(0.000320213 0.00242766 0.00928667)
(0.000800833 0.000883107 0.00890605)
(0.00069987 0.000336889 0.00883841)
(-0.000262978 0.000501463 0.00784998)
(-0.000588965 -0.00018775 0.00719116)
(0.00154462 0.000145825 0.0109267)
(0.000572869 0.000347625 0.0113271)
(-0.000973568 0.00208548 0.0137322)
(0.00117866 0.00247846 0.0135926)
(0.00286663 -0.000210436 0.0114052)
(0.00174763 -0.000638431 0.00970152)
(6.04308e-05 0.00156824 0.0122837)
(4.5212e-05 0.00341015 0.0108647)
(0.00319429 0.000352133 0.00975012)
(0.00167126 -0.000323933 0.00846045)
(-7.95842e-05 0.000934581 0.0105837)
(0.00141219 0.00119774 0.00860634)
(0.00203634 0.00104313 0.00667714)
(0.000622427 0.000647924 0.00774411)
(-0.000302186 0.00013839 0.00801926)
(0.00208009 0.00152906 0.00658046)
(0 0 0)
(0 0 0)
(0 0 0)
(0 0 0)
(0 0 0)
(0 0 0)
(0 0 0)
(0 0 0)
(0 0 0)
(0 0 0)
(0 0 0)
(0 0 0)
(0 0 0)
(0 0 0)
(0 0 0)
(0 0 0)
(0 0 0)
(0 0 0)
(0 0 0)
(0 0 0)
(0 0 0)
(0 0 0)
(0 0 0)
(0 0 0)
(0 0 0)
(0 0 0)
(0 0 0)
(0 0 0)
(0 0 0)
(0 0 0)
(0 0 0)
(0 0 0)
(0 0 0)
(0 0 0)
(0 0 0)
(0 0 0)
(0 0 0)
(0 0 0)
(0 0 0)
(0 0 0)
(0 0 0)
(0 0 0)
(0 0 0)
(0 0 0)
(0 0 0)
(0 0 0)
(0 0 0)
(0 0 0)
(0 0 0)
(0 0 0)
(0 0 0)
(0 0 0)
(0 0 0)
(0 0 0)
(0 0 0)
(0 0 0)
(0 0 0)
(0 0 0)
(0 0 0)
(0 0 0)
(0 0 0)
(0 0 0)
(0 0 0)
(0 0 0)
(0 0 0)
(0 0 0)
(0 0 0)
(0 0 0)
(0 0 0)
(0 0 0)
(0 0 0)
(0 0 0)
(0 0 0)
(0 0 0)
(0 0 0)
(0 0 0)
(0 0 0)
(0 0 0)
(0 0 0)
(0 0 0)
(0 0 0)
(0 0 0)
(0 0 0)
(0 0 0)
(0 0 0)
(0 0 0)
(0 0 0)
(0 0 0)
(0 0 0)
(0 0 0)
(0 0 0)
(0 0 0)
(0 0 0)
(0 0 0)
(0 0 0)
(0 0 0)
(0 0 0)
(0 0 0)
(0 0 0)
(0 0 0)
(0 0 0)
(0 0 0)
(0 0 0)
(0 0 0)
(0 0 0)
(0 0 0)
(0 0 0)
(0 0 0)
(0 0 0)
(0 0 0)
(0 0 0)
(0 0 0)
(0 0 0)
(0 0 0)
(0 0 0)
(0 0 0)
(0 0 0)
(0 0 0)
(0 0 0)
(0 0 0)
(0 0 0)
(0 0 0)
(0 0 0)
(0 0 0)
(0 0 0)
(0 0 0)
(0 0 0)
(0 0 0)
(0 0 0)
(0 0 0)
(0 0 0)
(0 0 0)
(0 0 0)
(0 0 0)
(0 0 0)
(0 0 0)
(0 0 0)
(0 0 0)
(0 0 0)
(0 0 0)
(0 0 0)
(0 0 0)
(0 0 0)
(0 0 0)
(0 0 0)
(0 0 0)
(0 0 0)
(0 0 0)
(0 0 0)
(0 0 0)
(0 0 0)
(0 0 0)
(0 0 0)
(0 0 0)
(0 0 0)
(0 0 0)
(0 0 0)
(0 0 0)
(0 0 0)
(0 0 0)
(0 0 0)
(0 0 0)
(0 0 0)
(0 0 0)
(0 0 0)
(0 0 0)
(0 0 0)
(0 0 0)
(0 0 0)
(0 0 0)
(0 0 0)
(0 0 0)
(0 0 0)
(0 0 0)
(0 0 0)
(0 0 0)
(0 0 0)
(0 0 0)
(0 0 0)
(0 0 0)
(0 0 0)
(0 0 0)
(0 0 0)
(0 0 0)
(0 0 0)
(0 0 0)
(0 0 0)
(0 0 0)
(0 0 0)
(0 0 0)
(0 0 0)
(0 0 0)
(0 0 0)
(0 0 0)
(0 0 0)
(0 0 0)
(0 0 0)
(0 0 0)
(0 0 0)
(0 0 0)
(0 0 0)
(0 0 0)
(0 0 0)
(0 0 0)
(0 0 0)
(0 0 0)
(0 0 0)
(0 0 0)
(0 0 0)
(0 0 0)
(0 0 0)
(0 0 0)
(0 0 0)
(0 0 0)
(0 0 0)
(0 0 0)
(0 0 0)
(0 0 0)
(0 0 0)
(0 0 0)
(0 0 0)
(0 0 0)
(0 0 0)
(0 0 0)
(0 0 0)
(0 0 0)
(0 0 0)
(0 0 0)
(0 0 0)
(0 0 0)
(0 0 0)
(0 0 0)
(0 0 0)
(0 0 0)
(0 0 0)
(0 0 0)
(0 0 0)
(0 0 0)
(0 0 0)
(0 0 0)
(0 0 0)
(0 0 0)
(0 0 0)
(0 0 0)
(0 0 0)
(0 0 0)
(0 0 0)
(0 0 0)
(0 0 0)
(0 0 0)
(0 0 0)
(0 0 0)
(0 0 0)
(0 0 0)
(0 0 0)
(0 0 0)
(0 0 0)
(0 0 0)
(0 0 0)
(0 0 0)
(0 0 0)
(0 0 0)
(0 0 0)
(0 0 0)
(0 0 0)
(0 0 0)
(0 0 0)
(0 0 0)
(0 0 0)
(0 0 0)
(0 0 0)
(0 0 0)
(0.000463432 0.00130066 -0.000970722)
(0.000200341 0.00031983 0.000139257)
(1.4921e-05 0.000364005 0.000276064)
(0.00026159 0.000493466 0.000244008)
(8.48603e-06 5.27509e-05 -0.000172378)
(-0.000247574 0.000515101 3.41545e-05)
(0.000329583 0.000464677 0.0003105)
(0.000354442 0.000811107 0.000129841)
(4.64129e-05 5.79632e-05 -6.62325e-05)
(-0.000111205 0.000328411 0.00012635)
(3.55764e-05 0.000143519 -4.45974e-05)
(0.000178527 0.000397988 0.000121796)
(-9.60414e-05 -0.000159359 -0.000129336)
(-1.86563e-05 0.000307418 0.000262255)
(-0.000291731 4.79489e-05 0.00015346)
(-5.93667e-05 0.000154672 8.84235e-05)
(0.000486203 0.000859909 0.00483715)
(0.00111219 0.000245523 0.00594232)
(0.000770558 -0.000316249 0.00472061)
(-0.000571568 -0.000491755 0.00523277)
(0.000340009 -7.69955e-05 0.00903503)
(0.000289316 -5.43831e-05 0.00560351)
(0.000711406 -0.00113232 0.00873528)
(0.00102263 -0.000633116 0.0058231)
(-0.000524308 -3.07637e-05 0.0102115)
(-0.00158088 -0.000564582 0.0078046)
(-8.01777e-05 -0.00159441 0.00921188)
(0.000453489 -0.00147882 0.00620725)
(-0.000269348 -0.000723716 0.00771285)
(0.000588044 -0.00102496 0.00770135)
(0.00057115 -0.00115484 0.00332718)
(-0.000281055 -0.00139273 0.00387177)
(0.000471114 0.000595455 0.0106827)
(-0.000208161 -0.000117882 0.0128951)
(-0.00136491 0.000444251 0.013038)
(-0.00137296 -0.000976566 0.0144331)
(0.00155472 -0.00145604 0.0120923)
(0.000475945 -0.001894 0.0126903)
(3.44134e-05 -0.00106394 0.0117562)
(-0.000584183 -0.00228766 0.0105285)
(-0.000151775 0.00103831 0.0135131)
(-0.000459328 -0.00103421 0.0131977)
(-0.00017054 -0.00145201 0.0108681)
(0.00135968 -0.00114297 0.00880752)
(0.000120384 0.000956816 0.0104364)
(-6.85618e-05 -0.000569061 0.0121254)
(0.00048199 -0.000642677 0.0118664)
(0.000263639 -0.00139825 0.0109446)
(0.00152392 -0.000958406 0.0118238)
(3.64927e-05 -0.000708862 0.0144675)
(0.000156795 -0.000310688 0.0145078)
(-0.000698726 -0.00165716 0.0163335)
(4.93099e-05 -0.000697751 0.0119217)
(0.000526995 -0.0010501 0.0125856)
(0.000303298 -0.00167863 0.013405)
(0.00111873 -0.000775473 0.0145155)
(0.00227104 -0.000647817 0.0102596)
(0.00165542 -0.000353521 0.012198)
(0.00171258 -0.00123064 0.0120908)
(0.000822317 -0.00187529 0.0123447)
(0.000791692 0.000941601 0.0118396)
(0.00176243 0.000551875 0.0120926)
(0.000560887 -0.000575807 0.0111039)
(-0.000433567 -0.00103119 0.0119646)
(-0.000942442 -0.00048568 0.0104784)
(0.000261946 0.000463635 0.013388)
(-0.000220795 1.21681e-05 0.0142301)
(0.000252216 0.000639424 0.015159)
(0.000292077 0.000679795 0.0106367)
(0.00149918 0.000149779 0.0115306)
(0.000509514 6.46896e-05 0.0142054)
(0.000421706 0.000292094 0.0138578)
(0.00154148 0.000410293 0.0113639)
(0.00236092 -0.000443092 0.0112491)
(0.00202893 0.000109912 0.0119372)
(0.000384661 7.63711e-05 0.01265)
(0.000692223 -2.5658e-05 0.00975507)
(0.0017346 0.00079285 0.0116314)
(0.00087564 0.000326902 0.0120807)
(0.000215956 -0.000235131 0.0123096)
(-0.000735404 -0.000655254 0.00888541)
(-0.00136256 0.000305965 0.0124177)
(-0.000525035 0.00157182 0.0131455)
(0.000248633 0.00119995 0.0138269)
(-0.0002521 -0.000624657 0.00911281)
(-0.000507544 -2.19348e-05 0.0104627)
(0.000850033 0.00185815 0.0117841)
(0.000489096 0.000735302 0.0135136)
(0.000887737 0.000334014 0.00913355)
(0.00171313 -0.000229169 0.00969836)
(0.00190824 0.000979254 0.0113214)
(0.000688059 0.000866847 0.0126498)
(0.000381353 -0.000395467 0.00860025)
(0.00203355 0.000601565 0.01092)
(0.00128764 0.000852645 0.0120032)
(0.000636892 0.000656137 0.0119981)
(-0.00116676 0.000868041 0.00688324)
(0.000285556 0.000180364 0.0104911)
(-0.000584188 0.00199167 0.0116557)
(7.53588e-06 0.00220512 0.0130876)
(-0.000620532 -0.000376032 0.00939564)
(-0.00209484 -0.000450764 0.00879169)
(-0.00108003 0.00213886 0.00996038)
(0.00018101 0.00154648 0.0121996)
(0.000233464 -0.000342091 0.00768177)
(-0.000618003 -0.00127076 0.00971948)
(-0.000227827 0.000337711 0.0118708)
(0.000843214 0.00116942 0.0122755)
(-0.000957619 -0.000125192 0.00796281)
(-0.000736137 1.81433e-05 0.00984135)
(0.000638738 0.00109523 0.0101084)
(0.000636002 0.00144582 0.0114923)
(0 0 0)
(0 0 0)
(0 0 0)
(0 0 0)
(0 0 0)
(0 0 0)
(0 0 0)
(0 0 0)
(0 0 0)
(0 0 0)
(0 0 0)
(0 0 0)
(-0.00265194 0.0035983 0.00921619)
(0 0 0)
(0 0 0)
(0 0 0)
(0 0 0)
(0 0 0)
(0 0 0)
(0 0 0)
(0 0 0)
(0 0 0)
(0 0 0)
(0 0 0)
(0 0 0)
(0 0 0)
(0 0 0)
(0 0 0)
(0 0 0)
(0 0 0)
(0 0 0)
(0 0 0)
(0 0 0)
(0 0 0)
(0 0 0)
(0 0 0)
(0 0 0)
(0 0 0)
(0 0 0)
(0 0 0)
(0 0 0)
(0 0 0)
(0 0 0)
(0 0 0)
(0 0 0)
(0 0 0)
(0 0 0)
(0 0 0)
(0 0 0)
(0 0 0)
(0 0 0)
(0 0 0)
(0 0 0)
(0 0 0)
(0 0 0)
(0 0 0)
(0 0 0)
(0 0 0)
(0 0 0)
(0 0 0)
(0 0 0)
(0 0 0)
(0 0 0)
(0 0 0)
(0 0 0)
(0 0 0)
(0 0 0)
(0 0 0)
(0 0 0)
(0 0 0)
(0 0 0)
(0 0 0)
(0 0 0)
(0 0 0)
(0 0 0)
(0 0 0)
(0 0 0)
(0 0 0)
(0 0 0)
(0 0 0)
(0 0 0)
(0 0 0)
(0 0 0)
(0 0 0)
(0 0 0)
(0 0 0)
(0 0 0)
(0 0 0)
(0 0 0)
(0 0 0)
(0 0 0)
(0 0 0)
(0 0 0)
(0 0 0)
(0 0 0)
(0 0 0)
(0 0 0)
(0 0 0)
(0 0 0)
(0 0 0)
(0 0 0)
(0 0 0)
(0 0 0)
(0 0 0)
(0 0 0)
(0 0 0)
(0 0 0)
(0 0 0)
(0 0 0)
(0 0 0)
(0 0 0)
(0 0 0)
(0 0 0)
(0 0 0)
(0 0 0)
(0 0 0)
(0 0 0)
(0 0 0)
(0 0 0)
(0 0 0)
(0 0 0)
(0 0 0)
(0 0 0)
(0 0 0)
(0 0 0)
(0 0 0)
(0 0 0)
(0 0 0)
(0 0 0)
(0 0 0)
(0 0 0)
(0 0 0)
(0 0 0)
(0 0 0)
(0 0 0)
(0 0 0)
(0 0 0)
(0 0 0)
(0 0 0)
(0 0 0)
(0 0 0)
(0 0 0)
(0 0 0)
(0 0 0)
(0 0 0)
(0 0 0)
(0 0 0)
(0 0 0)
(0 0 0)
(0 0 0)
(0 0 0)
(0 0 0)
(0 0 0)
(0 0 0)
(0 0 0)
(0 0 0)
(0 0 0)
(0 0 0)
(0 0 0)
(0 0 0)
(0 0 0)
(0 0 0)
(0 0 0)
(0 0 0)
(0 0 0)
(0 0 0)
(0 0 0)
(0 0 0)
(0 0 0)
(0 0 0)
(0 0 0)
(0 0 0)
(0 0 0)
(0 0 0)
(0 0 0)
(0 0 0)
(0 0 0)
(0 0 0)
(0 0 0)
(0 0 0)
(0 0 0)
(0 0 0)
(0 0 0)
(0 0 0)
(0 0 0)
(0 0 0)
(0 0 0)
(0 0 0)
(0 0 0)
(0 0 0)
(0 0 0)
(0 0 0)
(0 0 0)
(0 0 0)
(0 0 0)
(0 0 0)
(0 0 0)
(0 0 0)
(0 0 0)
(0 0 0)
(0 0 0)
(0 0 0)
(0 0 0)
(0 0 0)
(0 0 0)
(0 0 0)
(0 0 0)
(0 0 0)
(0 0 0)
(0 0 0)
(0 0 0)
(0 0 0)
(0 0 0)
(0 0 0)
(0 0 0)
(0 0 0)
(0 0 0)
(0 0 0)
(0 0 0)
(0 0 0)
(0 0 0)
(0 0 0)
(0 0 0)
(0 0 0)
(0 0 0)
(0 0 0)
(0 0 0)
(0 0 0)
(0 0 0)
(0 0 0)
(0 0 0)
(0 0 0)
(0 0 0)
(0 0 0)
(0 0 0)
(0 0 0)
(0 0 0)
(0 0 0)
(0 0 0)
(0 0 0)
(0 0 0)
(0 0 0)
(0 0 0)
(0 0 0)
(0 0 0)
(0 0 0)
(0 0 0)
(0 0 0)
(0 0 0)
(0 0 0)
(0 0 0)
(0 0 0)
(0 0 0)
(0 0 0)
(0 0 0)
(0 0 0)
(0 0 0)
(0 0 0)
(0 0 0)
(0 0 0)
(0 0 0)
(0 0 0)
(0 0 0)
(0 0 0)
(0 0 0)
(0 0 0)
(0 0 0)
(0 0 0)
(0 0 0)
(0 0 0)
(0 0 0)
(0 0 0)
)
;

boundaryField
{
    inlet
    {
        type            zeroGradient;
    }
    outlet
    {
        type            zeroGradient;
    }
    wall
    {
        type            zeroGradient;
    }
    procBoundary2to0
    {
        type            processor;
        value           nonuniform List<vector> 
192
(
(0.000316268 -0.000118435 0.000193089)
(-9.83061e-05 1.67787e-05 0.000242431)
(3.9313e-05 -0.000196482 9.29772e-05)
(0.000269461 -4.82657e-05 0.000394131)
(-0.00140051 0.00185351 0.00873004)
(-0.00106291 0.00239204 0.00563997)
(0.000827862 0.000449415 0.00818596)
(-0.000340231 -7.67499e-05 0.0115114)
(0.000642083 0.00106526 0.0151935)
(0.000780689 0.00219262 0.0145398)
(-0.000246388 0.000762308 0.0131796)
(-0.00129574 0.000773565 0.0149868)
(-0.00036555 -0.000592207 0.0171535)
(-0.000538503 -0.000260403 0.0168346)
(-0.000748661 0.00056998 0.017254)
(-0.000856579 0.000337305 0.0159415)
(-0.0011513 6.34418e-05 0.0160465)
(-0.000671557 -0.000485284 0.0167445)
(-0.00165749 0.00049876 0.0163699)
(-0.00107914 0.000223678 0.0155277)
(-0.000228327 0.00194705 0.0163869)
(-0.00101206 6.13214e-05 0.0151623)
(-0.000436439 0.000660589 0.0148557)
(-0.000287409 0.00044273 0.013958)
(-2.00723e-05 0.00196719 0.0146763)
(0.000623108 0.000887514 0.0134636)
(0.000874043 0.000576961 0.0129785)
(0.000740905 0.00210653 0.012667)
(0 0 0)
(0 0 0)
(0 0 0)
(-0.000250305 0.00171244 0.0127099)
(0 0 0)
(0 0 0)
(0 0 0)
(0 0 0)
(0 0 0)
(0 0 0)
(0 0 0)
(0 0 0)
(0 0 0)
(0 0 0)
(0 0 0)
(0 0 0)
(0 0 0)
(0 0 0)
(0 0 0)
(0 0 0)
(0 0 0)
(0 0 0)
(0 0 0)
(0 0 0)
(0 0 0)
(0 0 0)
(0 0 0)
(0 0 0)
(0 0 0)
(0 0 0)
(0 0 0)
(0 0 0)
(0 0 0)
(0 0 0)
(0 0 0)
(0 0 0)
(0 0 0)
(0 0 0)
(0 0 0)
(0 0 0)
(0 0 0)
(0 0 0)
(0 0 0)
(0 0 0)
(0 0 0)
(0 0 0)
(0 0 0)
(0 0 0)
(0 0 0)
(0 0 0)
(0 0 0)
(0 0 0)
(0 0 0)
(0 0 0)
(0 0 0)
(0 0 0)
(0 0 0)
(0 0 0)
(0 0 0)
(0 0 0)
(0 0 0)
(0 0 0)
(0 0 0)
(0 0 0)
(0 0 0)
(0 0 0)
(0 0 0)
(0 0 0)
(0.000532146 -0.000102528 -0.000196413)
(0.000172709 6.4529e-05 0.000187313)
(-6.10069e-06 8.4704e-05 5.54765e-05)
(-0.0003582 0.000159792 0.000223075)
(0.0009214 0.0015939 0.00748074)
(0.00360184 0.000548205 0.00882821)
(0.000143247 0.00105303 0.00471025)
(-0.00306963 0.000213015 0.00803904)
(-0.000191381 0.00221367 0.00904947)
(-5.66893e-06 0.00128369 0.0113683)
(0.000275768 0.00175978 0.00946774)
(0.000540869 0.000495364 0.0139878)
(-0.00143084 0.000924002 0.0111963)
(-0.000226969 0.000205001 0.0145529)
(-8.2782e-05 1.15061e-05 0.0154596)
(-0.000796419 -8.00468e-06 0.0167496)
(0.000395095 -0.000162641 0.0112478)
(0.000495809 0.000522981 0.0140576)
(0.000668513 0.00130612 0.0159045)
(-0.000338804 0.000468166 0.0156612)
(0.00039059 -0.00107828 0.0100112)
(0.000250891 -0.000234326 0.0118777)
(0.000968798 0.00198378 0.014651)
(-5.99874e-05 0.00183352 0.0156401)
(0.000313079 0.000188604 0.0083784)
(0.000122705 -0.00117203 0.0126148)
(0.000167157 0.00131196 0.0137574)
(0.000655756 0.00241628 0.0140683)
(0 0 0)
(0 0 0)
(0 0 0)
(0 0 0)
(0 0 0)
(0 0 0)
(0 0 0)
(0 0 0)
(0 0 0)
(0 0 0)
(0 0 0)
(0 0 0)
(0 0 0)
(0 0 0)
(0 0 0)
(0 0 0)
(0 0 0)
(0 0 0)
(0 0 0)
(0 0 0)
(0 0 0)
(0 0 0)
(0 0 0)
(0 0 0)
(0 0 0)
(0 0 0)
(0 0 0)
(0 0 0)
(0 0 0)
(0 0 0)
(0 0 0)
(0 0 0)
(0 0 0)
(0 0 0)
(0 0 0)
(0 0 0)
(0 0 0)
(0 0 0)
(0 0 0)
(0 0 0)
(0 0 0)
(0 0 0)
(0 0 0)
(0 0 0)
(0 0 0)
(0 0 0)
(0 0 0)
(0 0 0)
(0 0 0)
(0 0 0)
(0 0 0)
(0 0 0)
(0 0 0)
(0 0 0)
(0 0 0)
(0 0 0)
(0 0 0)
(0 0 0)
(0 0 0)
(0 0 0)
(0 0 0)
(0 0 0)
(0 0 0)
(0 0 0)
(0 0 0)
(0 0 0)
(0 0 0)
(0 0 0)
)
;
    }
    procBoundary2to3
    {
        type            processor;
        value           nonuniform List<vector> 
192
(
(-0.00033941 0.000276734 0.000304651)
(6.5416e-05 0.000295487 2.87135e-05)
(0.000345568 3.43805e-05 -0.000271835)
(-0.000526305 -0.000415042 -0.00026754)
(-0.00330007 -0.00170828 0.00505069)
(-0.00125243 -0.00151126 0.00488299)
(-0.0018668 -0.00132654 0.00807442)
(-0.00138031 -0.00114655 0.00903798)
(-0.001297 0.000932575 0.0138181)
(-0.00069421 0.000521781 0.011543)
(-0.000903455 -0.000223097 0.0119324)
(-0.00157043 0.000137455 0.0114165)
(-0.000616342 -0.000407791 0.0145395)
(-0.000259185 -0.000974357 0.0135969)
(-0.000447228 -0.00135022 0.0126071)
(0.00110343 -0.00101545 0.0108624)
(7.25166e-06 -0.000468203 0.013858)
(0.000673144 -0.00155147 0.0129144)
(0.000533295 -0.00225841 0.0132205)
(-0.00018893 -0.00107995 0.0122277)
(0.000266276 0.000268359 0.013497)
(0.000229546 -0.000774889 0.0130966)
(0.00120956 -0.00152235 0.0130182)
(0.00120113 -0.00128686 0.0130231)
(0.00141306 0.00134587 0.0118604)
(0.000479852 0.000839931 0.0119045)
(0.00149519 0.0001274 0.0125349)
(0.00107642 -0.000996407 0.0134076)
(0 0 0)
(0 0 0)
(0 0 0)
(0 0 0)
(0 0 0)
(0 0 0)
(0 0 0)
(0 0 0)
(0 0 0)
(0 0 0)
(0 0 0)
(0 0 0)
(0 0 0)
(0 0 0)
(0 0 0)
(0 0 0)
(0 0 0)
(0 0 0)
(0 0 0)
(0 0 0)
(0 0 0)
(0 0 0)
(0 0 0)
(0 0 0)
(0 0 0)
(0 0 0)
(0 0 0)
(0 0 0)
(0 0 0)
(0 0 0)
(0 0 0)
(0 0 0)
(0 0 0)
(0 0 0)
(0 0 0)
(0 0 0)
(0 0 0)
(0 0 0)
(0 0 0)
(0 0 0)
(0 0 0)
(0 0 0)
(0 0 0)
(0 0 0)
(0 0 0)
(0 0 0)
(0 0 0)
(0 0 0)
(0 0 0)
(0 0 0)
(0 0 0)
(0 0 0)
(0 0 0)
(0 0 0)
(0 0 0)
(0 0 0)
(0 0 0)
(0 0 0)
(0 0 0)
(0 0 0)
(0 0 0)
(0 0 0)
(0 0 0)
(0 0 0)
(0 0 0)
(0 0 0)
(0 0 0)
(0 0 0)
(-0.000500809 0.000963492 -0.000246712)
(-0.000229212 0.000373744 -4.22582e-05)
(-0.00051773 0.000316243 3.34177e-05)
(0.000151757 0.000156063 4.16816e-05)
(-0.00161061 -0.000210935 0.00812497)
(-0.000710634 -0.00219432 0.00961747)
(0.000396267 -0.00295783 0.00641746)
(0.00119525 -0.00207729 0.00593185)
(-0.000294082 -0.000886651 0.010208)
(-0.000296662 -0.00220751 0.0102)
(-0.000459754 -0.00275849 0.00984911)
(-0.00095003 -0.00187172 0.0103779)
(0.000477669 -0.00130571 0.00989823)
(-0.000300493 -0.000670614 0.0103004)
(-0.000338105 -0.000411112 0.00900876)
(-0.000396049 -0.000674414 0.00828117)
(3.6592e-05 -0.000518158 0.0113308)
(1.13309e-05 -0.000514983 0.0104137)
(0.000687502 -0.000306056 0.00915199)
(0.000197091 0.000283519 0.00731689)
(-2.43677e-05 -0.000488215 0.0136501)
(-0.000991136 0.00182123 0.0110774)
(0.00086614 0.00161667 0.0102076)
(0.000190763 0.000113402 0.0071113)
(0.000678624 6.49798e-06 0.0135572)
(0.000354868 0.00153736 0.0118011)
(-1.68562e-05 0.00282824 0.0107872)
(0.00226406 0.00123787 0.00639103)
(0 0 0)
(0 0 0)
(0 0 0)
(0 0 0)
(0 0 0)
(0 0 0)
(0 0 0)
(0 0 0)
(0 0 0)
(0 0 0)
(0 0 0)
(0 0 0)
(0 0 0)
(0 0 0)
(0 0 0)
(0 0 0)
(0 0 0)
(0 0 0)
(0 0 0)
(0 0 0)
(0 0 0)
(0 0 0)
(0 0 0)
(0 0 0)
(0 0 0)
(0 0 0)
(0 0 0)
(0 0 0)
(0 0 0)
(0 0 0)
(0 0 0)
(0 0 0)
(0 0 0)
(0 0 0)
(0 0 0)
(0 0 0)
(0 0 0)
(0 0 0)
(0 0 0)
(0 0 0)
(0 0 0)
(0 0 0)
(0 0 0)
(0 0 0)
(0 0 0)
(0 0 0)
(0 0 0)
(0 0 0)
(0 0 0)
(0 0 0)
(0 0 0)
(0 0 0)
(0 0 0)
(0 0 0)
(0 0 0)
(0 0 0)
(0 0 0)
(0 0 0)
(0 0 0)
(0 0 0)
(0 0 0)
(0 0 0)
(0 0 0)
(0 0 0)
(0 0 0)
(0 0 0)
(0 0 0)
(0 0 0)
)
;
    }
}


// ************************************************************************* //
