/*--------------------------------*- C++ -*----------------------------------*\
| =========                 |                                                 |
| \\      /  F ield         | OpenFOAM: The Open Source CFD Toolbox           |
|  \\    /   O peration     | Version:  2506                                  |
|   \\  /    A nd           | Website:  www.openfoam.com                      |
|    \\/     M anipulation  |                                                 |
\*---------------------------------------------------------------------------*/
FoamFile
{
    version     2.0;
    format      ascii;
    arch        "LSB;label=32;scalar=64";
    class       volVectorField;
    location    "0.05";
    object      U;
}
// * * * * * * * * * * * * * * * * * * * * * * * * * * * * * * * * * * * * * //

dimensions      [0 1 -1 0 0 0 0];

internalField   nonuniform List<vector> 
1152
(
(-2.29155e-05 -0.000982265 0.00964739)
(0.00165025 0.000318167 0.0173744)
(-0.00254536 -0.00172935 0.0184388)
(0.000205685 -0.00024344 0.00445847)
(0.000106005 6.73821e-05 0.0135644)
(-0.000636714 5.14668e-05 0.0187066)
(-0.00148144 0.000323914 0.0126226)
(0.000989593 0.00135983 0.0114586)
(0.00209751 0.000534333 0.0161055)
(0.00168202 0.00125096 0.0112585)
(-0.000164558 0.0027637 0.0162639)
(0.000504911 0.00272489 0.0190515)
(0.00112933 0.000216611 0.0125569)
(0.00275044 -0.0041586 0.0338535)
(0.00100744 -0.000271868 0.0157604)
(0.00162979 0.0048757 0.0136571)
(-0.000514345 -0.00155977 0.0179497)
(-0.00111452 -0.00354057 0.0260984)
(0.000464549 0.00016927 0.0352042)
(-7.42539e-05 0.000164353 0.00442778)
(-0.00131628 -0.00110938 0.023532)
(0.00213301 -0.000780475 0.0282698)
(0.000209735 7.08029e-05 0.00401004)
(-0.0021946 0.000219317 0.0189913)
(-0.000100769 9.32262e-05 0.0157732)
(-0.000242579 -0.000740209 0.0320682)
(0.00156122 -0.00469728 0.0338643)
(-0.000184691 -4.93665e-05 0.00336089)
(-0.00119115 0.00151028 0.0258534)
(-0.000466634 -9.57566e-05 0.0103528)
(-0.000296389 0.000458592 0.0202309)
(0.00125731 0.00216177 0.0169551)
(-0.00103839 0.00175137 0.0147836)
(-0.00270274 1.81328e-05 0.020835)
(0.000646654 0.000161729 0.00749212)
(-0.000126519 0.000380754 0.00115569)
(-0.000689777 -0.000206746 0.00835827)
(-0.00150043 -0.00060314 0.014701)
(0.00268221 0.000977974 0.0467213)
(0.000263584 -0.00174188 0.0243269)
(-0.0025562 -0.00242368 0.0247591)
(-0.00151439 0.000908777 0.022166)
(0.000487362 1.87163e-06 0.00834528)
(0.00299935 0.000626226 0.0489917)
(0.000355446 0.000297193 0.0130123)
(-0.000784595 0.00130163 0.0550014)
(0.000133497 -0.000403578 0.00871144)
(-0.000351173 -0.00185219 0.00883976)
(0.0015352 0.00187093 0.0205862)
(0.00033961 0.00361459 0.0445772)
(-0.000454886 -0.000307703 0.0152838)
(-0.00205369 0.000340346 0.0357948)
(0.001634 0.00260306 0.0486262)
(-0.00114188 0.000409728 0.0200846)
(-0.000956568 -0.000420316 0.0233188)
(0.00242216 0.00241277 0.0292321)
(-0.000880907 0.000178759 0.0106818)
(-0.0013256 -0.0018848 0.0229244)
(0.000665668 -0.000265517 0.0201468)
(-1.48178e-05 0.000170747 0.00120591)
(-0.00158407 -0.00126131 0.0177523)
(-0.00411042 0.000412417 0.0496862)
(0.000424108 -0.000899067 0.025099)
(0.0012378 -0.00877896 0.0502936)
(-0.00145335 9.16098e-05 0.0179819)
(0.000721775 -0.000285271 0.0164844)
(-0.000151664 -0.000621533 0.0131558)
(-0.000995163 -0.00174284 0.0247796)
(-0.000382639 0.00147479 0.0191595)
(-0.000560768 0.000643471 0.0314179)
(-0.001086 -0.0038643 0.0374376)
(0.00082023 -0.00100893 0.0141345)
(-0.000802475 0.00154601 0.0235013)
(-0.00375888 -0.00237252 0.0320753)
(-0.000808768 -0.000362091 0.00899765)
(-0.00177735 -0.0122256 0.0683905)
(-0.00483869 0.000414016 0.0364298)
(-0.0012652 -0.000521568 0.0114188)
(-0.00131491 -0.000378135 0.0117889)
(-0.00017978 -6.16429e-05 0.00196276)
(-0.00115666 -0.000688304 0.0111416)
(-0.00252379 -0.000731848 0.024143)
(-0.0017027 -0.00176015 0.0215089)
(0.00172999 -0.00255377 0.0210271)
(-0.00289336 -0.000389656 0.0219903)
(-0.00333038 -0.000562824 0.0184879)
(-0.00117141 -0.000107212 0.0093287)
(0.000498821 -0.000740171 0.0263619)
(-0.0023076 -0.000413628 0.01743)
(-0.00219389 -0.000926265 0.0217762)
(-0.000708612 -0.000245272 0.00973034)
(-0.00052796 0.00057405 0.0161579)
(-0.00223702 -0.00078548 0.013963)
(-0.00383714 -0.00036572 0.0229164)
(-0.000559873 -0.000946042 0.020593)
(-0.00129943 -0.000457016 0.0160704)
(-0.000382704 0.000244949 0.0110674)
(-0.000267439 0.000284104 0.0172753)
(-7.24584e-05 3.19886e-05 0.0139502)
(-0.000228042 0.000114324 0.0137178)
(-0.000431828 -0.000240747 0.0204134)
(-0.000195651 0.000224838 0.0171002)
(9.08936e-05 2.8217e-05 0.0137789)
(-0.000378051 -0.000304968 0.0040412)
(-0.000358182 -8.93468e-05 0.0164442)
(-0.000122362 0.000313598 0.0187675)
(-0.000407425 0.000174873 0.00976792)
(-3.409e-05 -0.000513694 0.037659)
(7.48565e-05 0.00026952 0.0234512)
(7.20673e-05 0.00023502 0.0102089)
(0.000185363 -0.000241412 0.00474384)
(-0.000108248 0.000437234 0.0137117)
(0.00100606 -0.000809903 0.0215507)
(0.000629193 -0.000216018 0.0269272)
(0.000298878 4.84512e-05 0.0225858)
(-0.000329535 0.000128296 0.0216073)
(0.00128391 -0.000690789 0.0242072)
(0.00121655 -0.00025383 0.0246071)
(0.000555327 5.07919e-05 0.0193191)
(-5.81528e-05 -0.000516279 0.0158314)
(0.0011781 -0.000158747 0.0239235)
(0.0011819 0.000168498 0.0247775)
(-8.43066e-05 0.000240493 0.0178512)
(0.000307488 0.000396773 0.0366327)
(0.00137232 0.000194158 0.0261376)
(0.00150895 0.000310817 0.0177699)
(0.000885819 0.000119521 0.010598)
(0.000371308 0.00104901 0.0227041)
(0.000181377 -1.81779e-05 0.00611309)
(0.000300989 0.000214641 0.00653491)
(0.000368809 0.000473353 0.00558693)
(-0.000267929 0.000458515 0.00537953)
(0.000160432 -0.000147681 0.00663365)
(0.000766765 0.000254804 0.00618342)
(0.000534257 0.000487299 0.00493107)
(-0.000410361 -0.000786643 0.00501277)
(0.000101073 5.68647e-05 0.00637355)
(0.000796891 0.000707952 0.00591528)
(-0.00073148 0.000792928 0.0049021)
(-0.000256154 -0.000111433 0.00817697)
(0.00059044 0.000144132 0.00648388)
(0.00141442 0.000574035 0.0047101)
(-0.000321109 0.000141189 0.00386506)
(-0.000587209 0.000900837 0.00634592)
(6.23363e-05 -0.000270646 0.0130985)
(0.000150381 -1.78058e-05 0.0133594)
(0.000107868 0.000150505 0.0129085)
(-0.000108189 0.000169636 0.0129806)
(0.00016376 -0.000150325 0.0131214)
(0.000372107 7.5341e-05 0.0130927)
(0.000167493 0.00015396 0.0125222)
(-0.000148583 -0.000265628 0.0126903)
(0.00022538 7.12807e-05 0.0130065)
(0.000387367 0.000290647 0.012977)
(-0.000260147 0.000281649 0.0124858)
(-0.000169755 -6.01362e-05 0.0139023)
(0.000349555 0.000124101 0.0128661)
(0.000544763 0.000290133 0.0123168)
(-0.000199881 0.000166903 0.0118713)
(-0.000357908 0.000369163 0.0131056)
(0.000152713 2.71883e-05 0.0108416)
(0.000142977 7.36396e-05 0.0109184)
(6.9665e-05 0.000102674 0.0107696)
(-8.63747e-06 0.000106089 0.0108383)
(0.000112132 4.98193e-05 0.0109006)
(0.000171735 9.81788e-05 0.0108572)
(6.81817e-05 0.000101812 0.010656)
(-3.47909e-05 -3.02098e-05 0.0107521)
(0.000135749 0.000107001 0.0108819)
(0.000165089 0.000154854 0.0108262)
(-6.91202e-05 0.000132257 0.0106597)
(-7.37647e-05 9.99112e-06 0.0111021)
(0.000132799 7.59523e-05 0.0107725)
(0.000183361 0.000131491 0.0105905)
(-8.33002e-05 9.82662e-05 0.0104462)
(-0.000155589 0.00013912 0.010864)
(5.64739e-05 -1.04251e-05 0.0112645)
(5.83444e-05 2.96291e-05 0.011273)
(2.86942e-05 4.53115e-05 0.0112171)
(6.88183e-06 5.80709e-05 0.0112476)
(5.25966e-05 1.94004e-05 0.0112567)
(7.14364e-05 4.93873e-05 0.0112426)
(2.8972e-05 5.06463e-05 0.0111732)
(-4.49736e-06 1.51501e-05 0.0112135)
(8.178e-05 5.5467e-05 0.0112415)
(7.73307e-05 7.24605e-05 0.0112211)
(-9.8837e-06 6.08178e-05 0.0111659)
(-2.55721e-05 2.02294e-05 0.0112998)
(6.80375e-05 4.11753e-05 0.0111774)
(7.31185e-05 6.03012e-05 0.0111329)
(-2.57283e-05 5.14665e-05 0.0110881)
(-5.81351e-05 5.63742e-05 0.0112274)
(4.30039e-05 7.39125e-06 0.0111827)
(3.72249e-05 2.1735e-05 0.0112086)
(1.99623e-05 2.39492e-05 0.0111985)
(1.12094e-05 3.16357e-05 0.0112169)
(3.64832e-05 1.88666e-05 0.0112015)
(3.77947e-05 2.92143e-05 0.0112098)
(1.83729e-05 2.74674e-05 0.0111911)
(5.2564e-06 1.81371e-05 0.0112094)
(5.00241e-05 3.23885e-05 0.0112092)
(4.10492e-05 3.60577e-05 0.0112055)
(7.55789e-06 3.02065e-05 0.0111891)
(-4.62802e-06 1.64125e-05 0.0112307)
(3.76146e-05 2.14586e-05 0.0111818)
(3.4673e-05 2.71163e-05 0.0111734)
(-1.7252e-06 2.44814e-05 0.0111611)
(-1.8565e-05 2.32191e-05 0.0112078)
(2.43454e-05 4.48298e-06 0.0111757)
(2.0149e-05 1.11451e-05 0.0112003)
(1.20198e-05 1.18388e-05 0.0112043)
(8.68819e-06 1.6097e-05 0.011214)
(2.19794e-05 9.60825e-06 0.0111976)
(2.00774e-05 1.41583e-05 0.011211)
(1.14679e-05 1.3672e-05 0.0112097)
(5.73451e-06 1.16643e-05 0.0112172)
(2.82932e-05 1.5592e-05 0.011209)
(2.23501e-05 1.63446e-05 0.0112137)
(8.95276e-06 1.40021e-05 0.0112108)
(1.78111e-06 9.61734e-06 0.0112232)
(2.13165e-05 9.5307e-06 0.0111988)
(1.8385e-05 1.11213e-05 0.0112021)
(4.59193e-06 1.01411e-05 0.0112004)
(-4.04351e-06 8.93296e-06 0.0112156)
(1.38084e-05 2.54785e-06 0.01117)
(1.16413e-05 5.27505e-06 0.0111974)
(7.69239e-06 5.58939e-06 0.0112081)
(5.99502e-06 7.81237e-06 0.0112152)
(1.32901e-05 4.55137e-06 0.0111968)
(1.16017e-05 6.55348e-06 0.0112138)
(7.55381e-06 6.46161e-06 0.0112192)
(4.5891e-06 6.14466e-06 0.0112236)
(1.60777e-05 6.83065e-06 0.0112109)
(1.2828e-05 6.91187e-06 0.0112206)
(7.0499e-06 6.01866e-06 0.0112231)
(3.03218e-06 4.63656e-06 0.0112276)
(1.25381e-05 3.56946e-06 0.0112094)
(1.08466e-05 3.92179e-06 0.0112178)
(5.24598e-06 3.48866e-06 0.0112201)
(7.32411e-07 2.87089e-06 0.0112254)
(7.99562e-06 8.98409e-07 0.0111681)
(6.93996e-06 2.08968e-06 0.0111971)
(5.03901e-06 2.35997e-06 0.0112104)
(4.03205e-06 3.49801e-06 0.0112167)
(8.04308e-06 1.85224e-06 0.0111974)
(7.03104e-06 2.74415e-06 0.0112162)
(5.05944e-06 2.77796e-06 0.0112241)
(3.38563e-06 2.80131e-06 0.0112278)
(9.21321e-06 2.57922e-06 0.0112125)
(7.59315e-06 2.55226e-06 0.0112249)
(4.98907e-06 2.22643e-06 0.0112296)
(2.74811e-06 1.80415e-06 0.0112322)
(7.63093e-06 7.56386e-07 0.0112154)
(6.74824e-06 7.68047e-07 0.0112261)
(4.31267e-06 5.70154e-07 0.0112299)
(1.91085e-06 3.29038e-07 0.0112324)
(4.77841e-06 4.72609e-08 0.0111671)
(4.28975e-06 5.60339e-07 0.0111972)
(3.37654e-06 7.7843e-07 0.0112117)
(2.73199e-06 1.36651e-06 0.0112179)
(4.94655e-06 5.23382e-07 0.0111977)
(4.38812e-06 9.17533e-07 0.0112177)
(3.41287e-06 9.61734e-07 0.0112267)
(2.43613e-06 1.01747e-06 0.0112303)
(5.3991e-06 6.30568e-07 0.0112133)
(4.63074e-06 6.11287e-07 0.0112273)
(3.4222e-06 5.0194e-07 0.0112331)
(2.18004e-06 3.90809e-07 0.0112352)
(4.73348e-06 -3.86124e-07 0.0112184)
(4.31611e-06 -4.512e-07 0.0112302)
(3.20263e-06 -5.44338e-07 0.0112348)
(1.88436e-06 -6.26487e-07 0.0112366)
(2.92879e-06 -3.51198e-07 0.0111668)
(2.72094e-06 -1.28467e-07 0.0111974)
(2.28289e-06 3.63195e-08 0.0112126)
(1.86873e-06 3.5423e-07 0.0112188)
(3.09374e-06 -1.05902e-07 0.0111979)
(2.79581e-06 7.22048e-08 0.0112185)
(2.30639e-06 1.04897e-07 0.0112282)
(1.73924e-06 1.46063e-07 0.0112318)
(3.25075e-06 -1.7812e-07 0.0112138)
(2.89999e-06 -1.96379e-07 0.0112287)
(2.32655e-06 -2.34107e-07 0.011235)
(1.64985e-06 -2.50569e-07 0.0112372)
(2.96428e-06 -7.38579e-07 0.0112199)
(2.78107e-06 -8.08159e-07 0.0112324)
(2.26288e-06 -8.55539e-07 0.0112373)
(1.55546e-06 -8.7971e-07 0.011239)
(1.84106e-06 -4.92467e-07 0.0111666)
(1.7603e-06 -3.9537e-07 0.0111976)
(1.54616e-06 -2.76505e-07 0.0112131)
(1.28426e-06 -9.35302e-08 0.0112194)
(1.97068e-06 -3.63075e-07 0.011198)
(1.80905e-06 -2.81772e-07 0.011219)
(1.55733e-06 -2.61262e-07 0.011229)
(1.23563e-06 -2.36617e-07 0.0112327)
(2.01369e-06 -4.62912e-07 0.011214)
(1.85366e-06 -4.82327e-07 0.0112294)
(1.5733e-06 -4.97747e-07 0.0112361)
(1.22194e-06 -4.94221e-07 0.0112384)
(1.87746e-06 -7.61705e-07 0.0112205)
(1.80334e-06 -8.154e-07 0.0112334)
(1.5545e-06 -8.33611e-07 0.0112387)
(1.21758e-06 -8.20294e-07 0.0112404)
(1.17775e-06 -5.01729e-07 0.0111665)
(1.14902e-06 -4.54884e-07 0.0111977)
(1.04168e-06 -3.68022e-07 0.0112135)
(8.77677e-07 -2.53274e-07 0.0112198)
(1.27382e-06 -4.32035e-07 0.0111981)
(1.18228e-06 -3.9109e-07 0.0112193)
(1.05011e-06 -3.74083e-07 0.0112295)
(8.67652e-07 -3.5796e-07 0.0112333)
(1.28071e-06 -5.12803e-07 0.0112142)
(1.20585e-06 -5.26515e-07 0.0112298)
(1.06354e-06 -5.30871e-07 0.0112367)
(8.86457e-07 -5.30043e-07 0.0112391)
(1.20985e-06 -6.61236e-07 0.0112208)
(1.18457e-06 -6.96321e-07 0.011234)
(1.05368e-06 -6.95141e-07 0.0112394)
(9.23894e-07 -6.55787e-07 0.0112412)
(7.58664e-07 -4.38139e-07 0.0111664)
(7.47701e-07 -4.07812e-07 0.0111978)
(6.93496e-07 -3.42314e-07 0.0112136)
(5.91179e-07 -2.64349e-07 0.0112201)
(8.29077e-07 -3.99116e-07 0.0111981)
(7.7442e-07 -3.72388e-07 0.0112195)
(7.04267e-07 -3.53765e-07 0.0112297)
(5.96414e-07 -3.39499e-07 0.0112336)
(8.29183e-07 -4.52669e-07 0.0112142)
(7.93497e-07 -4.57056e-07 0.01123)
(7.1912e-07 -4.52005e-07 0.011237)
(6.23461e-07 -4.52293e-07 0.0112395)
(7.92864e-07 -5.18537e-07 0.011221)
(7.89034e-07 -5.39353e-07 0.0112342)
(7.14276e-07 -5.29879e-07 0.0112398)
(6.71205e-07 -4.84567e-07 0.0112416)
(4.88359e-07 -3.29466e-07 0.0111664)
(4.84292e-07 -3.03796e-07 0.0111978)
(4.58971e-07 -2.54708e-07 0.0112137)
(3.98684e-07 -2.00158e-07 0.0112202)
(5.38853e-07 -3.05288e-07 0.0111981)
(5.07461e-07 -2.83938e-07 0.0112195)
(4.72425e-07 -2.64415e-07 0.0112299)
(4.08708e-07 -2.49053e-07 0.0112338)
(5.40716e-07 -3.34074e-07 0.0112142)
(5.25623e-07 -3.30734e-07 0.0112301)
(4.89249e-07 -3.19678e-07 0.0112372)
(4.33276e-07 -3.15886e-07 0.0112397)
(5.25272e-07 -3.58237e-07 0.011221)
(5.3105e-07 -3.69424e-07 0.0112343)
(4.90913e-07 -3.59411e-07 0.01124)
(4.72214e-07 -3.22814e-07 0.0112419)
(3.30452e-07 -2.00251e-07 0.0111663)
(3.38309e-07 -1.77832e-07 0.0111978)
(3.35903e-07 -1.42147e-07 0.0112138)
(3.09657e-07 -1.04873e-07 0.0112203)
(3.65528e-07 -1.8146e-07 0.011198)
(3.58324e-07 -1.63796e-07 0.0112195)
(3.50401e-07 -1.45662e-07 0.0112299)
(3.21525e-07 -1.30519e-07 0.0112339)
(3.71061e-07 -1.88412e-07 0.0112142)
(3.7471e-07 -1.81733e-07 0.0112301)
(3.66546e-07 -1.69278e-07 0.0112372)
(3.39689e-07 -1.6179e-07 0.0112398)
(3.67847e-07 -1.92158e-07 0.011221)
(3.83263e-07 -1.96343e-07 0.0112344)
(3.72688e-07 -1.89955e-07 0.01124)
(3.63097e-07 -1.67673e-07 0.0112419)
(3.06043e-07 -1.20627e-07 0.0111662)
(3.41416e-07 -1.00199e-07 0.0111977)
(3.66845e-07 -7.4562e-08 0.0112137)
(3.7055e-07 -4.83463e-08 0.0112203)
(3.31018e-07 -1.03702e-07 0.0111979)
(3.60181e-07 -8.85108e-08 0.0112194)
(3.82498e-07 -7.28907e-08 0.0112298)
(3.85287e-07 -5.80918e-08 0.0112339)
(3.39812e-07 -9.37894e-08 0.0112141)
(3.74295e-07 -8.73233e-08 0.0112301)
(3.96344e-07 -7.7546e-08 0.0112372)
(3.98414e-07 -6.91422e-08 0.0112398)
(3.42491e-07 -8.35067e-08 0.0112209)
(3.81004e-07 -8.53376e-08 0.0112343)
(4.02249e-07 -8.39476e-08 0.01124)
(4.09108e-07 -7.59839e-08 0.0112419)
(0.000807539 -0.00320165 0.0160605)
(-0.0017326 -0.00199532 0.0194308)
(-0.00276032 -0.00145414 0.0215629)
(-0.00207473 -0.000401385 0.0149394)
(0.00196648 -0.000122802 0.0123786)
(0.00326654 -0.000307409 0.0183069)
(0.00068953 -0.00192313 0.0198905)
(-0.00049652 -0.00168876 0.0260059)
(0.000490851 -9.42925e-05 0.0150348)
(0.000602343 -0.00179444 0.0239202)
(-0.000363037 -0.000726357 0.0168851)
(0.000557983 -6.006e-05 0.0124786)
(0.000847305 0.000498566 0.0118257)
(0.00143006 0.000821025 0.0105463)
(0.0018728 -0.000232276 0.0205239)
(0.000715318 0.000855018 0.0205179)
(-0.00224166 0.00036589 0.0332604)
(-0.00293318 -0.00149685 0.0234772)
(-0.000147746 -0.00174353 0.0164484)
(0.000423786 -0.000131384 0.0127899)
(-0.000453447 -0.000832593 0.0090724)
(-0.00415016 -0.00390432 0.0338534)
(-0.000721992 -0.000441086 0.0165017)
(-0.000270444 -0.0013213 0.0223953)
(-0.00140927 -0.00199894 0.0264523)
(-0.000377971 -0.000871589 0.0148436)
(0.000161795 -0.00100076 0.0126729)
(-0.000916092 -0.0008667 0.0180997)
(-0.000594014 0.00020376 0.0228235)
(-0.00237571 0.00205721 0.0235749)
(-0.000356661 0.00084648 0.0228669)
(0.000818656 0.00106348 0.0234321)
(0.000506893 7.89241e-05 0.0400738)
(0.000288116 0.00159922 0.0304997)
(-0.000120154 0.0014706 0.019517)
(-0.000506894 0.0014955 0.0237225)
(-7.51874e-05 0.00229232 0.0364106)
(-0.000791432 0.00184599 0.0254418)
(-0.000337333 0.00113317 0.022758)
(0.00294194 -0.000247195 0.05078)
(-0.000337713 0.00161688 0.0268805)
(-5.97029e-05 -0.000902372 0.0263342)
(-0.00174545 -0.00127051 0.0344507)
(-0.00126826 -0.000426231 0.0115887)
(-0.00205517 -0.000244804 0.0177816)
(-0.00146274 -0.000574331 0.0123547)
(0.000129061 2.82476e-06 0.0115237)
(-0.000721769 0.000301682 0.0362658)
(-0.000314995 -0.00151731 0.0241164)
(0.00017608 0.000117942 0.016435)
(-0.00324906 0.00119207 0.0268375)
(0.000183058 -3.9906e-05 0.00094755)
(0.000399602 4.47125e-05 0.00311578)
(0.00255538 0.00378861 0.045463)
(-7.56344e-05 0.000719012 0.0124788)
(-0.000896506 0.00383022 0.0285073)
(-0.00214499 0.00230962 0.0279085)
(-0.00134771 0.00199966 0.0307709)
(9.65164e-05 0.00246253 0.0292702)
(-0.00108068 0.000274988 0.0213058)
(0.00035595 -0.00152966 0.0381787)
(-1.39131e-05 -0.000211288 0.00617564)
(-0.00117947 -0.000861524 0.0182879)
(-0.00170527 -0.00188248 0.0268211)
(-0.00189456 0.00307176 0.0521931)
(0.00123476 -6.31094e-05 0.017835)
(0.00398837 0.00207394 0.035868)
(-0.000275797 0.000227643 0.0109314)
(-0.00126421 -4.82192e-05 0.0199083)
(-5.57227e-05 0.000931551 0.0315132)
(0.0013171 0.00055487 0.0213616)
(-0.000810209 -0.000511596 0.0347346)
(0.000675314 0.000780115 0.0429099)
(-0.000308916 0.00149654 0.0157409)
(-0.000157746 0.00227352 0.0384162)
(0.000747638 0.0012301 0.0294985)
(0.00112929 0.000843151 0.0173164)
(0.00138845 0.00136802 0.0233593)
(-0.000849494 0.000326523 0.028439)
(-0.0015034 -3.56327e-05 0.0255766)
(0.000871964 0.00178133 0.0117326)
(0.000535761 0.000517516 0.00459866)
(-0.000819889 0.00150374 0.0153082)
(2.54079e-05 -2.90309e-05 0.0286488)
(0.000955622 0.00174992 0.0139831)
(0.00179704 0.00162699 0.0133815)
(0.000295796 0.000406323 0.0143565)
(-0.00129083 -1.71546e-05 0.0172031)
(0.000710011 0.000269293 0.00967425)
(0.000417998 0.00064424 0.0207708)
(-0.000222419 0.000250437 0.00671821)
(-0.000650331 -0.000128695 0.0128583)
(0.00227829 -9.59946e-05 0.0208735)
(0.00154161 -0.00041178 0.0101926)
(-0.000277894 0.00027365 0.0183626)
(-0.00193349 -0.000103394 0.0198866)
(0.000109662 0.000372827 0.0236076)
(-3.77072e-05 -8.14915e-06 0.0118482)
(-0.000674088 -0.000175478 0.0211704)
(-0.000434449 0.0001676 0.019775)
(-0.000708718 -0.00098742 0.00860162)
(-0.00048047 2.77642e-05 0.0177148)
(-0.000638592 -1.69322e-06 0.0183957)
(-0.00072259 -0.000118211 0.0232599)
(0.000288972 0.000140114 0.0216179)
(-6.72015e-05 -0.000473102 0.0238022)
(0.00222042 -0.000325096 0.0146737)
(-0.000353948 8.0058e-05 0.0166104)
(0.000348189 0.000372457 0.0106143)
(0.000144303 -0.000800152 0.0129953)
(-0.000533681 -0.000117359 0.0236952)
(-0.000278459 0.000117886 0.0175703)
(0.000691802 -0.000780467 0.0270073)
(0.000457708 -0.00133003 0.0217856)
(0.000285352 -0.00158194 0.0231172)
(0.000886985 -0.00126388 0.0235975)
(-6.35293e-05 -0.00142348 0.0162257)
(-0.00036899 -0.00210261 0.0205105)
(-5.33787e-05 -0.00136346 0.0224651)
(0.000715952 -0.00085366 0.0239362)
(-0.000153774 -0.000621897 0.0226155)
(0.00046772 -0.000664079 0.0215284)
(0.00130363 -0.000912802 0.0204098)
(0.00101606 -0.000226377 0.022435)
(-0.000461692 -0.000416612 0.0187566)
(-0.00100826 -0.00113036 0.0195716)
(8.34103e-05 -0.00043387 0.0210683)
(0.000953114 -0.00044325 0.0229818)
(0.000226576 0.000515469 0.00677682)
(0.000479763 0.000419173 0.0062419)
(0.000243362 6.76134e-05 0.00650238)
(0.000333674 -1.2393e-05 0.00658866)
(-0.000406086 -6.23458e-05 0.00524847)
(-0.00063954 -0.000349957 0.0063167)
(-0.00053782 -0.000134737 0.00686834)
(-0.000181466 -4.15577e-05 0.00693585)
(0.000219081 -0.000182349 0.00737174)
(0.00044531 7.13353e-06 0.00760274)
(0.000263974 7.85858e-05 0.00664854)
(-1.85033e-05 0.000118564 0.00638476)
(-7.40615e-05 -0.000520274 0.00540859)
(-0.000172157 -0.000797193 0.00600098)
(-0.000226826 -0.000347228 0.00627817)
(-0.000241535 -0.000301995 0.00626692)
(0.000156903 -0.000114528 0.0134578)
(0.000216053 -0.000182574 0.0132785)
(0.000224396 -0.000252853 0.013261)
(0.000205092 -0.000270035 0.0132376)
(-3.79877e-05 -0.000393899 0.0122846)
(-0.000146596 -0.000492008 0.0127182)
(-1.52379e-06 -0.000344149 0.0129985)
(0.000117657 -0.000221629 0.0131144)
(6.11597e-05 -0.000105712 0.0131502)
(0.000232793 -3.68082e-05 0.013156)
(0.000374924 4.60922e-05 0.0129205)
(0.000273449 5.56363e-05 0.0129296)
(-0.000106551 -0.00013978 0.0121488)
(-9.34692e-05 -0.000218069 0.0123872)
(6.53801e-05 -7.68863e-05 0.0125068)
(0.000105418 -4.69498e-05 0.0126992)
(5.76856e-05 5.99991e-05 0.01068)
(0.000132081 7.74857e-05 0.0107566)
(0.000141018 4.8664e-05 0.0108131)
(0.000154271 3.82798e-05 0.0108482)
(-9.65454e-06 -3.42372e-05 0.0104466)
(-2.31087e-05 -4.23675e-05 0.0107091)
(-2.05501e-06 1.52306e-06 0.0108569)
(5.72532e-05 4.47666e-05 0.0109064)
(5.06365e-05 8.1076e-05 0.0109318)
(0.000159233 0.000111352 0.0110494)
(0.000188259 0.000130746 0.0109746)
(0.000153594 0.00012125 0.0109135)
(-9.13292e-06 7.4403e-06 0.0104074)
(1.67582e-05 -1.48119e-05 0.0106426)
(3.64477e-05 1.43884e-05 0.0107245)
(5.33107e-05 2.69154e-05 0.0107687)
(2.88972e-05 -1.01901e-05 0.0111344)
(5.2251e-05 -2.17376e-06 0.0112045)
(7.08588e-05 -6.83922e-07 0.011252)
(6.97752e-05 -2.54373e-06 0.0112734)
(4.40067e-06 -5.13627e-05 0.0109697)
(-1.36234e-06 -4.90339e-05 0.0111061)
(2.24115e-05 -2.36621e-05 0.0112042)
(4.28456e-05 1.4376e-06 0.0112508)
(1.62228e-05 4.26228e-05 0.0111655)
(6.89591e-05 5.31124e-05 0.011247)
(0.000104479 6.08467e-05 0.0112583)
(9.8326e-05 5.69712e-05 0.0112524)
(-1.61809e-05 2.06638e-05 0.0108927)
(-2.30977e-06 1.30214e-05 0.0110293)
(2.78828e-05 1.9943e-05 0.0111125)
(4.45502e-05 2.52409e-05 0.0111634)
(1.73586e-05 1.81368e-06 0.0109223)
(3.3886e-05 1.01508e-05 0.0110306)
(4.25493e-05 1.10688e-05 0.0111042)
(4.42334e-05 1.06821e-05 0.0111517)
(4.07426e-06 -1.33487e-05 0.0108917)
(7.83704e-06 -9.5437e-06 0.0110283)
(1.89784e-05 1.10002e-06 0.0111211)
(2.95993e-05 1.2219e-05 0.0111754)
(9.18334e-06 3.34409e-05 0.0110141)
(3.86407e-05 3.76806e-05 0.0111284)
(5.60332e-05 3.88965e-05 0.0111824)
(5.65773e-05 3.58014e-05 0.0112034)
(-5.65447e-06 1.84346e-05 0.0108912)
(3.94551e-06 1.51997e-05 0.0110341)
(1.88031e-05 1.59684e-05 0.0111194)
(2.87979e-05 1.73034e-05 0.0111657)
(9.91449e-06 -2.44479e-06 0.0108988)
(1.70501e-05 2.37913e-06 0.0110077)
(2.21089e-05 4.23177e-06 0.0110862)
(2.34008e-05 5.37673e-06 0.0111393)
(3.88153e-06 -8.24233e-06 0.0108966)
(6.45623e-06 -5.00545e-06 0.0110232)
(1.2851e-05 6.50896e-07 0.0111119)
(1.83926e-05 6.40303e-06 0.0111674)
(5.14049e-06 1.70195e-05 0.0109643)
(2.01575e-05 1.94519e-05 0.0110837)
(2.94048e-05 1.96078e-05 0.0111551)
(3.08596e-05 1.78246e-05 0.0111925)
(-1.96403e-06 9.78792e-06 0.0109109)
(3.60854e-06 8.52991e-06 0.0110454)
(1.15425e-05 8.24963e-06 0.0111306)
(1.75212e-05 8.3761e-06 0.0111782)
(6.04511e-06 -2.18394e-06 0.0108729)
(9.54542e-06 6.88937e-07 0.0109862)
(1.23821e-05 1.85307e-06 0.0110697)
(1.27715e-05 2.73108e-06 0.0111278)
(2.84562e-06 -4.37851e-06 0.0108906)
(4.7542e-06 -2.41688e-06 0.0110162)
(8.32965e-06 3.54152e-07 0.0111053)
(1.12477e-05 2.93679e-06 0.0111628)
(2.94709e-06 8.2583e-06 0.0109363)
(1.07429e-05 9.47559e-06 0.0110608)
(1.56714e-05 9.23756e-06 0.0111411)
(1.68338e-05 8.15007e-06 0.0111872)
(-5.39548e-07 4.36536e-06 0.0109179)
(2.67899e-06 3.80375e-06 0.0110503)
(7.09877e-06 3.40554e-06 0.0111363)
(1.0613e-05 3.30071e-06 0.0111856)
(3.71239e-06 -2.06581e-06 0.0108623)
(5.31971e-06 -4.56489e-07 0.010977)
(6.76403e-06 2.68288e-07 0.0110627)
(6.85081e-06 9.17316e-07 0.0111228)
(2.06785e-06 -2.79682e-06 0.0108876)
(3.25663e-06 -1.5991e-06 0.011013)
(5.29459e-06 -2.02983e-07 0.0111024)
(6.7134e-06 1.09012e-06 0.0111612)
(1.76209e-06 3.49107e-06 0.0109223)
(5.79115e-06 4.12678e-06 0.0110495)
(8.51493e-06 3.87847e-06 0.0111341)
(9.296e-06 3.21917e-06 0.0111848)
(4.78911e-09 1.58821e-06 0.0109206)
(1.92007e-06 1.3289e-06 0.0110526)
(4.42599e-06 9.99541e-07 0.0111392)
(6.51682e-06 7.93566e-07 0.0111896)
(2.41771e-06 -1.7e-06 0.0108565)
(3.1339e-06 -7.83047e-07 0.0109721)
(3.85673e-06 -3.57756e-07 0.0110588)
(3.81911e-06 7.84683e-08 0.0111203)
(1.44193e-06 -1.80137e-06 0.0108853)
(2.15951e-06 -1.0826e-06 0.0110109)
(3.33175e-06 -3.93885e-07 0.0111006)
(4.04047e-06 1.89658e-07 0.0111602)
(1.1027e-06 1.16148e-06 0.0109149)
(3.18501e-06 1.48762e-06 0.0110437)
(4.67416e-06 1.29491e-06 0.0111304)
(5.18775e-06 9.44778e-07 0.0111835)
(1.84608e-07 3.17152e-07 0.0109213)
(1.3637e-06 1.91828e-07 0.0110533)
(2.87086e-06 -6.34175e-08 0.0111403)
(4.08815e-06 -2.52103e-07 0.0111915)
(1.62277e-06 -1.34791e-06 0.0108536)
(1.91804e-06 -8.14031e-07 0.0109697)
(2.29895e-06 -5.67265e-07 0.011057)
(2.20184e-06 -2.85514e-07 0.0111191)
(1.00751e-06 -1.2387e-06 0.0108839)
(1.41426e-06 -8.05755e-07 0.0110096)
(2.10177e-06 -4.89372e-07 0.0110996)
(2.46482e-06 -2.44398e-07 0.0111597)
(7.23417e-07 9.91572e-08 0.010911)
(1.78199e-06 2.84394e-07 0.0110406)
(2.6159e-06 1.67512e-07 0.0111285)
(2.97252e-06 -1.35219e-08 0.0111829)
(2.35869e-07 -1.98703e-07 0.0109214)
(9.86811e-07 -2.64884e-07 0.0110535)
(1.87972e-06 -4.51261e-07 0.0111406)
(2.57428e-06 -6.08282e-07 0.0111923)
(1.11948e-06 -1.03652e-06 0.0108522)
(1.22903e-06 -7.21082e-07 0.0109685)
(1.43419e-06 -5.84907e-07 0.0110561)
(1.31907e-06 -4.08742e-07 0.0111185)
(7.14254e-07 -9.02938e-07 0.0108829)
(9.37713e-07 -6.4725e-07 0.0110088)
(1.34655e-06 -5.09982e-07 0.011099)
(1.53669e-06 -4.17599e-07 0.0111593)
(4.88173e-07 -3.0268e-07 0.010909)
(1.03509e-06 -1.92602e-07 0.0110391)
(1.52272e-06 -2.64604e-07 0.0111275)
(1.76548e-06 -3.66738e-07 0.0111825)
(2.09103e-07 -3.62102e-07 0.0109212)
(6.85268e-07 -4.00773e-07 0.0110533)
(1.22145e-06 -5.39439e-07 0.0111406)
(1.62886e-06 -6.60119e-07 0.0111926)
(7.86368e-07 -7.81237e-07 0.0108514)
(8.19256e-07 -5.94056e-07 0.0109679)
(9.29899e-07 -5.24375e-07 0.0110556)
(8.21254e-07 -4.17891e-07 0.0111182)
(5.14129e-07 -6.8305e-07 0.0108823)
(6.35783e-07 -5.34344e-07 0.0110083)
(8.81433e-07 -4.81293e-07 0.0110986)
(9.82871e-07 -4.5407e-07 0.0111592)
(3.38347e-07 -4.07862e-07 0.010908)
(6.29726e-07 -3.4242e-07 0.0110383)
(9.26252e-07 -3.91032e-07 0.011127)
(1.09066e-06 -4.53072e-07 0.0111823)
(1.63052e-07 -3.76902e-07 0.0109209)
(4.64523e-07 -4.01847e-07 0.0110531)
(7.9456e-07 -5.01439e-07 0.0111405)
(1.0447e-06 -5.88238e-07 0.0111926)
(5.52123e-07 -5.71946e-07 0.010851)
(5.59023e-07 -4.61122e-07 0.0109675)
(6.18619e-07 -4.2865e-07 0.0110554)
(5.29707e-07 -3.65854e-07 0.011118)
(3.6948e-07 -5.13843e-07 0.010882)
(4.39049e-07 -4.28116e-07 0.011008)
(5.88321e-07 -4.11752e-07 0.0110984)
(6.43195e-07 -4.08963e-07 0.011159)
(2.37032e-07 -3.80766e-07 0.0109075)
(4.01269e-07 -3.42408e-07 0.0110378)
(5.8781e-07 -3.76723e-07 0.0111267)
(6.97176e-07 -4.15829e-07 0.0111822)
(1.2e-07 -3.23664e-07 0.0109206)
(3.1316e-07 -3.40495e-07 0.0110529)
(5.21729e-07 -4.09796e-07 0.0111404)
(6.81313e-07 -4.69176e-07 0.0111926)
(3.74198e-07 -3.94615e-07 0.0108508)
(3.77707e-07 -3.28966e-07 0.0109673)
(4.11996e-07 -3.13647e-07 0.0110552)
(3.50558e-07 -2.76233e-07 0.0111179)
(2.55426e-07 -3.62187e-07 0.0108817)
(3.01904e-07 -3.11869e-07 0.0110078)
(3.9394e-07 -3.07795e-07 0.0110982)
(4.25885e-07 -3.10883e-07 0.0111589)
(1.61664e-07 -2.89235e-07 0.0109072)
(2.6331e-07 -2.66638e-07 0.0110376)
(3.82859e-07 -2.89636e-07 0.0111266)
(4.54663e-07 -3.13365e-07 0.0111822)
(8.41811e-08 -2.32618e-07 0.0109204)
(2.11243e-07 -2.44074e-07 0.0110528)
(3.45512e-07 -2.90319e-07 0.0111403)
(4.49551e-07 -3.27762e-07 0.0111926)
(2.37111e-07 -2.44775e-07 0.0108507)
(2.51134e-07 -2.05086e-07 0.0109672)
(2.78706e-07 -1.94803e-07 0.0110551)
(2.50937e-07 -1.70937e-07 0.0111178)
(1.62447e-07 -2.20082e-07 0.0108816)
(2.05678e-07 -1.89728e-07 0.0110077)
(2.68235e-07 -1.86692e-07 0.0110981)
(2.96753e-07 -1.8721e-07 0.0111588)
(1.02421e-07 -1.69518e-07 0.010907)
(1.77263e-07 -1.56524e-07 0.0110375)
(2.58665e-07 -1.68905e-07 0.0111265)
(3.12599e-07 -1.8018e-07 0.0111821)
(5.67548e-08 -1.1995e-07 0.0109203)
(1.47526e-07 -1.27657e-07 0.0110527)
(2.39081e-07 -1.5488e-07 0.0111402)
(3.12842e-07 -1.75905e-07 0.0111925)
(1.63552e-07 -1.6772e-07 0.0108505)
(1.93514e-07 -1.47125e-07 0.010967)
(2.35661e-07 -1.34539e-07 0.0110549)
(2.53344e-07 -1.16856e-07 0.0111177)
(1.09734e-07 -1.42457e-07 0.0108814)
(1.64397e-07 -1.2606e-07 0.0110075)
(2.26907e-07 -1.17231e-07 0.011098)
(2.74963e-07 -1.11684e-07 0.0111587)
(6.74656e-08 -9.41203e-08 0.0109068)
(1.42795e-07 -8.87241e-08 0.0110373)
(2.21221e-07 -9.19219e-08 0.0111263)
(2.8313e-07 -9.32717e-08 0.0111819)
(4.19209e-08 -4.05734e-08 0.0109201)
(1.25328e-07 -4.94457e-08 0.0110525)
(2.1109e-07 -6.48526e-08 0.01114)
(2.84272e-07 -7.58996e-08 0.0111924)
(-0.00250178 -0.00185897 0.0211839)
(-0.000301446 0.000663989 0.00899694)
(-0.000221464 0.000995737 0.0179551)
(0.000405455 0.000510642 0.00823485)
(-0.00101209 -0.00251123 0.0145436)
(0.000492217 0.000299449 0.02679)
(-0.00013106 0.00102602 0.0150277)
(-0.000117267 0.00102165 0.0135906)
(9.49099e-05 -0.000913851 0.0142714)
(0.000559929 -0.00197608 0.0175641)
(0.000139447 -0.00110888 0.016342)
(-5.39934e-06 -0.00188446 0.022657)
(7.32407e-05 -0.00218726 0.0182949)
(-0.000114955 -0.00102741 0.0143093)
(0.000166457 -0.00120175 0.0164463)
(0.000455513 -0.000540171 0.00358931)
(0.000723221 -0.000209776 0.0310016)
(0.000576805 0.0015755 0.0302751)
(0.000274686 0.000600601 0.0122771)
(-0.00321359 -0.00103052 0.0322492)
(0.000968562 0.000273655 0.00637785)
(0.000951602 0.000906968 0.0142429)
(-0.000895542 0.00132894 0.0272291)
(-0.00302539 -0.00338143 0.0342664)
(0.00133446 -0.000626159 0.012858)
(-0.00138936 -0.000985821 0.0265048)
(-0.00404011 -0.000222002 0.0305571)
(-0.00115043 0.000840263 0.0151092)
(0.000453712 -0.0062659 0.0315283)
(-0.000500578 -0.00267527 0.014665)
(0.000201639 -0.000970516 0.0136821)
(-0.00229971 0.00069365 0.0357358)
(0.00108906 -0.00157132 0.0278905)