/*--------------------------------*- C++ -*----------------------------------*\
| =========                 |                                                 |
| \\      /  F ield         | OpenFOAM: The Open Source CFD Toolbox           |
|  \\    /   O peration     | Version:  2506                                  |
|   \\  /    A nd           | Website:  www.openfoam.com                      |
|    \\/     M anipulation  |                                                 |
\*---------------------------------------------------------------------------*/
FoamFile
{
    version     2.0;
    format      ascii;
    arch        "LSB;label=32;scalar=64";
    class       volScalarField;
    location    "0.05";
    object      voidfraction;
}
// * * * * * * * * * * * * * * * * * * * * * * * * * * * * * * * * * * * * * //

dimensions      [0 0 0 0 0 0 0];

internalField   nonuniform List<scalar> 
1152
(
0.396963
0.454897
0.460163
0.383796
0.42593
0.475963
0.378529
0.381163
0.444363
0.436463
0.46543
0.436463
0.41013
0.544431
0.475963
0.42593
0.391696
0.444363
0.475963
0.304796
0.404863
0.446997
0.362729
0.381163
0.40223
0.46543
0.462797
0.344296
0.431196
0.38643
0.415396
0.360096
0.357463
0.399596
0.339029
0.310062
0.349563
0.362729
0.46543
0.41803
0.389063
0.40223
0.370629
0.446997
0.373263
0.483863
0.328496
0.383796
0.399596
0.452263
0.349563
0.44173
0.48123
0.391696
0.412763
0.420663
0.349563
0.399596
0.38643
0.320596
0.39433
0.478597
0.415396
0.49703
0.362729
0.381163
0.365363
0.407496
0.391696
0.431196
0.439097
0.38643
0.404863
0.42593
0.357463
0.51283
0.431196
0.354829
0.331129
0.370629
0.375896
0.44963
0.44963
0.446997
0.428563
0.43383
0.391696
0.45753
0.436463
0.452263
0.367996
0.439097
0.44173
0.428563
0.415396
0.352196
0.734032
0.697165
0.670831
0.607631
0.781432
0.681365
0.602364
0.53653
0.739298
0.673465
0.618164
0.702431
0.747198
0.602364
0.539164
0.599731
1
1
1
1
1
1
1
1
1
1
1
1
1
1
1
1
1
1
1
1
1
1
1
1
1
1
1
1
1
1
1
1
1
1
1
1
1
1
1
1
1
1
1
1
1
1
1
1
1
1
1
1
1
1
1
1
1
1
1
1
1
1
1
1
1
1
1
1
1
1
1
1
1
1
1
1
1
1
1
1
1
1
1
1
1
1
1
1
1
1
1
1
1
1
1
1
1
1
1
1
1
1
1
1
1
1
1
1
1
1
1
1
1
1
1
1
1
1
1
1
1
1
1
1
1
1
1
1
1
1
1
1
1
1
1
1
1
1
1
1
1
1
1
1
1
1
1
1
1
1
1
1
1
1
1
1
1
1
1
1
1
1
1
1
1
1
1
1
1
1
1
1
1
1
1
1
1
1
1
1
1
1
1
1
1
1
1
1
1
1
1
1
1
1
1
1
1
1
1
1
1
1
1
1
1
1
1
1
1
1
1
1
1
1
1
1
1
1
1
1
1
1
1
1
1
1
1
1
1
1
1
1
1
1
1
1
1
1
1
1
1
1
1
1
1
1
1
1
1
1
1
1
1
1
1
1
1
1
1
1
1
1
1
1
1
1
1
1
1
1
1
1
0.463137
0.436882
0.463241
0.430467
0.384702
0.44212
0.446022
0.467211
0.443532
0.473537
0.420699
0.426138
0.418358
0.410519
0.471586
0.468757
0.47123
0.44307
0.390705
0.373514
0.376005
0.444556
0.398934
0.419068
0.422569
0.384736
0.370841
0.388241
0.387933
0.418432
0.416313
0.41864
0.463137
0.433788
0.390705
0.417324
0.465147
0.432375
0.404474
0.48005
0.411135
0.407993
0.427821
0.363879
0.386144
0.376891
0.33893
0.441193
0.430763
0.390471
0.397959
0.294655
0.345566
0.471354
0.385085
0.431906
0.430192
0.437593
0.434944
0.399069
0.45773
0.353154
0.367672
0.411122
0.465835
0.378095
0.4306
0.342847
0.399921
0.422631
0.393394
0.422277
0.460683
0.38685
0.442066
0.428845
0.411199
0.396673
0.422946
0.408616
0.417274
0.337872
0.423346
0.461134
0.410792
0.388525
0.404474
0.428697
0.395889
0.420679
0.361344
0.401776
0.436254
0.414476
0.445055
0.446204
0.673566
0.702971
0.786022
0.798473
0.628212
0.75882
0.831037
0.817055
0.771314
0.87737
0.788697
0.761793
0.665332
0.762625
0.843024
0.754425
1
1
1
1
1
1
1
1
1
1
1
1
1
1
1
1
1
1
1
1
1
1
1
1
1
1
1
1
1
1
1
1
1
1
1
1
1
1
1
1
1
1
1
1
1
1
1
1
1
1
1
1
1
1
1
1
1
1
1
1
1
1
1
1
1
1
1
1
1
1
1
1
1
1
1
1
1
1
1
1
1
1
1
1
1
1
1
1
1
1
1
1
1
1
1
1
1
1
1
1
1
1
1
1
1
1
1
1
1
1
1
1
1
1
1
1
1
1
1
1
1
1
1
1
1
1
1
1
1
1
1
1
1
1
1
1
1
1
1
1
1
1
1
1
1
1
1
1
1
1
1
1
1
1
1
1
1
1
1
1
1
1
1
1
1
1
1
1
1
1
1
1
1
1
1
1
1
1
1
1
1
1
1
1
1
1
1
1
1
1
1
1
1
1
1
1
1
1
1
1
1
1
1
1
1
1
1
1
1
1
1
1
1
1
1
1
1
1
1
1
1
1
1
1
1
1
1
1
1
1
1
1
1
1
1
1
1
1
1
1
1
1
1
1
1
1
1
1
1
1
1
1
1
1
1
1
1
1
1
1
1
1
1
1
1
1
1
1
1
1
1
1
0.500906
0.421663
0.468306
0.391513
0.418317
0.444556
0.424908
0.416454
0.412466
0.418323
0.434944
0.476008
0.434848
0.40623
0.420724
0.368523
0.460439
0.436883
0.382549
0.439834
0.353342
0.393397
0.439708
0.45206
0.390705
0.423863
0.453937
0.407469
0.439229
0.40302
0.401776
0.456228
0.419972
0.380354
0.405417
0.429096
0.393565
0.485971
0.439708
0.418432
0.506762
0.357386
0.413576
0.378727
0.373514
0.444744
0.423431
0.46124
0.463137
0.410792
0.403512
0.482786
0.368812
0.44212
0.403764
0.422388
0.394332
0.407244
0.385086
0.425157
0.430467
0.354876
0.404483
0.378546
0.468532
0.402096
0.403512
0.455941
0.375
0.454301
0.41645
0.404585
0.408839
0.423863
0.385086
0.374305
0.3998
0.415858
0.412603
0.413628
0.425368
0.456451
0.430192
0.488155
0.433788
0.454301
0.403764
0.398651
0.397959
0.412784
0.38746
0.425157
0.303417
0.435116
0.442379
0.463745
0.568351
0.60647
0.622669
0.617011
0.641089
0.556619
0.594052
0.64196
0.702606
0.628835
0.712724
0.796594
0.715233
0.711139
0.686
0.67925
1
1
0.998094
1
1
1
1
1
1
1
1
1
1
1
1
1
1
1
1
1
1
1
1
1
1
1
1
1
1
1
1
1
1
1
1
1
1
1
1
1
1
1
1
1
1
1
1
1
1
1
1
1
1
1
1
1
1
1
1
1
1
1
1
1
1
1
1
1
1
1
1
1
1
1
1
1
1
1
1
1
1
1
1
1
1
1
1
1
1
1
1
1
1
1
1
1
1
1
1
1
1
1
1
1
1
1
1
1
1
1
1
1
1
1
1
1
1
1
1
1
1
1
1
1
1
1
1
1
1
1
1
1
1
1
1
1
1
1
1
1
1
1
1
1
1
1
1
1
1
1
1
1
1
1
1
1
1
1
1
1
1
1
1
1
1
1
1
1
1
1
1
1
1
1
1
1
1
1
1
1
1
1
1
1
1
1
1
1
1
1
1
1
1
1
1
1
1
1
1
1
1
1
1
1
1
1
1
1
1
1
1
1
1
1
1
1
1
1
1
1
1
1
1
1
1
1
1
1
1
1
1
1
1
1
1
1
1
1
1
1
1
1
1
1
1
1
1
1
1
1
1
1
1
1
1
1
1
1
1
1
1
1
1
1
1
1
1
1
1
1
1
1
)
;

boundaryField
{
    inlet
    {
        type            fixedValue;
        value           uniform 1;
    }
    outlet
    {
        type            fixedValue;
        value           uniform 1;
    }
    wall
    {
        type            zeroGradient;
    }
    procBoundary0to1
    {
        type            processor;
        value           nonuniform List<scalar> 
192
(
0.544431
0.44173
0.452263
0.404863
0.399596
0.404863
0.428563
0.412763
0.491764
0.349563
0.373263
0.40223
0.354829
0.378529
0.444363
0.341663
0.42593
0.439097
0.396963
0.452263
0.365363
0.475963
0.375896
0.415396
0.715598
0.670831
0.631331
0.515464
1
1
1
0.997367
1
1
1
1
1
1
1
1
1
1
1
1
1
1
1
1
1
1
1
1
1
1
1
1
1
1
1
1
1
1
1
1
1
1
1
1
1
1
1
1
1
1
1
1
1
1
1
1
1
1
1
1
1
1
1
1
1
1
1
1
1
1
1
1
0.538266
0.442169
0.476008
0.483792
0.414778
0.412498
0.429578
0.441193
0.364668
0.374913
0.391992
0.325923
0.344981
0.34722
0.447266
0.363511
0.395092
0.414476
0.429578
0.383558
0.348561
0.471841
0.383149
0.381052
0.686808
0.725041
0.770063
0.82459
1
1
1
1
1
1
1
1
1
1
1
1
1
1
1
1
1
1
1
1
1
1
1
1
1
1
1
1
1
1
1
1
1
1
1
1
1
1
1
1
1
1
1
1
1
1
1
1
1
1
1
1
1
1
1
1
1
1
1
1
1
1
1
1
1
1
1
1
)
;
    }
    procBoundary0to2
    {
        type            processor;
        value           nonuniform List<scalar> 
192
(
0.42593
0.381163
0.407496
0.357463
0.415396
0.378529
0.41803
0.317962
0.444363
0.357463
0.399596
0.47333
0.420663
0.367996
0.396963
0.452263
0.349563
0.399596
0.412763
0.412763
0.475963
0.391696
0.383796
0.339029
0.633964
0.615531
0.599731
0.604998
1
1
1
1
1
1
1
1
1
1
1
1
1
1
1
1
1
1
1
1
1
1
1
1
1
1
1
1
1
1
1
1
1
1
1
1
1
1
1
1
1
1
1
1
1
1
1
1
1
1
1
1
1
1
1
1
1
1
1
1
1
1
1
1
1
1
1
1
0.454151
0.461951
0.378727
0.456228
0.362878
0.426344
0.341141
0.358499
0.446992
0.503491
0.418524
0.453722
0.411199
0.459973
0.418524
0.436181
0.439834
0.398651
0.356617
0.423652
0.441623
0.497557
0.38536
0.438687
0.753026
0.859553
0.805438
0.794519
1
1
1
1
1
1
1
1
1
1
1
1
1
1
1
1
1
1
1
1
1
1
1
1
1
1
1
1
1
1
1
1
1
1
1
1
1
1
1
1
1
1
1
1
1
1
1
1
1
1
1
1
1
1
1
1
1
1
1
1
1
1
1
1
1
1
1
1
)
;
    }
}


// ************************************************************************* //
