FoamFile
{version 2.0; format ascii;class Cloud<passiveParticle>; location 0;object  positions;}
2500
(
( -0.00234893 0.000121994 0.00185829 ) 0 
( -0.0118219 1.93022e-05 0.00603505 ) 0 
( -0.0123987 0.000662843 0.00324046 ) 0 
( -0.0123323 0.00041891 0.0022414 ) 0 
( -0.00881449 0.000171492 0.00589072 ) 0 
( -0.00849824 7.15019e-05 0.00387975 ) 0 
( -0.00226091 0.000633759 0.00792259 ) 0 
( -0.00319357 0.000157576 0.00132449 ) 0 
( -0.0119533 0.000126289 0.00136332 ) 0 
( -0.00427712 0.000159976 0.00635984 ) 0 
( -0.000285424 5.08962e-05 0.00300379 ) 0 
( -0.0111038 0.000133943 0.00672177 ) 0 
( -0.0133433 0.000425062 0.00213413 ) 0 
( -0.00590112 0.000210241 0.00363177 ) 0 
( -0.00375666 0.000113767 0.000499589 ) 0 
( -0.00830359 0.000297682 0.00270256 ) 0 
( -0.00525952 0.000394859 0.00844309 ) 0 
( -0.0094115 1.0012e-05 0.0132509 ) 0 
( -0.00485769 2.57163e-05 0.0131965 ) 0 
( -0.00562477 8.95679e-06 0.0125558 ) 0 
( -0.0111132 0.00155061 0.0143926 ) 0 
( -0.0113369 0.00334277 0.0151671 ) 0 
( -0.00776012 0.000676685 0.0145127 ) 0 
( -0.00667455 0.000257652 0.0148163 ) 0 
( -0.000899219 0.000116919 0.0109727 ) 0 
( -0.00691391 8.73523e-05 0.013419 ) 0 
( -0.0127763 0.000253616 0.0122896 ) 0 
( -0.01087 0.000592771 0.0142401 ) 0 
( -0.00828518 0.000511894 0.0131984 ) 0 
( -0.00593729 0.000296955 0.0134604 ) 0 
( -0.00236739 7.54912e-05 0.0118539 ) 0 
( -0.00286877 2.32941e-05 0.0093202 ) 0 
( -0.00910763 0.00100233 0.00161211 ) 0 
( -0.00112428 0.00972573 0.00123745 ) 0 
( -0.00619153 0.00407265 0.00427186 ) 0 
( -0.00542954 0.00372514 0.00728635 ) 0 
( -0.00200023 0.00563558 0.00339584 ) 0 
( -0.000588639 0.011584 0.00773256 ) 0 
( -0.00113358 0.0120183 0.00148541 ) 0 
( -0.0125207 0.00186566 0.00142578 ) 0 
( -0.00660518 0.00615017 0.00503854 ) 0 
( -0.00264484 0.0108882 0.0075241 ) 0 
( -0.0120636 0.00248086 0.000499768 ) 0 
( -0.00340566 0.00878339 0.00474274 ) 0 
( -0.00996548 0.00260164 0.000499693 ) 0 
( -0.00984264 0.00763916 0.000499589 ) 0 
( -0.0105856 0.00649937 0.00316468 ) 0 
( -0.00728584 0.0043448 0.00213251 ) 0 
( -0.00441922 0.00550696 0.00364345 ) 0 
( -0.0033184 0.00538821 0.00335984 ) 0 
( -0.0109798 0.00570965 0.00119382 ) 0 
( -0.012064 0.000978462 0.00624701 ) 0 
( -0.00761686 0.00630231 0.00642974 ) 0 
( -0.00261992 0.00164757 0.00570482 ) 0 
( -0.00386485 0.00886995 0.0056268 ) 0 
( -0.00526781 0.00433373 0.00513739 ) 0 
( -0.00551795 0.0060633 0.00223259 ) 0 
( -0.00672414 0.00932444 0.00049963 ) 0 
( -0.00035907 0.00519225 0.00469162 ) 0 
( -0.0110905 0.00310626 0.000499795 ) 0 
( -0.00112586 0.0104334 0.00346773 ) 0 
( -0.0085822 0.00920245 0.00599632 ) 0 
( -0.000658395 0.00729323 0.00559531 ) 0 
( -0.00634387 0.000458459 0.00203424 ) 0 
( -0.00533521 0.00931807 0.00197443 ) 0 
( -0.012324 0.00513248 0.00497721 ) 0 
( -0.0016522 0.0050158 0.00123337 ) 0 
( -0.000936147 0.0034356 0.00363463 ) 0 
( -0.0126524 0.00425927 0.000499723 ) 0 
( -0.000831134 0.00778944 0.00404539 ) 0 
( -0.00698471 0.00974305 0.00237685 ) 0 
( -0.00549891 0.00219995 0.00766311 ) 0 
( -0.00329447 0.00942846 0.0062429 ) 0 
( -0.00170898 0.00779444 0.00693532 ) 0 
( -0.0104817 0.00322361 0.0022697 ) 0 
( -0.00361467 0.0061225 0.00521333 ) 0 
( -0.00116084 0.00433341 0.00703263 ) 0 
( -0.00128365 0.00937215 0.00346756 ) 0 
( -0.0111201 0.00464211 0.0035485 ) 0 
( -0.00318276 0.00873849 0.000499737 ) 0 
( -0.000574015 0.0126465 0.00407596 ) 0 
( -0.0106363 0.00159975 0.00134574 ) 0 
( -0.00847756 0.00371117 0.00403241 ) 0 
( -0.00898852 0.00797142 0.00600806 ) 0 
( -0.0050358 0.00307946 0.000949314 ) 0 
( -0.00199743 0.00443102 0.000499587 ) 0 
( -0.00168546 0.0103911 0.00429601 ) 0 
( -0.00301318 0.0023406 0.00509943 ) 0 
( -0.00950356 0.000362232 0.00444263 ) 0 
( -0.00377897 0.0102984 0.00613337 ) 0 
( -0.00312006 0.0120595 0.00718799 ) 0 
( -0.0069628 0.00319725 0.00522211 ) 0 
( -0.00800719 0.00454898 0.00375532 ) 0 
( -0.00324433 0.00552467 0.00598629 ) 0 
( -0.0100526 0.00724624 0.00139452 ) 0 
( -0.00164729 0.00130503 0.00293197 ) 0 
( -0.00579827 0.00715219 0.00366597 ) 0 
( -0.00103273 0.00801514 0.00213717 ) 0 
( -0.00583749 0.00135291 0.00717675 ) 0 
( -0.00267117 0.00111878 0.00712959 ) 0 
( -0.000652271 0.00494965 0.00351294 ) 0 
( -0.00383878 0.00979567 0.00524996 ) 0 
( -0.00724355 0.0100249 0.00136565 ) 0 
( -0.00436911 0.0106902 0.00214675 ) 0 
( -0.00533148 0.00838613 0.00517725 ) 0 
( -0.00592243 0.010431 0.0066114 ) 0 
( -0.011934 0.00476749 0.00413187 ) 0 
( -0.00496438 0.00285741 0.00192159 ) 0 
( -0.00188153 0.010787 0.00659752 ) 0 
( -0.00218317 0.00446135 0.00477502 ) 0 
( -0.00556967 0.00060065 0.00141677 ) 0 
( -0.00228429 0.000802611 0.00612296 ) 0 
( -0.00968654 0.00394925 0.00524649 ) 0 
( -0.0104359 0.00308483 0.0012805 ) 0 
( -0.00143875 0.00675607 0.0070931 ) 0 
( -0.00270168 0.00566425 0.00241317 ) 0 
( -0.00796529 0.000479397 0.00746466 ) 0 
( -0.0121179 0.00245091 0.00330886 ) 0 
( -0.00282182 0.0112396 0.00437018 ) 0 
( -0.000612473 0.0104783 0.00674615 ) 0 
( -0.00272548 0.00281786 0.00244456 ) 0 
( -0.00191607 0.00977379 0.00186661 ) 0 
( -0.00441406 0.00574516 0.00699079 ) 0 
( -0.0059907 0.00530544 0.00142748 ) 0 
( -0.0068738 0.0028327 0.00394253 ) 0 
( -0.00690395 0.00116068 0.00758109 ) 0 
( -0.00448419 0.00349893 0.0025198 ) 0 
( -0.0109165 0.00410292 0.0066252 ) 0 
( -0.00895818 0.00588015 0.00416096 ) 0 
( -0.00408746 0.00228519 0.00293368 ) 0 
( -0.00303926 0.00256682 0.00615317 ) 0 
( -0.000134804 0.0030788 0.00195994 ) 0 
( -0.00327933 0.00904346 0.00262111 ) 0 
( -0.00669474 0.0115501 0.00564096 ) 0 
( -0.00234552 0.00706735 0.00486731 ) 0 
( -0.00775134 0.00257628 0.00353752 ) 0 
( -0.00337538 0.0032556 0.00492112 ) 0 
( -0.0113725 0.000794402 0.00554346 ) 0 
( -0.00990297 0.00743003 0.00236769 ) 0 
( -0.0111989 0.00429026 0.00461335 ) 0 
( -0.00102439 0.00342732 0.00804559 ) 0 
( -0.00771006 0.00662322 0.0073728 ) 0 
( -0.00167722 0.000818927 0.000499713 ) 0 
( -0.0130489 0.00281871 0.0061028 ) 0 
( -0.0038285 0.00646913 0.00735423 ) 0 
( -0.000962866 0.00162227 0.00490503 ) 0 
( -0.000107604 0.00950549 0.0046756 ) 0 
( -0.00241426 0.00896927 0.00444232 ) 0 
( -9.81581e-05 0.00385444 0.00259113 ) 0 
( -0.011942 0.00590824 0.00583399 ) 0 
( -0.00792944 0.00751788 0.00697995 ) 0 
( -0.00476514 0.00405118 0.00795816 ) 0 
( -0.0121548 0.00289929 0.00140329 ) 0 
( -0.00450307 0.00344822 0.00623346 ) 0 
( -0.00377883 0.00512478 0.00745002 ) 0 
( -0.010075 0.00201581 0.00374238 ) 0 
( -0.0106474 0.00528962 0.00596539 ) 0 
( -0.00952936 0.000708363 0.00541082 ) 0 
( -0.00610091 0.00144414 0.00131847 ) 0 
( -0.00325865 0.000813067 0.00392593 ) 0 
( -0.00765438 0.000208564 0.00837551 ) 0 
( -0.0113837 0.00696686 0.00509094 ) 0 
( -0.00335799 0.0107943 0.00365321 ) 0 
( -0.00454347 0.000493026 0.00500098 ) 0 
( -0.0050182 0.00255205 0.00320605 ) 0 
( -0.00889733 0.00626309 0.00310643 ) 0 
( -0.00445902 0.00784653 0.00716208 ) 0 
( -0.00584419 0.000656391 0.00627553 ) 0 
( -0.00556224 0.00792397 0.00206433 ) 0 
( -0.00308294 0.00688295 0.00558698 ) 0 
( -0.00281893 0.00758436 0.00624875 ) 0 
( -0.00130372 0.000386115 0.0077749 ) 0 
( -0.0127916 0.000714517 0.00135203 ) 0 
( -0.00978832 0.00621725 0.00371687 ) 0 
( -0.011901 0.00109919 0.00159399 ) 0 
( -0.00283569 0.0108288 0.000499611 ) 0 
( -0.00432272 0.00835204 0.00490435 ) 0 
( -0.00834842 0.00455304 0.00257094 ) 0 
( -0.00167562 0.00276705 0.0037127 ) 0 
( -0.00344037 0.0128993 0.00189553 ) 0 
( -0.00368493 0.00837693 0.00750569 ) 0 
( -0.00336676 0.00949079 0.00127334 ) 0 
( -0.00511823 0.0114065 0.00127694 ) 0 
( -0.0113421 0.00126447 0.000499731 ) 0 
( -0.00324781 0.00201333 0.00216186 ) 0 
( -0.00529825 0.0102248 0.00585811 ) 0 
( -0.00232333 0.00647139 0.00123439 ) 0 
( -0.00310068 0.000251905 0.00594671 ) 0 
( -0.00970387 0.00816099 0.00315958 ) 0 
( -0.0130767 0.00268742 0.00709364 ) 0 
( -0.00524632 0.00699999 0.00245638 ) 0 
( -0.00793429 0.00546826 0.00132909 ) 0 
( -0.00655484 0.00781304 0.00614021 ) 0 
( -0.00458644 0.00771608 0.00213188 ) 0 
( -0.00598234 0.0119346 0.00339721 ) 0 
( -0.00306415 0.0115542 0.00528768 ) 0 
( -0.00874779 0.00870692 0.00135338 ) 0 
( -0.0104718 0.00085777 0.00511194 ) 0 
( -0.00317016 0.00579112 0.00702013 ) 0 
( -0.0029066 0.0094283 0.00532131 ) 0 
( -0.010891 0.00118731 0.00358498 ) 0 
( -0.00369378 0.00583042 0.000500316 ) 0 
( -0.00967263 0.00567332 0.000499781 ) 0 
( -0.00217074 0.0122908 0.00248985 ) 0 
( -0.00500231 0.0100905 0.00273858 ) 0 
( -0.00705041 0.00505193 0.00535386 ) 0 
( -0.00603333 0.000905105 0.00804903 ) 0 
( -0.00710083 0.00706371 0.0046795 ) 0 
( -0.00556056 0.0016376 0.000499682 ) 0 
( -0.00383124 0.010736 0.000499697 ) 0 
( -0.00331751 0.00119026 0.00515294 ) 0 
( -0.00190042 0.00816369 0.00388324 ) 0 
( -6.94177e-05 0.00564292 0.00308339 ) 0 
( -0.0115552 0.00195991 0.00118563 ) 0 
( -0.00482905 0.00164835 0.00569883 ) 0 
( -0.0044195 0.00345335 0.00723508 ) 0 
( -0.00249627 0.00430752 0.0057252 ) 0 
( -0.00981988 0.00248443 0.00469453 ) 0 
( -0.0096933 0.00375723 0.00130812 ) 0 
( -0.00151173 0.0106102 0.0014966 ) 0 
( -0.00138227 0.00896938 0.0064004 ) 0 
( -0.00228832 0.0107083 0.0050279 ) 0 
( -0.0021494 0.00465314 0.00676744 ) 0 
( -0.00384906 0.00411288 0.00201379 ) 0 
( -0.00409043 0.000976135 0.0057501 ) 0 
( -0.000309655 0.00677543 0.00343923 ) 0 
( -0.00748028 0.00458262 0.00118087 ) 0 
( -0.00782817 0.0108137 0.00208745 ) 0 
( -0.00843697 0.00244481 0.00709596 ) 0 
( -0.00722132 0.00207586 0.00655428 ) 0 
( -0.00625944 0.00217022 0.00437082 ) 0 
( -0.00426961 0.00865513 0.00199768 ) 0 
( -0.00810825 0.00373385 0.00202155 ) 0 
( -0.0108847 0.00772903 0.00637508 ) 0 
( -0.00912517 0.00133904 0.000499829 ) 0 
( -0.00561136 0.00376222 0.000499602 ) 0 
( -0.00773301 0.00598856 0.000499581 ) 0 
( -0.00403245 0.0123052 0.00135049 ) 0 
( -0.00309643 0.0046502 0.00644769 ) 0 
( -0.00503258 0.000129464 0.000499803 ) 0 
( -0.0120468 0.00231496 0.00220805 ) 0 
( -0.00489426 0.0111222 0.00417679 ) 0 
( -0.00330686 0.000398322 0.00740658 ) 0 
( -0.0111985 0.00193502 0.007463 ) 0 
( -0.00206818 0.00386248 0.00814875 ) 0 
( -0.00430358 0.00323954 0.00375883 ) 0 
( -0.00273797 0.0114376 0.0027915 ) 0 
( -0.00138314 0.0132784 0.0018123 ) 0 
( -0.0121447 0.00402328 0.00178972 ) 0 
( -2.03314e-06 0.00296658 0.000499728 ) 0 
( -0.00866004 0.00488247 0.00443542 ) 0 
( -0.000842094 0.00829366 0.00690096 ) 0 
( -0.00292807 0.00676091 0.007032 ) 0 
( -0.00684796 0.00903043 0.00327134 ) 0 
( -0.00597681 0.00771089 0.00117974 ) 0 
( -7.24975e-05 0.0104688 0.00590467 ) 0 
( -0.00971203 0.00836948 0.00132202 ) 0 
( -0.00981229 0.00165451 0.00525235 ) 0 
( -0.0114679 0.0046135 0.00135035 ) 0 
( -0.00233302 0.00198631 0.0074938 ) 0 
( -0.00165025 0.00638943 0.000499623 ) 0 
( -0.00754219 0.00697096 0.000499729 ) 0 
( -0.00309353 0.00954587 0.0072387 ) 0 
( -0.00210212 0.0122655 0.0014926 ) 0 
( -0.00201329 0.0131973 0.00492329 ) 0 
( -0.00561209 0.0120968 0.00559191 ) 0 
( -0.00735925 0.00494307 0.00440733 ) 0 
( -0.00281058 0.00734363 0.00127342 ) 0 
( -0.00430484 0.00585181 0.00588425 ) 0 
( -0.0123403 0.00229019 0.00439975 ) 0 
( -0.00445375 0.00295027 0.0047043 ) 0 
( -0.00103329 0.00410761 0.00288997 ) 0 
( -0.00398586 0.00977761 0.0020043 ) 0 
( -0.00623121 0.00155313 0.00878455 ) 0 
( -0.00367367 0.0128348 0.00595397 ) 0 
( -0.00668625 0.00804812 0.00363062 ) 0 
( -0.00132553 0.00277762 0.00132448 ) 0 
( -0.00445031 0.00377308 0.0052725 ) 0 
( -0.00893779 0.00353155 0.00576138 ) 0 
( -0.00484173 0.00545227 0.00791015 ) 0 
( -0.00015395 0.0119887 0.00128 ) 0 
( -0.00176006 0.00301635 0.0085833 ) 0 
( -0.00372297 0.002956 0.00210508 ) 0 
( -0.000181018 0.00714825 0.000499649 ) 0 
( -0.000105907 0.00994641 0.0022064 ) 0 
( -0.00854911 0.00602064 0.00665634 ) 0 
( -0.00127535 0.00923763 0.00543753 ) 0 
( -0.00582504 0.00243622 0.00546936 ) 0 
( -0.00221869 0.00344491 0.00614746 ) 0 
( -0.0102466 0.00743059 0.00357427 ) 0 
( -7.34574e-05 0.0108114 0.00284846 ) 0 
( -0.00101092 0.00843195 0.00326367 ) 0 
( -0.00506906 0.00509463 0.00180239 ) 0 
( -0.00163361 0.00523318 0.00444413 ) 0 
( -0.00540585 0.0102464 0.00432441 ) 0 
( -0.00138292 0.00589596 0.00520209 ) 0 
( -0.00373352 0.00391287 0.00667094 ) 0 
( -0.00990994 0.00894518 0.00739003 ) 0 
( -0.00139158 0.00751023 0.00318876 ) 0 
( -0.00611568 0.0110856 0.000499729 ) 0 
( -0.00253662 0.0044734 0.00134049 ) 0 
( -0.00714647 0.00611347 0.00418924 ) 0 
( -0.012022 0.00348299 0.000499808 ) 0 
( -0.0116456 0.00159525 0.00304551 ) 0 
( -0.00638252 0.0102326 0.00456153 ) 0 
( -0.00925317 0.000326201 0.00233437 ) 0 
( -0.00450162 0.00217193 0.00818326 ) 0 
( -0.00281091 0.0130458 0.00433437 ) 0 
( -0.0098131 0.00786777 0.00481524 ) 0 
( -0.000332701 0.00772212 0.00307256 ) 0 
( -0.00733278 0.000124482 0.00170725 ) 0 
( -0.00993395 0.00336456 0.00417592 ) 0 
( -8.42797e-05 0.000533819 0.00188626 ) 0 
( -0.00548706 0.00927655 0.00560427 ) 0 
( -0.00680227 0.00505839 0.00338443 ) 0 
( -0.00362748 0.00450619 0.00106057 ) 0 
( -0.0112996 0.00184472 0.00646911 ) 0 
( -0.00462711 0.00199581 0.000499834 ) 0 
( -0.000111853 0.000541486 0.000499776 ) 0 
( -0.00386159 0.00164376 0.00762556 ) 0 
( -0.000619258 0.00595072 0.00391268 ) 0 
( -0.00721705 0.00779688 0.00536742 ) 0 
( -0.00390306 0.00236865 0.00131609 ) 0 
( -0.00683137 0.00889727 0.00687648 ) 0 
( -0.00702269 0.00831428 0.00453386 ) 0 
( -0.00834336 0.00272054 0.00143853 ) 0 
( -0.0039412 0.00285286 0.00564114 ) 0 
( -0.000784523 0.0101707 0.00526934 ) 0 
( -0.00159363 0.0113379 0.00318476 ) 0 
( -0.0133119 0.00100889 0.00602433 ) 0 
( -0.00841784 0.00274842 0.00429571 ) 0 
( -0.00923194 0.00964209 0.00536566 ) 0 
( -0.000260034 0.00726621 0.00467762 ) 0 
( -0.00984199 0.00697317 0.00436934 ) 0 
( -0.00924687 0.00780963 0.00399303 ) 0 
( -0.0117814 0.00627875 0.00144589 ) 0 
( -0.00289723 0.00980791 0.00209718 ) 0 
( -0.010902 0.00770539 0.000499769 ) 0 
( -0.00345054 0.00633956 0.00293426 ) 0 
( -1.105e-05 0.00125311 0.00119547 ) 0 
( -0.00473755 0.00444963 0.00599417 ) 0 
( -0.000728657 0.0016635 0.00747375 ) 0 
( -0.0115159 0.00487196 0.00640375 ) 0 
( -0.000564215 0.00502135 0.00237001 ) 0 
( -0.00404576 0.0111288 0.0066315 ) 0 
( -0.00891882 0.00686496 0.00399159 ) 0 
( -0.0125552 0.00358777 0.00569688 ) 0 
( -0.0125173 0.00458752 0.00579467 ) 0 
( -0.0110638 0.00216336 0.0037193 ) 0 
( -0.00739297 0.00170008 0.00409327 ) 0 
( -0.000733554 0.00968808 0.00614656 ) 0 
( -0.00285967 0.0130387 0.000499714 ) 0 
( -0.00673457 0.00602637 0.0073002 ) 0 
( -0.00818348 0.000647587 0.00175842 ) 0 
( -0.0128522 0.00361243 0.00677786 ) 0 
( -0.00808271 0.00761406 0.00228227 ) 0 
( -0.00933304 0.00415286 0.00430817 ) 0 
( -0.00178164 0.0114845 0.00202837 ) 0 
( -0.0100011 0.0088428 0.00493895 ) 0 
( -0.00325686 0.00116755 0.00631749 ) 0 
( -0.0122926 0.00195648 0.00643613 ) 0 
( -0.0114792 0.000379434 0.00354783 ) 0 
( -0.000929074 0.00742388 0.001103 ) 0 
( -0.00690762 0.0104013 0.0064326 ) 0 
( -0.00330011 0.00774536 0.000499708 ) 0 
( -0.0109001 0.0059657 0.00676945 ) 0 
( -0.00676273 0.00441237 0.000499743 ) 0 
( -0.00145098 0.00184442 0.00402609 ) 0 
( -0.00837223 0.0084568 0.00662853 ) 0 
( -0.00999385 0.00371842 0.00617937 ) 0 
( -0.00596329 0.0068344 0.0074233 ) 0 
( -0.0117916 0.00169977 0.0056098 ) 0 
( -0.0012852 0.00655976 0.00348078 ) 0 
( -0.00131755 0.0018172 0.00591211 ) 0 
( -0.00209869 0.00236155 0.00180294 ) 0 
( -0.000453818 0.0096492 0.000499694 ) 0 
( -0.00489413 0.00094547 0.00640721 ) 0 
( -0.00113853 0.00681855 0.00451141 ) 0 
( -0.000882679 0.00684655 0.00246091 ) 0 
( -0.00146142 0.0123944 0.00468362 ) 0 
( -0.00496927 0.0113841 0.00691706 ) 0 
( -0.000788811 0.00127724 0.000499742 ) 0 
( -0.0108913 0.00361258 0.00383169 ) 0 
( -0.00196531 0.0116142 0.00741934 ) 0 
( -0.00315854 0.00369246 0.00141393 ) 0 
( -0.001199 0.00972113 0.00703366 ) 0 
( -0.00949539 0.0043112 0.000499627 ) 0 
( -0.0102138 0.00699789 0.00533563 ) 0 
( -0.000590112 0.00430678 0.00785342 ) 0 
( -0.011902 0.0032823 0.00241574 ) 0 
( -0.00873264 0.00601394 0.000499673 ) 0 
( -0.00873035 0.00120546 0.00251656 ) 0 
( -0.00182827 0.0115323 0.00432574 ) 0 
( -0.00654994 0.00701701 0.00553479 ) 0 
( -0.0110252 0.000653465 0.00140941 ) 0 
( -0.0108499 0.00213573 0.000499725 ) 0 
( -0.00263115 0.00531166 0.00771176 ) 0 
( -0.00411028 0.0113098 0.00140581 ) 0 
( -0.00941373 0.00628635 0.00495721 ) 0 
( -0.00190609 0.00619275 0.00437297 ) 0 
( -0.00482609 0.00770673 0.0062429 ) 0 
( -0.00416506 0.00288247 0.000499515 ) 0 
( -0.00959436 0.00667049 0.000499799 ) 0 
( -0.00543719 0.00223129 0.00129472 ) 0 
( -0.00636307 0.00532889 0.000499804 ) 0 
( -0.00274884 0.00522791 0.00508111 ) 0 
( -0.00633217 0.00409739 0.00750173 ) 0 
( -0.00235232 0.00613558 0.00526582 ) 0 
( -0.0106254 0.0018493 0.00470275 ) 0 
( -0.00183086 0.00417872 0.00198458 ) 0 
( -0.00353251 0.00665001 0.00133637 ) 0 
( -0.00699934 0.00293007 0.00273157 ) 0 
( -0.00382126 0.00414422 0.00764002 ) 0 
( -0.0081347 0.010585 0.00512704 ) 0 
( -0.000681893 0.0111409 0.00132541 ) 0 
( -0.00752959 0.0081164 0.000499706 ) 0 
( -0.00309444 0.00222113 0.00327891 ) 0 
( -0.00040729 0.0056996 0.00654613 ) 0 
( -0.00107283 0.00352664 0.00198137 ) 0 
( -0.00352942 0.0104673 0.00141423 ) 0 
( -0.00429081 0.00676793 0.00480063 ) 0 
( -0.0056114 0.00458743 0.00799142 ) 0 
( -0.0109541 0.00544403 0.00291287 ) 0 
( -0.0125108 0.00465364 0.0067922 ) 0 
( -0.0112729 0.00168906 0.00211175 ) 0 
( -0.0105898 0.00259375 0.00540422 ) 0 
( -0.0046523 0.00457105 0.00711081 ) 0 
( -0.00465468 0.00868217 0.00363717 ) 0 
( -0.00104002 0.0121593 0.00247082 ) 0 
( -0.0130949 0.00259913 0.00178825 ) 0 
( -0.00921897 0.00183681 0.00314078 ) 0 
( -0.00453559 0.00211022 0.00402707 ) 0 
( -0.00456989 0.00935588 0.00131085 ) 0 
( -0.00999565 0.00213364 0.00719014 ) 0 
( -0.0103761 3.603e-05 0.00265434 ) 0 
( -0.00741622 0.00578891 0.007992 ) 0 
( -0.000347445 0.0124378 0.00727174 ) 0 
( -0.00159709 0.00194869 0.00821202 ) 0 
( -0.00769491 0.00376394 0.00315184 ) 0 
( -0.00229185 0.00178893 0.00049964 ) 0 
( -0.00803935 0.00483663 0.00521855 ) 0 
( -0.00317015 0.00273976 0.000499747 ) 0 
( -0.00859036 0.00177421 0.00123001 ) 0 
( -0.0107175 0.00164176 0.00568184 ) 0 
( -0.00562271 0.00105574 0.00317339 ) 0 
( -0.00828049 0.00402024 0.0063349 ) 0 
( -0.00743633 0.0089269 0.00107765 ) 0 
( -0.00272004 0.00382879 0.00230233 ) 0 
( -0.0021702 0.00273765 0.000790844 ) 0 
( -0.00480151 0.00754061 0.00523913 ) 0 
( -0.00928297 0.00661552 0.00149109 ) 0 
( -0.00667469 0.00145275 0.000499645 ) 0 
( -0.0016556 0.010363 0.00572073 ) 0 
( -0.00972188 0.0049742 0.0012129 ) 0 
( -0.00750646 0.000410613 0.0033838 ) 0 
( -0.0128964 0.00337372 0.00779812 ) 0 
( -0.000374336 0.00295563 0.00640947 ) 0 
( -0.00555943 0.00442132 0.00124943 ) 0 
( -0.00638801 0.00358388 0.00327082 ) 0 
( -0.00360044 0.0072715 0.00229179 ) 0 
( -0.000912936 0.004459 0.00162027 ) 0 
( -0.0104469 0.00285767 0.00334737 ) 0 
( -0.00568488 0.00790489 0.00700992 ) 0 
( -0.00234553 0.00277226 0.00687602 ) 0 
( -0.0113782 0.000715114 0.00238364 ) 0 
( -0.00928769 0.0054897 0.00584695 ) 0 
( -0.00683775 0.0114662 0.0076169 ) 0 
( -0.00400097 0.00865006 0.00659254 ) 0 
( -0.000523502 0.00262963 0.00771057 ) 0 
( -0.000726583 0.00632473 0.00583408 ) 0 
( -0.000444398 0.00367283 0.00121749 ) 0 
( -0.00510313 0.0067631 0.00605739 ) 0 
( -0.00028943 0.0063883 0.00726086 ) 0 
( -0.00463135 0.00688894 0.00693133 ) 0 
( -0.00591645 0.00867236 0.00147917 ) 0 
( -0.00620977 0.00994173 0.00335123 ) 0 
( -0.000536308 0.00866824 0.00501419 ) 0 
( -0.00958919 0.00180635 0.00126249 ) 0 
( -0.000562055 0.00597841 0.00207938 ) 0 
( -0.00127049 0.00906723 0.000499593 ) 0 
( -6.69848e-05 0.00196894 0.000499683 ) 0 
( -0.00109091 0.00264931 0.00246062 ) 0 
( -0.00539124 0.00464813 0.00410295 ) 0 
( -0.000935062 0.0110132 0.00596562 ) 0 
( -0.00244135 0.00295398 0.00785444 ) 0 
( -0.0070474 0.0113383 0.00471609 ) 0 
( -0.0058107 0.00145888 0.00568009 ) 0 
( -0.000343119 0.0110829 0.00516284 ) 0 
( -0.00680953 0.0114825 0.0014443 ) 0 
( -0.000711191 0.0123509 0.00634428 ) 0 
( -0.00876524 0.00124722 0.00576489 ) 0 
( -0.0102876 0.0084411 0.00406083 ) 0 
( -0.00444158 0.00659251 0.00303341 ) 0 
( -0.00865848 0.00564293 0.00508502 ) 0 
( -0.0123818 0.000390995 0.000499583 ) 0 
( -0.00699128 0.00413562 0.0048691 ) 0 
( -0.00883179 0.00503607 0.000682609 ) 0 
( -0.00587574 0.00895071 0.00716401 ) 0 
( -0.00423094 0.00103032 0.000499506 ) 0 
( -0.00930837 0.00828765 0.00693645 ) 0 
( -0.000711971 0.0106106 0.00436226 ) 0 
( -0.000337471 0.00284584 0.00308862 ) 0 
( -0.00455379 0.00384152 0.000499762 ) 0 
( -0.00596407 0.0110688 0.0042073 ) 0 
( -0.00795189 0.0100691 0.00353743 ) 0 
( -0.00744375 0.0026204 0.00736647 ) 0 
( -0.00998706 0.00885902 0.00214941 ) 0 
( -7.50743e-05 0.00355221 0.00833586 ) 0 
( -0.00117057 0.0017094 0.00212907 ) 0 
( -0.00477721 0.0124661 0.00049979 ) 0 
( -0.0100871 0.0060641 0.00567176 ) 0 
( -0.00774615 0.0108455 0.00109141 ) 0 
( -0.00773165 0.00166451 0.00730995 ) 0 
( -0.00319125 0.00463946 0.00823757 ) 0 
( -0.00209313 0.00369682 0.00716304 ) 0 
( -0.0124365 0.00251382 0.00536995 ) 0 
( -0.00988988 0.00584323 0.00167799 ) 0 
( -0.00220251 0.00719473 0.00756508 ) 0 
( -0.00712039 0.00437024 0.00695046 ) 0 
( -0.0069999 0.000529308 0.00527113 ) 0 
( -0.00197021 0.010094 0.0028563 ) 0 
( -0.00841191 0.00186283 0.00379292 ) 0 
( -0.0042487 0.00926579 0.00450513 ) 0 
( -0.00324162 0.012149 0.00444099 ) 0 
( -0.00844068 0.00462466 0.00150585 ) 0 
( -0.00962068 0.00158425 0.00224308 ) 0 
( -0.00717393 0.00101529 0.00213265 ) 0 
( -0.00460932 0.012061 0.00590146 ) 0 
( -0.011448 0.00686783 0.000499741 ) 0 
( -0.00685043 0.00696488 0.00697605 ) 0 
( -0.00017878 0.00782183 0.00629493 ) 0 
( -0.00181287 0.000952249 0.00201084 ) 0 
( -0.0101259 0.00144613 0.000499701 ) 0 
( -0.00805274 0.00940848 0.00170012 ) 0 
( -0.00822844 0.00306137 0.00522905 ) 0 
( -0.00823833 0.0070738 0.00311475 ) 0 
( -0.00899152 0.00869183 0.00514849 ) 0 
( -0.00428928 0.0126419 0.00259732 ) 0 
( -0.00861811 0.000557275 0.000862284 ) 0 
( -0.00711828 0.0029346 0.000499656 ) 0 
( -0.00567345 0.00758659 0.00572618 ) 0 
( -0.00739066 0.00724469 0.00618276 ) 0 
( -0.00401108 0.0118349 0.00513303 ) 0 
( -0.00539281 0.00508645 0.000499795 ) 0 
( -0.00548184 0.00517619 0.00719367 ) 0 
( -0.00433228 0.00925295 0.00280311 ) 0 
( -0.00953322 0.00293024 0.00757918 ) 0 
( -0.00039228 0.00716908 0.00815351 ) 0 
( -0.000878119 0.00433374 0.000499735 ) 0 
( -0.000934051 0.000990223 0.00147592 ) 0 
( -0.00950587 0.00501342 0.00499319 ) 0 
( -7.70352e-06 0.000838063 0.00504808 ) 0 
( -0.00163694 0.00607099 0.00616173 ) 0 
( -0.00697671 0.00534394 0.00158856 ) 0 
( -1.31201e-06 0.0117387 0.00584798 ) 0 
( -0.00910992 0.00754751 0.00117348 ) 0 
( -3.9397e-05 0.00683356 0.00635285 ) 0 
( -0.00767431 0.0091747 0.00641596 ) 0 
( -0.00575559 0.0049112 0.00580598 ) 0 
( -0.00805946 0.000957374 0.00402991 ) 0 
( -0.00290265 0.0130307 0.00534851 ) 0 
( -0.000580864 0.00254927 0.00505041 ) 0 
( -0.00472027 0.00583135 0.000499739 ) 0 
( -0.0100305 0.00080724 0.00127661 ) 0 
( -0.00363713 0.00185571 0.000499756 ) 0 
( -0.00591636 0.00126165 0.0046087 ) 0 
( -0.00633387 0.000470142 0.00712951 ) 0 
( -0.000396713 0.00146974 0.00573637 ) 0 
( -0.0049063 0.00131062 0.00118134 ) 0 
( -0.00820278 0.00925792 0.00726062 ) 0 
( -0.00859236 0.00343249 0.00708647 ) 0 
( -0.00834578 0.00549769 0.00223999 ) 0 
( -0.011654 0.00156868 0.00430594 ) 0 
( -0.00663902 0.00494015 0.00628467 ) 0 
( -0.00869216 0.00648135 0.00753211 ) 0 
( -0.00542256 0.012199 0.00241246 ) 0 
( -0.0045884 0.00193111 0.00189807 ) 0 
( -0.00494802 0.00980369 0.000500846 ) 0 
( -0.0107681 0.00433472 0.00566314 ) 0 
( -0.00153214 0.00274998 0.00481656 ) 0 
( -0.00311184 0.000983564 0.00188204 ) 0 
( -0.00730786 0.00625982 0.00136276 ) 0 
( -0.00681182 0.00890584 0.00185826 ) 0 
( -0.008941 0.00988821 0.00349973 ) 0 
( -0.00958901 0.00109203 0.00740558 ) 0 
( -0.0124574 0.00135364 0.00494886 ) 0 
( -0.00440989 0.00483395 0.000499628 ) 0 
( -0.00637024 5.79808e-05 0.004504 ) 0 
( -0.00496527 0.0115225 0.00509029 ) 0 
( -3.92631e-05 0.00927119 0.00676989 ) 0 
( -0.00392807 0.00392377 0.00442298 ) 0 
( -0.00767154 0.00572609 0.00494703 ) 0 
( -0.0111724 0.000948112 0.00762194 ) 0 
( -0.000791248 0.00342866 0.00462385 ) 0 
( -0.00122883 0.00577941 0.00711253 ) 0 
( -0.0124116 0.00140356 0.0023981 ) 0 
( -0.00914118 0.00321342 0.00483345 ) 0 
( -0.00529192 0.00195406 0.00659302 ) 0 
( -0.00597352 0.0109277 0.0014767 ) 0 
( -0.00865568 0.00204814 0.00496858 ) 0 
( -0.0106176 0.00057553 0.000499718 ) 0 
( -0.00479395 0.0110806 0.0059705 ) 0 
( -0.00736945 0.00836726 0.00261705 ) 0 
( -0.0103041 0.00434806 0.00417023 ) 0 
( -0.00331431 0.0105938 0.0049537 ) 0 
( -0.00244704 0.00249945 0.00429068 ) 0 
( -0.00808135 0.00131902 0.000499694 ) 0 
( -0.00286925 0.0074274 0.00389803 ) 0 
( -0.00287273 0.0107422 0.00583837 ) 0 
( -0.00104375 0.00230137 0.00676782 ) 0 
( -0.00676716 0.00690872 0.00371623 ) 0 
( -0.0105721 0.00815141 0.00254549 ) 0 
( -0.00797323 0.00160357 0.00199825 ) 0 
( -0.00983102 0.00358985 0.00305651 ) 0 
( -0.00626607 0.00341811 0.00658363 ) 0 
( -0.0132902 0.000983984 0.00394406 ) 0 
( -0.0019065 0.00716792 0.00397468 ) 0 
( -0.00341996 0.0104717 0.00705024 ) 0 
( -0.00467271 0.000726582 0.00211919 ) 0 
( -0.00743218 0.00654556 0.00546913 ) 0 
( -0.0092776 0.00168827 0.00426422 ) 0 
( -0.0133455 0.000230269 0.00328921 ) 0 
( -0.00357979 0.000230831 0.00504998 ) 0 
( -0.00250589 0.0048812 0.00381453 ) 0 
( -0.00653375 0.00444597 0.00147254 ) 0 
( -0.00639673 0.00933347 0.00412268 ) 0 
( -9.19775e-05 0.00102176 0.00314528 ) 0 
( -0.0123303 0.00511812 0.000897518 ) 0 
( -0.00133947 0.0085719 0.00136534 ) 0 
( -0.00164521 0.00126307 0.00743725 ) 0 
( -0.00996554 0.00557653 0.00282864 ) 0 
( -0.00262927 0.000200876 0.000499779 ) 0 
( -0.00224651 0.00488555 0.00852966 ) 0 
( -0.0128625 0.00357496 0.00119773 ) 0 
( -0.0105001 0.000287952 0.00381229 ) 0 
( -0.00744244 0.00247355 0.00472507 ) 0 
( -0.0129291 0.00328118 0.00458635 ) 0 
( -0.00777087 0.0108459 0.00423206 ) 0 
( -0.00239017 0.000875938 0.00119807 ) 0 
( -0.000475003 0.00616736 0.00487929 ) 0 
( -0.00637505 0.00498309 0.0023011 ) 0 
( -0.00273805 0.00556585 0.00132104 ) 0 
( -0.00165654 0.00376493 0.00424583 ) 0 
( -0.00819799 0.00173817 0.006426 ) 0 
( -0.00854171 0.0069952 0.000506719 ) 0 
( -0.00295589 0.00173951 0.0012455 ) 0 
( -0.00404519 0.00117516 0.00446294 ) 0 
( -0.00604806 0.00869957 0.00247004 ) 0 
( -0.00250423 0.000609116 0.00512325 ) 0 
( -0.00195027 0.00224826 0.00279589 ) 0 
( -0.00138962 0.0080745 0.000499501 ) 0 
( -0.00315242 0.00431181 0.00497084 ) 0 
( -0.000474703 0.00519293 0.0074058 ) 0 
( -0.00501629 0.0123719 0.00151529 ) 0 
( -0.00387116 0.00819995 0.00285483 ) 0 
( -0.00495554 0.00151771 0.00471447 ) 0 
( -0.00762786 0.000466546 0.000758619 ) 0 
( -0.00700782 0.0103709 0.00379221 ) 0 
( -0.00324787 0.00490471 0.00189534 ) 0 
( -0.0114135 0.00513563 0.00049959 ) 0 
( -0.00042265 0.0133434 0.00212062 ) 0 
( -0.00064981 0.0128666 0.00127168 ) 0 
( -0.0104238 0.0067578 0.00638771 ) 0 
( -0.00276181 0.00472294 0.00275012 ) 0 
( -0.00564703 0.00683465 0.00153074 ) 0 
( -0.0116502 0.00468287 0.00267797 ) 0 
( -0.00942756 0.00279099 0.00132703 ) 0 
( -0.00620357 0.00668726 0.0026074 ) 0 
( -0.0039504 0.00973686 0.000499742 ) 0 
( -0.00356326 0.00368098 0.000499704 ) 0 
( -0.0105406 0.00510594 0.00185902 ) 0 
( -0.00738023 0.00915216 0.00412145 ) 0 
( -0.0102524 0.00855094 0.000499873 ) 0 
( -0.00436346 0.00677484 0.00187818 ) 0 
( -0.00287233 0.00429234 0.00735626 ) 0 
( -0.00760645 0.00473364 0.00612158 ) 0 
( -0.00528215 0.00794379 0.000499685 ) 0 
( -0.000144433 0.0109733 0.000499372 ) 0 
( -0.00387561 0.0118132 0.00363474 ) 0 
( -0.0126067 0.00439202 0.00270307 ) 0 
( -0.00296627 0.00774176 0.00722474 ) 0 
( -0.00190591 0.00781564 0.00169261 ) 0 
( -0.00624366 0.00951856 0.00635863 ) 0 
( -0.00491092 0.00523622 0.00538024 ) 0 
( -0.00339997 0.0025289 0.00775036 ) 0 
( -0.00708934 0.0113125 0.00049961 ) 0 
( -0.00115476 0.00290871 0.00578627 ) 0 
( -0.00210673 0.0123804 0.000499528 ) 0 
( -0.0127451 0.000249209 0.0063427 ) 0 
( -0.00570501 0.00348599 0.00157096 ) 0 
( -0.00482217 0.00102596 0.00385138 ) 0 
( -0.00262119 0.00637934 0.00369764 ) 0 
( -0.00685548 0.0103404 0.000499792 ) 0 
( -0.0101891 0.00232025 0.00187565 ) 0 
( -0.00601644 0.00693455 0.00642586 ) 0 
( -0.00547426 0.000251478 0.00248218 ) 0 
( -0.0122777 0.00524223 0.0033215 ) 0 
( -0.00679233 0.00224509 0.00563657 ) 0 
( -0.00112342 9.48337e-05 0.00668161 ) 0 
( -0.00760909 0.00349863 0.00691799 ) 0 
( -0.00392938 0.00639035 0.00394818 ) 0 
( -0.00473888 0.0104167 0.00674084 ) 0 
( -0.000236208 0.00743386 0.00197144 ) 0 
( -0.00827257 0.00859479 0.00223796 ) 0 
( -0.00602153 0.00842126 0.00429741 ) 0 
( -0.00298708 0.0066094 0.000499579 ) 0 
( -0.00684131 0.0106665 0.00202134 ) 0 
( -0.00792197 0.00395841 0.00783762 ) 0 
( -0.00136956 0.00221398 0.000499745 ) 0 
( -0.00302509 0.00507352 0.000499628 ) 0 
( -0.0069037 0.00396842 0.0060252 ) 0 
( -0.00884449 0.00506422 0.00663594 ) 0 
( -0.00521822 0.00506279 0.00284029 ) 0 
( -0.00379332 0.000250796 0.00211912 ) 0 
( -0.00207627 0.012303 0.00670315 ) 0 
( -0.00220611 0.0033349 0.00160056 ) 0 
( -0.00429989 0.00775691 0.000499625 ) 0 
( -0.00665345 0.0115726 0.00663988 ) 0 
( -0.00710803 0.00412767 0.00387566 ) 0 
( -0.00928605 0.00570787 0.00731129 ) 0 
( -0.00487236 0.00601698 0.00147034 ) 0 
( -0.00194215 0.0064037 0.00260732 ) 0 
( -0.00376865 0.00432307 0.00575899 ) 0 
( -0.000970291 0.00321705 0.000499655 ) 0 
( -0.00495568 0.00988551 0.00755949 ) 0 
( -0.0040895 0.000636449 0.00319291 ) 0 
( -0.0061648 0.00242411 0.0064618 ) 0 
( -0.00450617 0.00962814 0.00598633 ) 0 
( -0.00537888 0.000432632 0.0044549 ) 0 
( -0.00238457 0.00814052 0.000571195 ) 0 
( -0.00596582 0.000527463 0.00528886 ) 0 
( -0.00379633 0.0127972 0.00496235 ) 0 
( -0.000744099 0.00195365 0.00123514 ) 0 