FoamFile
{version 2.0; format ascii;class vectorField; location 0;object  v;}
2500
(
( 0.000115846 0.000300873 -0.000416051 )  
( 0.00103472 0.00230725 0.0110414 )  
( 0.00165137 -2.6841e-05 0.00314579 )  
( 0.00142669 0.00110302 0.00105106 )  
( -0.00502929 0.00222341 0.0142056 )  
( -0.00136856 0.000528666 0.00612906 )  
( -0.00219604 -0.00262981 0.0148478 )  
( -4.72545e-05 0.000304591 4.06749e-05 )  
( -0.000283484 0.000583632 -2.488e-05 )  
( 0.00157457 0.00209496 0.0154199 )  
( -0.000240319 -0.00163012 0.00825605 )  
( -0.00463487 0.0039505 0.0173902 )  
( 3.11836e-05 -0.000692465 5.17985e-05 )  
( -0.00490321 0.000326973 0.0106117 )  
( 0.000103789 0.000155962 1.45453e-05 )  
( 0.000403207 0.000530605 0.00152087 )  
( 0.000512821 -5.81948e-05 0.0167386 )  
( -0.000999753 7.82821e-05 0.0131346 )  
( 0.000605933 0.000708266 0.0143396 )  
( 0.000540778 0.000795081 0.0152186 )  
( 0.000146185 -0.000244659 0.00861515 )  
( -0.00376807 -0.00133986 0.0111421 )  
( 0.000559678 0.0025234 0.0136437 )  
( 0.0016542 0.00274532 0.0142575 )  
( -0.000209067 -0.000849134 0.0154282 )  
( 7.02531e-05 0.00358418 0.0140587 )  
( 0.00119732 -0.000545629 0.0145734 )  
( 0.00175871 -0.000384439 0.0127218 )  
( 0.000101508 0.00132465 0.0133864 )  
( 0.00091521 0.00134881 0.0152347 )  
( -0.000571618 0.00107604 0.0142387 )  
( -0.00189761 0.000660829 0.0158821 )  
( -0.000666078 0.000152432 -0.000114653 )  
( -0.000789197 0.000916433 -0.000639753 )  
( 0.00134904 -0.00278398 0.00765254 )  
( -0.000586424 -0.00219719 0.0130799 )  
( 0.000152007 -0.00190486 0.00844478 )  
( -6.31093e-05 -0.00159321 0.0114951 )  
( -0.000303177 0.00140297 -0.00106726 )  
( -0.000438338 -0.000321131 -0.00187635 )  
( -0.00361366 -0.000976669 0.0136491 )  
( -0.00189572 -0.000384388 0.00939393 )  
( -0.000467137 -0.000497035 -5.329e-05 )  
( 0.00227906 -0.00221329 0.0107016 )  
( 0.000142117 0.000214906 -5.12469e-05 )  
( 0.000133835 -4.58261e-05 6.56934e-05 )  
( -0.00236617 -0.00189623 0.0101854 )  
( 0.000249381 -0.000205376 0.000202382 )  
( -0.00304749 -0.00269333 0.0110199 )  
( -0.00107221 -0.0018056 0.00464746 )  
( 4.41807e-05 0.000161991 -8.39633e-05 )  
( 0.000374862 0.000849948 0.0141703 )  
( -0.000374572 -0.00104566 0.0130597 )  
( 0.00108651 -0.000811164 0.0103544 )  
( 2.23511e-05 -0.00165431 0.00975737 )  
( 0.0026196 -0.00229305 0.0100532 )  
( -0.00114669 -0.00210977 0.00401267 )  
( 0.000273391 7.76804e-05 -2.68643e-06 )  
( -0.000858349 -0.00031773 0.0135707 )  
( -0.000365715 0.000336781 -2.27647e-06 )  
( 0.00108011 -0.00173538 0.0121177 )  
( 0.00139975 0.000862788 0.010528 )  
( 0.000922712 -0.00264264 0.00882836 )  
( -0.000640433 -0.000527535 0.000636231 )  
( 0.00178024 -0.000910787 -0.00162254 )  
( -0.000179352 -0.00148548 0.0109671 )  
( 0.000634741 0.0011113 -6.02163e-05 )  
( 0.00138874 -0.00139609 0.0128063 )  
( 7.42554e-05 0.000193786 -4.33691e-05 )  
( -8.13285e-05 -0.000322624 0.00957925 )  
( -0.000672389 0.00015926 -0.000541025 )  
( 0.00239468 -0.000325529 0.0164361 )  
( 0.000844563 -0.000135946 0.0108275 )  
( -0.00227447 0.00201893 0.0100486 )  
( 0.0017538 0.00241574 0.000613628 )  
( 0.00217422 -0.00179984 0.0104986 )  
( 0.00254913 0.00169275 0.0133036 )  
( 0.000858822 -0.00097634 0.00938462 )  
( -0.000113517 0.00061328 0.00722037 )  
( 1.41676e-06 0.000577399 -7.31909e-05 )  
( -0.002196 -0.00211085 0.0102746 )  
( 0.000179626 0.0015087 2.26108e-05 )  
( 0.000914614 -0.00246446 0.0106627 )  
( -0.00170156 -0.000721669 0.0140288 )  
( 0.000261476 0.000164458 0.000211827 )  
( 0.000121941 0.00102109 0.000159549 )  
( -0.000962308 -0.00341844 0.0100387 )  
( 0.000771891 -0.000677089 0.010023 )  
( -0.000292595 0.00190743 0.00744833 )  
( -0.00045462 -0.00107445 0.00895506 )  
( 0.00294471 0.000212994 0.0112367 )  
( 0.000962682 -0.00246008 0.00999478 )  
( 0.000220312 -0.0021887 0.0102725 )  
( -0.000290351 -0.00249012 0.00974613 )  
( -2.52123e-05 0.000329614 0.000333084 )  
( -0.00114764 -0.00117966 8.66584e-05 )  
( -0.00124371 -0.00143969 0.00820362 )  
( -0.00169931 -0.000483059 0.000345092 )  
( -0.000324544 -0.00089525 0.0143965 )  
( -0.00201934 0.000626989 0.0142964 )  
( -0.00281847 -0.00202089 0.0138403 )  
( -3.77766e-05 -0.00123329 0.0108797 )  
( 0.000118011 0.000185199 -1.78724e-05 )  
( -0.00164359 -0.000994467 -0.000606333 )  
( 0.000661701 -0.00179855 0.0106384 )  
( -0.000746689 -0.00277961 0.00966258 )  
( 0.000895384 -0.00316221 0.0118797 )  
( 0.000244657 5.04857e-05 0.000381576 )  
( -0.000174012 -0.00285225 0.00988985 )  
( -0.000470187 -0.00207793 0.0110206 )  
( -8.02356e-05 6.59002e-05 0.000421142 )  
( -0.00112753 0.000204118 0.0147374 )  
( -0.0026005 -0.00139805 0.0123025 )  
( 0.00129935 0.000172783 0.000736708 )  
( 0.000384014 -0.00244406 0.00927251 )  
( -0.00219325 -0.000317905 -0.00454136 )  
( -0.00100205 -0.00250528 0.0165185 )  
( 0.00168838 -3.01525e-05 0.00639701 )  
( -0.000369663 -0.00164549 0.0100702 )  
( -0.00181903 -0.00136869 0.0100998 )  
( -0.00145506 0.000415572 0.000330959 )  
( 0.00103004 -0.000428022 -0.0010945 )  
( -0.001832 -0.00289568 0.0126584 )  
( -1.96083e-05 0.000129725 0.000325537 )  
( 0.00218253 -0.00112934 0.00571602 )  
( -0.00456932 -0.00841507 0.0226051 )  
( 0.000570057 6.7722e-05 0.000277407 )  
( -0.00092454 -0.00309034 0.0122995 )  
( 0.00024453 -0.00130257 0.00995956 )  
( 0.000686151 -0.00235033 0.00509749 )  
( -0.000565128 -0.00252767 0.0127263 )  
( -0.000332815 0.000915512 -0.000432152 )  
( 8.01556e-06 7.86803e-05 -0.00284962 )  
( 0.000498554 0.00013293 0.00816672 )  
( 0.000267386 -0.00422342 0.0110797 )  
( 0.00132487 0.000195059 0.00749501 )  
( -0.000340389 -0.00112431 0.010484 )  
( 0.00102862 -0.00103489 0.0124363 )  
( -0.000268087 -7.24238e-05 -0.000473093 )  
( 0.00112669 -0.00201981 0.012612 )  
( -0.000360251 -0.000588971 0.0134201 )  
( -0.000686727 -0.00225444 0.0125501 )  
( 0.000144593 0.000257018 7.19918e-05 )  
( 0.000138514 -0.000541356 0.00950605 )  
( 0.000503537 -0.00393291 0.0104023 )  
( -0.000575565 -0.00286022 0.0120884 )  
( -0.00042046 -0.00169411 0.0106516 )  
( -0.00136987 -0.00127684 0.0105086 )  
( -0.0004358 -0.00101255 0.0033406 )  
( 0.000200737 0.00673074 0.012493 )  
( 0.000901312 -0.00174374 0.0104308 )  
( -0.000497611 -0.00285925 0.0133017 )  
( 0.000586339 0.000749217 -0.000650234 )  
( 0.000485904 -0.00215046 0.0151967 )  
( -0.000690376 -0.00183032 0.012665 )  
( -0.000198081 0.00111244 0.00734557 )  
( -0.000269066 -0.000103323 0.0143478 )  
( -0.000975065 0.0020265 0.0118638 )  
( 0.000752361 1.39602e-05 0.000482053 )  
( 0.00063895 0.000340871 0.0114334 )  
( -0.00162845 -0.00200557 0.0164815 )  
( 0.000198868 0.000740271 0.012667 )  
( 0.000160084 -0.00233387 0.00959477 )  
( -0.000136422 -0.000828233 0.00561969 )  
( 0.000866155 -0.00525919 0.00600661 )  
( -0.000183538 -0.0012245 0.00432916 )  
( -0.00153183 -0.00224877 0.010218 )  
( -0.00184141 -0.00234472 0.0156626 )  
( 0.000180948 -0.000630536 -3.42829e-05 )  
( -0.000149365 -0.00118108 0.00899415 )  
( -0.000216803 -0.00227301 0.0100115 )  
( -0.00194228 -0.00090026 0.0149064 )  
( 0.000540331 -5.31797e-05 0.000589254 )  
( -0.00174051 -0.00309341 0.0119663 )  
( 0.000610846 0.00069776 -0.000660642 )  
( -0.000113245 0.000891575 2.80894e-05 )  
( 0.00150774 -0.00224682 0.0107307 )  
( 0.00157603 -5.6381e-05 0.00224291 )  
( -0.00150329 -0.0001265 0.00817362 )  
( 0.000129452 0.000131793 0.000256164 )  
( -0.00110339 -0.00230069 0.0104198 )  
( -9.98535e-05 -0.00118514 -0.00036107 )  
( 0.000432646 3.29637e-05 2.28218e-05 )  
( 0.000503375 0.000590198 -6.13219e-06 )  
( -0.00105206 0.000147793 -4.31704e-05 )  
( 0.0008396 -0.00158571 0.0107918 )  
( 0.00089253 -0.000323272 -0.00168835 )  
( -0.00115657 0.000413583 0.0116469 )  
( -0.00105887 -0.00185073 0.010631 )  
( -0.00015278 -0.000897312 0.00946923 )  
( -0.0011233 -0.000986699 -0.000359383 )  
( 0.000149633 0.000708547 0.000169106 )  
( 0.00156704 0.00101954 0.0113405 )  
( 0.000475766 0.000918602 -0.000363701 )  
( -0.000183998 -0.000101383 0.0125406 )  
( -0.000476039 -0.000866567 0.00990758 )  
( -2.79426e-05 0.000578679 0.000118456 )  
( -0.00142316 -0.00150489 0.0116267 )  
( -0.00154072 -0.00176814 0.0111301 )  
( 0.00138223 -0.0020191 0.0105358 )  
( 0.00108077 0.00135016 0.00625002 )  
( -0.00048206 0.00130708 -0.000185518 )  
( -7.30877e-05 0.000405736 -0.000133282 )  
( -0.000208058 0.000766214 0.000213106 )  
( -0.000732706 0.000941548 0.00716577 )  
( 0.00287617 0.000881729 0.00868839 )  
( 0.000912581 0.0006778 0.0156083 )  
( -0.000985166 0.00143241 0.0113406 )  
( -0.000273601 0.000349179 4.34473e-06 )  
( -6.41527e-06 0.000315567 -1.37231e-05 )  
( 0.00084687 0.00146902 0.00788015 )  
( -0.000349308 -0.00453704 0.0101376 )  
( -0.000727109 -0.00287165 0.0113747 )  
( -0.000247267 0.000848314 -0.000633195 )  
( -0.000235458 -0.0012219 0.0094609 )  
( -0.000284615 -0.00173214 0.0127265 )  
( -0.000942872 -0.00102502 0.0118368 )  
( -0.00177978 0.00130431 0.0117369 )  
( 6.4499e-05 0.000543934 3.05552e-05 )  
( -0.000808825 0.000734581 -0.000274872 )  
( -0.00107915 -0.00078608 0.0101694 )  
( -0.00114696 -0.00241105 0.00998285 )  
( -0.000993159 -0.00187336 0.0111397 )  
( -0.000422833 0.00144133 0.000243484 )  
( -0.00014285 -0.000866222 0.00565127 )  
( -0.00133271 -0.00181848 0.0107609 )  
( 0.000146447 0.000372421 0.000103766 )  
( 0.000760938 0.000561674 0.000106992 )  
( 0.00175718 -0.00258274 0.0156558 )  
( -0.00187649 -0.000745366 0.0136569 )  
( 8.50526e-05 -0.00177668 0.00785496 )  
( 0.000347475 0.0010453 -0.000383187 )  
( 0.00135915 0.00372935 -0.000872377 )  
( 0.00159047 0.00204569 0.0117767 )  
( -1.34606e-05 0.000123829 5.61869e-05 )  
( 0.000201614 0.000360491 4.79762e-06 )  
( 0.000201133 0.000576428 1.4395e-05 )  
( -0.000249506 -0.000136485 -0.00052315 )  
( -0.000902584 -0.00125335 0.0111763 )  
( 0.000529466 -0.00182286 3.38744e-07 )  
( 0.000708522 0.00123289 0.000423649 )  
( -0.000621887 -0.00259177 0.0145151 )  
( -0.00149225 0.00108271 0.0167063 )  
( 0.00122551 -0.00236184 0.0147792 )  
( -0.00127181 -0.00259423 0.0128228 )  
( -0.00147539 -0.00618605 0.0122609 )  
( 0.000173045 0.0002656 0.00354371 )  
( 0.001124 0.000189811 -0.00120743 )  
( 0.000128751 -0.000565338 -7.97085e-05 )  
( -6.57577e-05 7.91006e-05 5.5946e-05 )  
( -0.000498306 -0.00111163 0.00920386 )  
( -0.000241986 -0.00121595 0.00823029 )  
( -0.000466425 -0.00164748 0.0094385 )  
( 0.000123257 -0.0011145 0.00993451 )  
( 7.74167e-05 0.00023196 -0.000125385 )  
( -0.00181822 -0.00341451 0.00949525 )  
( 0.000176674 -0.000711998 -9.15279e-05 )  
( -0.00132627 0.00308098 0.0143747 )  
( -0.000435237 -0.000761566 -0.000933027 )  
( -0.00175071 0.000473426 0.0134375 )  
( 0.00146027 -0.000258073 -0.000279788 )  
( -0.000227094 -3.02677e-05 -5.94688e-05 )  
( -0.0011036 -0.00176083 0.00961203 )  
( -0.000358134 0.00121677 9.9977e-05 )  
( 0.000867759 4.23974e-05 0.0113471 )  
( -0.00364702 -0.00268067 0.0116631 )  
( 0.00176631 -0.000661238 0.00791443 )  
( 0.000372142 -0.000635804 -0.000387665 )  
( 0.00199221 -0.000395747 0.0110641 )  
( -0.000544662 -0.000112452 0.0109139 )  
( -0.00106512 -0.00226496 0.0136686 )  
( -0.000391259 -0.00736334 0.0105933 )  
( 0.000607839 -0.000131116 -0.000382329 )  
( 0.000696905 -7.59917e-05 0.0156261 )  
( -8.84504e-05 0.000386143 0.0101246 )  
( 0.00218035 -0.00114382 0.0131686 )  
( 0.000455862 0.000615744 -2.71651e-06 )  
( 0.00163146 -0.0015954 0.0128197 )  
( -0.00064483 -0.000227611 0.0106544 )  
( -0.00280741 -0.0028514 0.0142502 )  
( -0.000454717 0.000310058 -9.99729e-05 )  
( -0.000810808 -0.000811002 0.0130133 )  
( -0.000545085 0.000774928 -9.98585e-05 )  
( -0.000388788 -0.00134741 -5.97663e-05 )  
( -0.000198365 0.00186034 -0.000712322 )  
( -0.000105265 -0.00206394 0.0115161 )  
( 0.00250025 -0.00526176 0.00879053 )  
( 0.000741163 -0.0010419 0.0182741 )  
( -0.000688869 -0.00110896 0.0117908 )  
( -0.00167271 -0.00118006 0.011014 )  
( 0.000364139 -0.00229286 0.00110954 )  
( -0.00146567 -0.00235553 0.01254 )  
( 0.000153217 0.00173204 -0.00158468 )  
( 0.00149066 -0.00295797 0.0115599 )  
( -0.000491048 -0.00410429 0.0143661 )  
( 0.0013878 -0.00181478 0.0117616 )  
( -0.000628069 -6.76163e-05 0.0142433 )  
( -0.000275154 -0.000610863 0.0117945 )  
( -0.000723824 -0.00260025 0.0124823 )  
( -6.08359e-05 -0.000114867 -1.03665e-05 )  
( -0.000289229 0.00291811 -0.000195958 )  
( -1.40564e-05 -0.000148934 0.00818245 )  
( -0.00034518 0.000112465 1.00354e-06 )  
( 0.00275273 -0.000829722 0.00323868 )  
( -0.00182725 -0.00246463 0.0111905 )  
( -0.000315086 0.000410363 0.000831922 )  
( -0.000258829 -0.00178457 0.0146148 )  
( -0.00196996 -0.000417481 0.0170948 )  
( -6.78352e-05 -0.000655355 0.00980163 )  
( -0.000449147 -0.00129563 0.0129655 )  
( 8.98335e-05 0.000249886 0.000147933 )  
( -0.00103155 -0.00200655 0.0103455 )  
( -2.79827e-05 -3.82647e-05 -0.0004086 )  
( 0.000731745 -0.00136713 0.00953501 )  
( -0.00126904 -0.00504093 0.00424263 )  
( 0.000169693 0.00045709 -0.000144966 )  
( 0.00208027 0.000976911 0.0138791 )  
( -0.000136393 -2.56899e-05 1.75678e-05 )  
( 0.000654588 0.00039321 -9.63533e-05 )  
( 0.000718999 0.000167874 0.0142779 )  
( -0.000273921 -0.00205318 0.0115434 )  
( 2.45398e-05 0.000458783 0.0113146 )  
( -2.61656e-05 5.03741e-05 0.000425146 )  
( -0.000625292 -0.00195244 0.0100734 )  
( -0.000276992 0.00264771 0.0108671 )  
( 0.000542945 0.00137682 0.000288618 )  
( 0.00130308 -0.00124188 0.011616 )  
( -0.00137006 -0.00304964 0.00874576 )  
( -0.00153176 -0.00187953 0.0105416 )  
( -5.36219e-05 0.000368802 0.00823355 )  
( 0.00115724 -0.00205288 0.0121998 )  
( -0.00108223 0.00369959 0.00802761 )  
( -0.000418657 -0.00154706 0.0094293 )  
( 0.00176097 -0.00139831 0.0106721 )  
( 0.00194443 -0.000767531 0.011069 )  
( 8.10869e-05 8.08499e-05 -0.000111092 )  
( 0.000574618 -0.000194626 -0.000940475 )  
( 4.47422e-05 0.000106333 -3.81636e-05 )  
( -0.00281613 -0.00284291 0.00627135 )  
( 0.000237853 -3.99577e-05 -0.000213604 )  
( 0.00115063 -0.00315417 0.0114717 )  
( -0.00390121 0.00395444 0.0240655 )  
( 0.0016053 -0.0013191 0.012619 )  
( 9.92774e-05 -0.000921663 0.0023174 )  
( -0.000688597 0.00027746 0.0109939 )  
( 0.00129868 -0.00129514 0.00862981 )  
( 0.00554959 -0.00308555 0.0116709 )  
( 0.00172962 -7.20426e-05 0.0106301 )  
( -0.000324415 0.00124649 0.00687968 )  
( 0.00137801 -0.00152869 0.00879439 )  
( -0.000851944 -0.00161998 0.00952089 )  
( 8.06934e-05 0.000198901 0.000150204 )  
( -0.000811259 -0.00140091 0.0107316 )  
( 0.00102219 0.00183155 8.44548e-05 )  
( -9.76503e-05 -0.000780311 0.0149635 )  
( -0.000886491 -0.000872794 0.000259627 )  
( -0.000488646 -0.00201889 0.00950148 )  
( 0.000167952 0.00143971 -0.000422576 )  
( -0.000489273 -0.000722913 0.0100344 )  
( 0.000557444 0.00011381 0.0139316 )  
( 0.00188409 0.000659007 0.0143084 )  
( 0.000828344 0.00128304 0.0100683 )  
( 0.000739068 0.000413608 0.000407431 )  
( -0.000635013 -0.00335995 0.0091925 )  
( 0.000255295 0.000222123 -9.95859e-06 )  
( -0.00174382 0.000986634 0.0166402 )  
( -0.000524265 0.000222204 0.000130348 )  
( -0.00073512 -0.0013696 0.00842577 )  
( 0.000575346 0.000508066 0.0104534 )  
( 0.00240748 -0.00137499 0.0117236 )  
( -0.00189696 -0.00355836 0.0126833 )  
( 0.00105053 -0.000731736 0.0136566 )  
( -0.000876964 -0.00345479 0.00972967 )  
( -0.000427463 -0.00147226 0.0142223 )  
( 0.000232659 0.000659844 -0.000263971 )  
( -0.00012823 0.000240886 -3.33984e-05 )  
( -0.000859233 0.000551745 0.011197 )  
( -4.90243e-05 -0.00241174 0.0116054 )  
( -0.00103241 -0.000928025 0.00168176 )  
( -0.00041377 0.000425527 0.0109968 )  
( 0.000788309 0.00305299 0.0139196 )  
( 0.000242764 -0.00014581 -1.53862e-06 )  
( 0.00156247 -0.000882383 0.00733622 )  
( -0.00175078 1.53972e-05 0.00957507 )  
( 0.00152179 0.00119857 -0.000816975 )  
( 3.85405e-05 -0.00260617 0.0120116 )  
( -3.43998e-05 0.000310723 -3.9819e-05 )  
( -0.00255981 -0.00117857 0.0129031 )  
( 0.00152544 -0.00176061 0.0121137 )  
( 0.00181944 0.00115958 0.00136271 )  
( 9.63764e-05 0.000330849 -6.69629e-06 )  
( -0.000129236 -0.000765169 0.00102727 )  
( -0.00624428 0.00124038 0.0143311 )  
( -9.87704e-05 -0.00101253 0.0141014 )  
( -0.000390483 -0.00176093 8.08429e-05 )  
( 0.000153814 0.0004246 -0.000133842 )  
( -0.00141285 -0.003102 0.0104228 )  
( -0.00057215 -0.000468123 0.000190314 )  
( 6.15035e-05 -0.00112173 0.0118693 )  
( 0.000552161 -0.00313212 0.0110811 )  
( -0.000230678 -0.000422315 0.00933122 )  
( 0.000387716 0.000106457 0.000210478 )  
( -0.000225753 0.000271618 9.04002e-06 )  
( 8.39892e-05 0.000282328 1.08615e-05 )  
( -0.000318619 0.000321662 0.000124742 )  
( -0.000727713 -0.00186879 0.010678 )  
( 2.77211e-05 -0.00209148 0.0137243 )  
( -0.000458662 -0.00399513 0.0103636 )  
( -0.000956491 -0.000186887 0.0119714 )  
( -1.78912e-05 0.000780605 -0.001409 )  
( -0.00115338 -0.000383582 -0.000160996 )  
( 0.00138199 0.00021575 -0.00195225 )  
( 3.45672e-05 -0.00165233 0.0120517 )  
( -0.00170741 -0.000757163 0.0125748 )  
( -0.0011741 0.000871442 -0.0006837 )  
( 9.92182e-05 -0.00134567 2.8265e-05 )  
( -0.00149773 -6.0855e-05 0.00672283 )  
( -6.20988e-05 -0.00208698 0.0115223 )  
( -0.000755035 1.8103e-05 -0.00120422 )  
( 0.00174098 -0.000868445 -0.0009434 )  
( 0.00196087 -0.00210537 0.0096348 )  
( -0.000670806 -0.00121232 0.0130096 )  
( -0.00256976 0.00230398 0.00608722 )  
( -0.00256633 -0.00057267 0.0105293 )  
( -0.000275116 -0.000394851 0.00060894 )  
( 0.000240169 -0.00265869 0.0114848 )  
( 0.00377953 0.00378692 0.0182815 )  
( 0.00136333 -0.00165493 0.00981635 )  
( -0.000299229 0.000102686 -0.000774004 )  
( 4.04951e-05 8.95647e-05 -0.00181872 )  
( 0.00259015 -0.000706961 0.00387045 )  
( 0.00205285 -0.00429002 0.00939389 )  
( 7.29349e-06 0.000191156 -2.16366e-05 )  
( -0.00276103 0.00110923 0.0131848 )  
( 0.00313809 -0.00114592 0.000642074 )  
( 0.000462625 -0.00117615 0.0124459 )  
( 0.000345918 -0.00367759 0.0101528 )  
( -0.000849986 0.000214113 0.0146335 )  
( -0.000775719 -0.000613812 0.00792384 )  
( -0.000226833 0.000947133 -8.70405e-05 )  
( 0.00166359 -0.00262129 0.0077876 )  
( -0.000897629 0.000298557 0.000187207 )  
( 0.000509733 0.00124279 0.00010537 )  
( -0.00144874 -0.00199066 0.0119386 )  
( 0.000495779 -0.00216553 0.00770256 )  
( 0.000263487 -0.000774442 0.0103051 )  
( 0.000608105 -0.000969301 -0.000481216 )  
( 0.000966047 0.000431902 -6.66964e-05 )  
( 0.000326472 0.000950842 -8.70409e-05 )  
( 0.000551658 -0.00166987 0.0104257 )  
( 4.43523e-05 0.000534532 0.000805977 )  
( 0.000441291 3.42061e-05 0.000234388 )  
( -0.000547191 -0.00205238 0.00946683 )  
( -0.000127312 0.000472573 -1.03414e-05 )  
( -0.00405011 -0.00106974 0.00761166 )  
( -4.39357e-06 -0.00380067 0.0102656 )  
( -0.000663749 -0.000986597 0.0132465 )  
( 0.000168446 0.000256247 0.000101713 )  
( -0.000355893 -0.00120629 0.000461739 )  
( 0.000548056 -0.0012168 -0.000463918 )  
( 0.000511631 0.000980323 0.000744258 )  
( 0.000682333 -0.000195507 0.00467403 )  
( 0.0011709 0.00218605 0.0126664 )  
( 0.000570008 8.35155e-05 0.0129967 )  
( 0.00146972 -0.000932739 0.00206452 )  
( 0.000405098 -0.00062468 0.0113608 )  
( 0.000998921 0.000689796 0.00842967 )  
( -0.000680939 -0.000882921 0.00976047 )  
( -0.00168606 -0.00195172 0.0138585 )  
( 0.000798673 -0.00198118 0.0115421 )  
( -7.38822e-05 0.00113836 -0.000252652 )  
( 0.00263897 -0.00277578 0.0145314 )  
( 0.00121835 -0.00165005 0.0107515 )  
( -0.00112266 -0.00283935 0.0130841 )  
( -4.74133e-05 -0.000729486 -0.00016419 )  
( 0.000362829 0.00202033 0.0130777 )  
( -0.000718703 -0.00196361 0.00969593 )  
( 0.000267805 0.00110607 0.000148592 )  
( -0.000617158 -0.00106301 0.00139774 )  
( -0.000162325 1.39925e-05 1.1685e-05 )  
( 0.000115356 2.94254e-05 -1.78702e-06 )  
( -0.000545816 0.000361628 -0.000347406 )  
( 0.000828329 -0.00115662 0.00967899 )  
( -0.00212447 -0.00197423 0.00961849 )  
( -0.000644408 -0.00211604 0.0129912 )  
( -0.00281576 -0.00177285 0.012835 )  
( 0.00057451 -0.0017116 0.0158983 )  
( -0.00132831 -0.00179688 0.0102127 )  
( 0.000564354 0.000281937 -0.000255574 )  
( -0.00343579 0.00174876 0.0114957 )  
( 0.000765867 -0.000626561 0.0126567 )  
( 0.0017689 0.000183367 0.0118719 )  
( -0.00335182 -0.00203246 0.00843206 )  
( -0.000308906 -0.00231612 0.0101725 )  
( 0.000468675 0.00106991 -1.99242e-05 )  
( 0.00124618 -0.0015486 0.00792807 )  
( 0.000259458 0.00032426 -0.000248126 )  
( -0.000641735 -0.00197078 0.0100654 )  
( -0.000147808 0.000178392 -1.53319e-05 )  
( 0.000791781 -2.84549e-05 0.0119824 )  
( -0.00105701 -0.00330854 0.0109324 )  
( -0.00393501 -0.000732657 0.00547794 )  
( 2.11124e-05 0.000461949 -3.71958e-06 )  
( 0.00123289 -0.002575 0.0140186 )  
( 0.00167573 -0.00266025 0.008613 )  
( 0.000263914 0.000476426 0.0151965 )  
( -0.000441222 -0.000565242 -0.000232153 )  
( -0.000124687 -0.00443564 0.0137649 )  
( -0.000521556 0.000801919 -0.00125524 )  
( 0.000270909 0.000100433 -2.42081e-05 )  
( 0.000217984 -0.00115784 0.0120209 )  
( -3.13138e-05 -2.1485e-05 -1.96319e-06 )  
( -0.000717938 0.000697048 0.0145042 )  
( -7.6311e-05 -0.00221426 0.0124841 )  
( -0.00177773 -0.00316656 0.0120277 )  
( 0.00358462 -0.00172219 0.0124543 )  
( -5.36355e-05 0.000395991 0.000247568 )  
( 0.000393706 -0.00128615 0.00877138 )  
( 0.00232013 -0.0011704 0.0147106 )  
( -0.000564246 0.000356525 0.0156368 )  
( 0.000352108 -0.000796138 0.000787666 )  
( -0.00088932 5.29712e-05 0.00566818 )  
( 0.00197869 -0.00221082 0.0110974 )  
( -0.000551386 -0.00169177 0.0153355 )  
( 0.000622284 0.000160124 -0.000267276 )  
( -0.000105748 -0.000622595 0.00141135 )  
( -0.000320614 0.000313641 0.000447907 )  
( 0.00145981 -0.00179631 0.0108602 )  
( 2.83933e-05 -4.66646e-06 -1.28356e-05 )  
( 1.2651e-05 -0.00156535 0.0101577 )  
( 0.00205345 -0.002042 0.00858222 )  
( 0.000903826 -0.000185956 -0.00098321 )  
( 0.000474667 0.000269478 0.000140488 )  
( -0.00207932 -0.00194698 -0.00247889 )  
( -0.0023783 -0.0030948 0.00707271 )  
( 0.00148435 -0.00076708 -0.00108903 )  
( 0.00326509 0.000965799 0.0106723 )  
( -0.000517585 5.8957e-05 0.000630336 )  
( 0.000176323 0.000119911 0.000111665 )  
( 0.000159894 0.000102626 6.6288e-05 )  
( -8.38058e-05 -0.000763817 0.00947088 )  
( 0.00104337 -0.00187164 0.00939916 )  
( -0.000158199 -1.08671e-05 0.00907158 )  
( 0.000102398 0.000308914 3.50881e-05 )  
( -0.000360709 -0.00234632 0.0120785 )  
( -0.000216319 -0.000259272 0.00151155 )  
( -0.00142473 -0.0014291 0.0159766 )  
( 0.000147478 -0.00209841 0.0104015 )  
( 0.00143648 -0.000253607 -7.9457e-05 )  
( 3.28901e-05 0.00060611 -0.000625814 )  
( -0.000970711 -0.00247767 0.0128311 )  
( -0.00162911 -0.000190128 0.0111347 )  
( 0.000737477 0.001579 0.0151752 )  
( 4.40318e-05 0.00025544 0.000750927 )  
( -0.00164118 -0.00247952 0.0101803 )  
( -2.00214e-05 0.000629882 0.000382745 )  
( -0.00070565 -0.00205543 0.0132126 )  
( -0.000868436 -0.00173849 0.0107342 )  
( 0.00145451 -0.000998579 0.014525 )  
( -0.000457408 0.000113113 0.00652316 )  
( 0.000163936 -4.56285e-05 0.0105327 )  
( -0.000790502 0.000257495 0.0139881 )  
( -0.00639935 0.00353548 -1.46783e-05 )  
( -6.68613e-05 0.000844316 4.65661e-05 )  
( -0.000287064 -8.48372e-05 -4.30922e-05 )  
( -0.000949923 -0.00115072 0.0112789 )  
( -8.38918e-05 -0.000955973 0.0143611 )  
( 0.0003942 -0.000185266 0.0146422 )  
( -0.000249645 0.000244884 4.85736e-05 )  
( -3.08784e-05 0.000738061 0.0108784 )  
( 0.00399611 -0.00217322 0.0124602 )  
( -0.000999322 -0.00175096 -0.000147659 )  
( 0.000927058 0.00100933 0.010468 )  
( 0.00038473 -0.00305722 0.0125025 )  
( 0.000919131 -0.000904619 0.0108941 )  
( -0.000229706 -2.52232e-05 -0.000482622 )  
( 6.59897e-06 -0.00012772 0.00038294 )  
( 0.000110068 0.000131161 -2.45037e-05 )  
( 0.000335743 -0.00185735 0.0121893 )  
( -0.000800984 0.000153353 0.013186 )  
( -6.26737e-05 0.000514995 -3.768e-05 )  
( 0.000107792 0.000242336 7.01151e-06 )  
( 0.000135572 -9.04795e-05 -0.000122291 )  
( 0.00076539 -0.000958296 0.00646824 )  
( 0.00200163 -0.000457847 0.014066 )  
( -0.000105588 0.00157715 0.0135204 )  
( 6.59664e-05 -0.000393622 -0.000549671 )  
( 0.00108198 0.000955678 0.0126131 )  
( -0.000764439 0.000310784 0.0124955 )  
( -0.000624875 0.000449658 0.0104554 )  
( -8.87011e-05 -0.00180622 0.00957225 )  
( -0.000120845 -0.00129264 0.00818331 )  
( 0.00054629 -0.00183692 0.0168905 )  
( -0.000905326 0.000219205 0.0125922 )  
( -0.000657894 -0.00247674 0.0134088 )  
( -0.00013564 0.000899321 -0.000893566 )  
( -0.0010743 -0.00142176 0.0118095 )  
( 0.000923873 -0.00186408 0.0147895 )  
( 0.00047938 0.000219544 -2.44548e-05 )  
( -0.00195207 -0.0029285 0.00938683 )  
( 0.000215358 0.000207943 7.67281e-05 )  
( -0.0015032 -8.18463e-05 0.0120634 )  
( -0.000753267 -0.00110505 0.00429789 )  
( -0.000728089 -0.000994029 0.0106978 )  
( 1.35019e-05 -0.00170459 0.0104909 )  
( -0.000502456 -0.00316 0.00839393 )  
( -2.6511e-05 0.000134374 0.000160451 )  
( 0.000452254 0.000178368 0.0124962 )  
( -0.000143293 -0.00075046 0.0102504 )  
( 0.00370791 -0.00130247 0.017364 )  
( -0.000639243 -0.000285368 0.00660803 )  
( -0.000994323 -0.000535878 -0.000840527 )  
( 0.000423961 0.000124298 0.000783483 )  
( 0.0023082 -0.000142228 0.00826929 )  
( 0.00165698 0.000407816 0.015594 )  
( 7.0311e-05 0.00201086 0.00803223 )  
( -0.000661301 -0.00459755 0.010984 )  
( -0.00181206 -0.00159176 0.00971025 )  
( -0.000507199 -0.000879536 0.000696606 )  
( 0.0015018 -0.00317223 0.0107812 )  
( 0.000618958 -2.87883e-05 0.00847096 )  
( 0.00052055 0.00245991 0.00751176 )  
( 0.000521021 0.00172565 0.00810909 )  
( -0.000669291 -0.0022737 0.00677053 )  
( 0.000243717 0.000671303 0.000103646 )  
( -0.000261637 -0.00174961 0.00983241 )  
( 7.82553e-05 -0.000832053 0.00539124 )  
( 1.43966e-05 5.5545e-05 -3.02585e-05 )  
( 1.31064e-05 -0.000258635 -2.10799e-05 )  
( -0.00294468 -0.00112534 0.0152131 )  
( -0.00253049 0.00076397 0.00239882 )  
( -0.000395013 -0.000215926 7.37243e-07 )  
( -1.45068e-05 -0.00296804 0.0106593 )  
( -3.59881e-05 0.000222093 -3.64041e-05 )  
( 0.000844828 0.000441077 0.00805653 )  
( 0.000418968 -0.00112934 0.00838995 )  
( -0.000857015 -0.00295351 0.0164736 )  
( 0.000539131 -0.000470482 0.0122829 )  
( -4.18314e-06 0.000118252 -0.000204901 )  
( 0.00139457 -0.000169754 0.0118666 )  
( 0.00112913 0.000596275 0.000103652 )  
( 0.000558199 -2.46291e-05 -0.000328617 )  
( -0.000385467 -0.00316903 0.0130693 )  
( -0.000740678 -0.00015807 0.0135744 )  
( -0.000149941 0.000398744 -0.000236952 )  
( -0.000415755 0.000818479 -0.000178966 )  
( 0.000546723 -0.000136448 0.00594916 )  
( 0.000183497 -0.00188432 -3.53169e-05 )  
( 0.000531711 0.000150067 0.0129376 )  
( 0.000636947 -0.000791846 0.00072437 )  
( 0.000884052 -6.58047e-05 -0.000110254 )  
( -0.00126611 -0.000403645 0.0122644 )  
( 0.000470424 -0.00135442 0.0133758 )  
( 0.000142366 9.09712e-05 -4.25277e-05 )  
( -0.00017745 -0.00193036 0.00319005 )  
( -0.000596431 -0.00256344 0.00921075 )  
( 0.0004059 0.000177286 0.00024056 )  
( -0.000306737 -0.00119011 0.0106118 )  
( -0.00109694 0.000823133 0.000413517 )  
( 2.30058e-05 0.000163874 -7.66387e-05 )  
( 0.00147583 -3.80067e-05 0.00108678 )  
( 0.00256934 0.00015591 0.000570508 )  
( -0.000196122 -0.00107999 0.0144189 )  
( 0.000103772 0.000327332 -0.000279549 )  
( -0.000165032 3.08936e-05 -0.000228278 )  
( 5.71688e-05 0.00390249 0.00469464 )  
( 0.00115857 0.000880949 0.000642052 )  
( -0.000980962 -0.00139705 0.00301131 )  
( 1.24273e-05 -0.000387865 -0.000109938 )  
( -1.3984e-05 0.000303754 -4.67143e-05 )  
( -0.000132677 0.000403148 0.000338812 )  
( -0.000367671 0.00225916 0.0102695 )  
( 5.4869e-05 3.63651e-05 4.65711e-05 )  
( -0.000801547 0.000227423 0.000266677 )  
( -0.00127749 -0.00201545 0.0114995 )  
( 0.00128398 -0.00036907 0.00700228 )  
( 0.000143442 0.00016848 2.14938e-06 )  
( -0.000224076 0.000149547 -1.82578e-05 )  
( 0.0008408 0.00118161 0.0126823 )  
( 0.000745917 0.00225043 0.00478997 )  
( -0.000858069 -0.00228543 0.00971037 )  
( -0.00040907 -0.00108997 -0.00198377 )  
( 0.000943074 -0.00354596 0.00990883 )  
( 0.0015843 -0.002437 0.0129985 )  
( 0.000700711 -0.00110739 0.0106306 )  
( -2.2733e-05 -2.47875e-05 -2.21036e-06 )  
( -0.000781562 0.00195918 0.013341 )  
( -0.000861939 -0.000630417 -3.38619e-05 )  
( 0.000169768 0.00142315 0.0103729 )  
( 0.000266907 0.000148131 0.000111468 )  
( -0.000900868 -0.00227943 0.00804192 )  
( -0.00127263 -0.00425888 0.0140908 )  
( 3.20119e-05 -2.89651e-05 -4.3516e-05 )  
( 0.000759011 0.000283451 0.00143033 )  
( 0.00317844 -0.000404973 0.0146234 )  
( -0.000159293 0.000578225 0.000973503 )  
( 8.55415e-05 5.99668e-05 0.0134667 )  
( 0.00036778 -0.00383378 0.0152296 )  
( -0.00245875 0.000696014 0.0159254 )  
( 0.00369568 -0.000629713 0.0127341 )  
( -3.73892e-05 -0.00311189 0.00931126 )  
( -0.000613159 0.000933496 0.0140357 )  
( -0.00211966 -0.00055413 -0.000477365 )  
( 0.000922157 -0.000451126 0.0010234 )  
( 0.00235246 -0.00052943 0.0103314 )  
( -0.000872862 -0.000269811 -1.49554e-05 )  
( 0.000457076 -0.000168367 -0.000965603 )  
( 0.000761913 -0.00274538 0.0111345 )  
( 0.000355271 0.000734594 -4.83491e-05 )  
( 0.00056056 -0.000212117 -0.000135658 )  
( 0.00171796 -0.00170988 0.00780593 )  
( -0.000633364 -0.00263988 0.0108207 )  
( -0.00229476 -0.000719867 -8.52697e-06 )  
( 0.000206092 -0.000345333 3.07187e-05 )  
( -0.000615844 0.000753983 0.00975855 )  
( 0.000276461 0.00063442 -0.000843191 )  
( 6.41695e-05 -4.84724e-05 3.1359e-05 )  
( 0.00149147 0.000237627 0.0085385 )  
( 0.00146771 -0.00169428 0.00745403 )  
( 0.00045516 -0.0012463 0.0137215 )  
( -0.00536753 0.0035126 0.000127208 )  
( -0.000821065 -0.00171554 0.00204825 )  
( 4.86423e-05 -0.00147631 0.0129174 )  
( 5.32962e-05 0.000898752 -7.826e-05 )  
( -0.00126355 -0.00157713 0.0121253 )  
( -0.000536358 0.0015553 0.00665644 )  
( -6.9556e-05 -7.68644e-05 0.0243172 )  
( 0.000884032 -0.00152013 0.0086586 )  