/*--------------------------------*- C++ -*----------------------------------*\
| =========                 |                                                 |
| \\      /  F ield         | OpenFOAM: The Open Source CFD Toolbox           |
|  \\    /   O peration     | Version:  2506                                  |
|   \\  /    A nd           | Website:  www.openfoam.com                      |
|    \\/     M anipulation  |                                                 |
\*---------------------------------------------------------------------------*/
FoamFile
{
    version     2.0;
    format      ascii;
    arch        "LSB;label=32;scalar=64";
    class       volScalarField;
    location    "0.07";
    object      Ksl;
}
// * * * * * * * * * * * * * * * * * * * * * * * * * * * * * * * * * * * * * //

dimensions      [1 -3 -1 0 0 0 0];

internalField   nonuniform List<scalar> 
1152
(
136539
250966
326613
164117
221028
185692
154166
218518
149283
198066
180965
404988
244969
244953
258519
153903
302876
312622
160478
175599
266900
248087
204296
202864
303543
178274
179359
200194
246524
236472
143135
401001
424793
132568
219791
251154
257762
290071
218621
526549
227415
231908
351790
289192
237551
153528
219837
261368
193768
269065
203735
173535
188527
270036
287993
314981
287016
267260
221256
187911
211729
264241
259417
506599
292979
207706
155542
347015
236294
353001
165670
222032
116296
326102
223754
293637
211246
349358
286303
222053
157037
376339
242592
222596
208052
274409
375640
306670
125307
259477
174385
209121
227202
211060
318699
570245
43775
66129.5
55992.9
79429.1
61972.4
54874
63640.5
85039.7
12923.8
31950.3
94143.9
51934.1
51244.9
48330.8
90297.1
31941.9
0
0
0
0
0
0
0
0
0
0
0
0
0
0
0
0
0
0
0
0
0
0
0
0
0
0
0
0
0
0
0
0
0
0
0
0
0
0
0
0
0
0
0
0
0
0
0
0
0
0
0
0
0
0
0
0
0
0
0
0
0
0
0
0
0
0
0
0
0
0
0
0
0
0
0
0
0
0
0
0
0
0
0
0
0
0
0
0
0
0
0
0
0
0
0
0
0
0
0
0
0
0
0
0
0
0
0
0
0
0
0
0
0
0
0
0
0
0
0
0
0
0
0
0
0
0
0
0
0
0
0
0
0
0
0
0
0
0
0
0
0
0
0
0
0
0
0
0
0
0
0
0
0
0
0
0
0
0
0
0
0
0
0
0
0
0
0
0
0
0
0
0
0
0
0
0
0
0
0
0
0
0
0
0
0
0
0
0
0
0
0
0
0
0
0
0
0
0
0
0
0
0
0
0
0
0
0
0
0
0
0
0
0
0
0
0
0
0
0
0
0
0
0
0
0
0
0
0
0
0
0
0
0
0
0
0
0
0
0
0
0
0
0
0
0
0
0
0
0
0
0
0
0
0
0
0
0
0
0
0
0
0
0
0
0
0
0
0
0
0
0
0
158589
212945
195356
148136
282049
149997
162013
201782
145860
162668
168346
152100
199748
168817
204229
144220
259778
108236
310641
229342
219759
314014
173525
288547
252471
187551
178159
209279
142507
281570
162633
172600
239148
314315
248179
128876
334186
250081
220108
153126
165291
193647
177055
271294
254604
260142
164262
275376
159087
284565
146288
306957
418366
208362
299317
276115
282493
330121
211097
102333
240653
210377
279824
156841
194224
175615
191795
353524
275082
176604
195648
252867
293105
228179
278262
304346
192219
314497
257008
189916
87174.3
304559
151646
391866
218900
260891
233493
226553
263365
184818
311777
318213
273817
239470
126706
140993
67293.5
28651.6
60553.6
68636.4
79774.4
60859.9
82596.8
62906.1
63311.1
25688.9
38937.7
40441.6
51551.2
52747.8
78058.2
126828
0
0
0
0
0
0
0
0
0
0
0
0
0
0
0
0
0
0
0
0
0
0
0
0
0
0
0
0
0
0
0
0
0
0
0
0
0
0
0
0
0
0
0
0
0
0
0
0
0
0
0
0
0
0
0
0
0
0
0
0
0
0
0
0
0
0
0
0
0
0
0
0
0
0
0
0
0
0
0
0
0
0
0
0
0
0
0
0
0
0
0
0
0
0
0
0
0
0
0
0
0
0
0
0
0
0
0
0
0
0
0
0
0
0
0
0
0
0
0
0
0
0
0
0
0
0
0
0
0
0
0
0
0
0
0
0
0
0
0
0
0
0
0
0
0
0
0
0
0
0
0
0
0
0
0
0
0
0
0
0
0
0
0
0
0
0
0
0
0
0
0
0
0
0
0
0
0
0
0
0
0
0
0
0
0
0
0
0
0
0
0
0
0
0
0
0
0
0
0
0
0
0
0
0
0
0
0
0
0
0
0
0
0
0
0
0
0
0
0
0
0
0
0
0
0
0
0
0
0
0
0
0
0
0
0
0
0
0
0
0
0
0
0
0
0
0
0
0
0
0
0
0
0
0
0
0
0
0
0
0
0
0
0
0
0
0
0
0
0
0
0
0
225694
134872
145219
237025
148909
193851
176159
203952
215907
125075
142374
158730
154588
196443
139074
258903
207381
182248
127228
300018
289687
246097
93917.2
267580
116731
142322
307344
194292
110763
258742
137181
177127
157655
285450
206909
267420
172963
164689
275488
302047
188539
180759
231140
224253
270661
246502
256888
158768
186808
95739.9
189720
281900
182494
355080
195317
302235
284922
207345
265957
208713
190395
207800
212635
330314
210663
212955
249994
227995
252926
200542
241324
294270
247979
204779
269829
248757
158770
574072
174999
483278
250592
211819
196112
250753
219001
347722
225868
222485
235715
187163
381915
334619
264758
176148
276228
350642
70131.7
74971.4
52072.7
91791.7
83487.6
48813.7
32361.1
53584.8
101947
26764.8
53794.6
46548.6
75990.5
116027
35430.9
61545.6
0
0
0
0
0
0
0
0
0
0
0
0
0
0
0
0
0
0
0
0
0
0
0
0
0
0
0
0
0
0
0
0
0
0
0
0
0
0
0
0
0
0
0
0
0
0
0
0
0
0
0
0
0
0
0
0
0
0
0
0
0
0
0
0
0
0
0
0
0
0
0
0
0
0
0
0
0
0
0
0
0
0
0
0
0
0
0
0
0
0
0
0
0
0
0
0
0
0
0
0
0
0
0
0
0
0
0
0
0
0
0
0
0
0
0
0
0
0
0
0
0
0
0
0
0
0
0
0
0
0
0
0
0
0
0
0
0
0
0
0
0
0
0
0
0
0
0
0
0
0
0
0
0
0
0
0
0
0
0
0
0
0
0
0
0
0
0
0
0
0
0
0
0
0
0
0
0
0
0
0
0
0
0
0
0
0
0
0
0
0
0
0
0
0
0
0
0
0
0
0
0
0
0
0
0
0
0
0
0
0
0
0
0
0
0
0
0
0
0
0
0
0
0
0
0
0
0
0
0
0
0
0
0
0
0
0
0
0
0
0
0
0
0
0
0
0
0
0
0
0
0
0
0
0
0
0
0
0
0
0
0
0
0
0
0
0
0
0
0
0
0
0
)
;

boundaryField
{
    inlet
    {
        type            zeroGradient;
    }
    outlet
    {
        type            zeroGradient;
    }
    wall
    {
        type            zeroGradient;
    }
    procBoundary2to0
    {
        type            processor;
        value           nonuniform List<scalar> 
192
(
189856
78488.7
195421
104766
192570
198755
206321
173463
195720
415079
299273
175945
214827
272976
333711
413818
280445
290241
335510
311116
359776
167249
208839
154227
28323.9
25679.9
71325.8
81818.5
0
0
0
0
0
0
0
0
0
0
0
0
0
0
0
0
0
0
0
0
0
0
0
0
0
0
0
0
0
0
0
0
0
0
0
0
0
0
0
0
0
0
0
0
0
0
0
0
0
0
0
0
0
0
0
0
0
0
0
0
0
0
0
0
0
0
0
0
164640
215317
299998
156400
140422
248298
344562
181904
304650
171002
185904
174027
276678
398426
258386
226718
147629
240529
226419
254735
196374
208554
292110
209260
82986.7
84883.4
67893.9
71060.9
0
0
0
0
0
0
0
0
0
0
0
0
0
0
0
0
0
0
0
0
0
0
0
0
0
0
0
0
0
0
0
0
0
0
0
0
0
0
0
0
0
0
0
0
0
0
0
0
0
0
0
0
0
0
0
0
0
0
0
0
0
0
0
0
0
0
0
0
)
;
    }
    procBoundary2to3
    {
        type            processor;
        value           nonuniform List<scalar> 
192
(
174088
151936
119231
252717
173453
254060
272546
190930
298571
164643
388365
183810
236838
185978
283901
182073
137009
211557
267192
309610
226436
175880
270456
99631.5
51259.3
86356
43201.5
68179.7
0
0
0
0
0
0
0
0
0
0
0
0
0
0
0
0
0
0
0
0
0
0
0
0
0
0
0
0
0
0
0
0
0
0
0
0
0
0
0
0
0
0
0
0
0
0
0
0
0
0
0
0
0
0
0
0
0
0
0
0
0
0
0
0
0
0
0
0
169839
177496
293054
223119
295748
191941
182566
256410
312469
288137
324578
180371
214058
414770
294263
270406
200143
200568
207777
240075
190868
342323
117725
435152
31422.8
54221.7
49394
40893
0
0
0
0
0
0
0
0
0
0
0
0
0
0
0
0
0
0
0
0
0
0
0
0
0
0
0
0
0
0
0
0
0
0
0
0
0
0
0
0
0
0
0
0
0
0
0
0
0
0
0
0
0
0
0
0
0
0
0
0
0
0
0
0
0
0
0
0
)
;
    }
}


// ************************************************************************* //
