/*--------------------------------*- C++ -*----------------------------------*\
| =========                 |                                                 |
| \\      /  F ield         | OpenFOAM: The Open Source CFD Toolbox           |
|  \\    /   O peration     | Version:  2506                                  |
|   \\  /    A nd           | Website:  www.openfoam.com                      |
|    \\/     M anipulation  |                                                 |
\*---------------------------------------------------------------------------*/
FoamFile
{
    version     2.0;
    format      ascii;
    arch        "LSB;label=32;scalar=64";
    class       surfaceScalarField;
    location    "0.07";
    object      phi;
}
// * * * * * * * * * * * * * * * * * * * * * * * * * * * * * * * * * * * * * //

dimensions      [0 3 -1 0 0 0 0];

oriented        oriented;

internalField   nonuniform List<scalar> 
3120
(
-1.5854e-09
-2.30793e-09
4.19224e-08
8.79425e-10
6.7102e-10
-1.59147e-09
2.59909e-08
3.70457e-09
1.88797e-09
3.7106e-08
-1.69884e-09
4.72442e-08
1.56276e-09
3.73152e-09
3.04359e-08
2.51834e-09
1.9895e-09
2.80933e-09
3.57053e-08
-1.96922e-09
1.43701e-09
4.78454e-08
1.3688e-09
3.72776e-08
6.10737e-11
-1.89548e-09
3.96253e-08
8.1024e-09
-5.91973e-10
-3.50496e-10
4.51995e-08
-4.68345e-09
2.4309e-09
4.6645e-08
3.81765e-09
2.869e-08
-3.68085e-10
2.91853e-08
5.37246e-09
7.2627e-09
2.65391e-09
3.11938e-08
7.15704e-09
-2.01636e-09
4.7712e-08
1.37011e-10
3.51467e-08
4.8951e-09
7.03994e-09
4.70029e-09
2.24452e-08
3.26334e-09
-2.99126e-09
-3.38144e-09
5.18983e-08
-5.45664e-09
-2.52213e-09
4.93922e-08
-3.65311e-10
4.59617e-08
-5.08169e-10
1.86267e-09
3.2571e-08
1.21064e-09
-1.45285e-10
2.06946e-09
2.98915e-08
2.49159e-10
2.31152e-09
4.26171e-08
4.2363e-09
3.02179e-08
1.75675e-09
4.22373e-09
3.24818e-08
3.02565e-09
-1.37376e-09
5.85714e-09
4.45422e-08
1.19476e-09
7.44929e-09
3.89386e-08
2.41895e-09
3.6866e-08
1.98394e-09
3.39361e-08
-2.73467e-09
2.23684e-10
-1.55222e-09
4.58485e-08
-5.26134e-09
-9.78676e-10
5.30137e-08
1.57379e-09
2.33902e-08
7.00065e-09
-2.70679e-09
-5.6152e-10
3.3068e-08
-3.70571e-09
-2.73871e-09
-1.33817e-09
5.88512e-08
4.60952e-10
-1.22245e-09
5.04198e-08
-6.44156e-10
5.16696e-08
-2.3155e-09
-3.09621e-09
4.23639e-08
-4.9427e-09
-1.31714e-09
-2.74909e-09
3.03039e-08
7.11299e-10
-7.41934e-10
4.01081e-08
2.89383e-09
2.20723e-08
-3.34656e-09
-2.29318e-09
3.84488e-08
-3.42357e-09
8.87387e-10
1.24463e-10
3.74345e-08
3.12699e-09
-2.59748e-10
3.62167e-08
4.19312e-10
4.16578e-08
-3.57194e-09
4.44306e-08
-1.53797e-09
-7.67777e-09
-5.03078e-10
4.94097e-08
-6.50552e-09
4.86114e-09
3.94504e-08
7.9392e-09
2.3817e-08
1.90121e-09
-3.87113e-09
2.69207e-09
4.23614e-08
-3.43588e-09
7.28944e-09
2.86047e-09
4.22273e-08
-2.14275e-09
1.6978e-09
6.07251e-08
5.43852e-09
4.3471e-08
-2.17042e-09
5.57333e-09
4.65045e-08
-4.85154e-09
3.44082e-09
-8.81497e-10
2.84346e-08
7.47095e-10
-1.35302e-09
4.58526e-08
-2.21335e-09
3.39574e-08
-6.06175e-09
-8.07601e-09
6.93574e-08
-1.11975e-08
3.87934e-09
-3.87138e-09
3.04833e-08
4.87797e-10
-5.04522e-09
4.33004e-08
-1.93065e-09
4.09106e-08
-5.53293e-09
4.7435e-08
2.22656e-09
-7.77397e-09
3.18663e-09
3.06064e-08
6.21235e-09
2.48866e-09
3.30917e-08
2.01138e-09
2.97431e-08
-4.95698e-09
-1.37095e-09
6.66179e-10
4.93742e-08
-3.43416e-09
4.32299e-10
9.75312e-10
3.40694e-08
-9.57657e-10
4.27038e-10
5.40815e-08
1.04406e-09
3.22864e-08
-5.31382e-10
6.76557e-09
4.30049e-08
-2.06831e-09
-4.58131e-10
1.27387e-09
2.80628e-08
2.85739e-10
2.66394e-09
4.28719e-08
3.29123e-10
3.43968e-08
-3.2508e-09
-5.64462e-09
9.80161e-08
-1.29977e-08
-9.24075e-10
-8.56711e-10
3.02872e-08
-1.30121e-09
-2.9735e-09
4.9315e-08
4.71469e-10
3.83243e-08
1.458e-10
4.12742e-08
4.05076e-09
-3.68028e-09
-1.35979e-09
3.38132e-08
-2.55794e-09
3.13977e-09
2.71804e-08
-1.56173e-09
3.0685e-08
-3.8913e-09
6.58114e-10
-2.57972e-10
4.71905e-08
-4.31527e-09
-2.8506e-09
1.03121e-09
3.31943e-08
-4.29573e-10
5.85984e-11
4.93953e-08
-4.3765e-10
3.73312e-08
2.71473e-09
4.20304e-09
3.54621e-08
3.67042e-10
-3.40796e-09
6.40361e-10
3.45764e-08
-7.59339e-10
-1.42353e-09
4.17054e-08
3.0837e-09
3.22715e-08
3.31184e-09
-5.96171e-09
1.03795e-07
1.07389e-09
-9.30049e-09
-3.3924e-09
4.69323e-08
4.59501e-09
1.00528e-09
3.29907e-08
3.10521e-09
4.2438e-08
2.82918e-09
4.36764e-08
-1.23218e-08
1.12866e-09
-2.57423e-09
3.70188e-08
-1.19463e-09
2.45796e-09
2.68627e-08
-3.70933e-09
5.21314e-08
-1.79522e-09
1.65602e-10
2.83731e-10
4.365e-08
2.79908e-09
-2.1096e-09
-5.26586e-10
3.8133e-08
2.52962e-10
-1.70284e-10
4.5203e-08
-1.45059e-10
3.97716e-08
-8.38328e-10
-7.1687e-09
4.26219e-08
1.13055e-09
-2.10943e-09
-2.56705e-09
3.78883e-08
-1.89656e-10
5.82388e-10
3.90326e-08
-1.27437e-09
3.45254e-08
4.7477e-09
4.21728e-09
8.05482e-08
7.11336e-09
1.16272e-09
2.30524e-12
4.79478e-08
-2.0391e-09
-3.61902e-10
3.71377e-08
-8.64822e-10
4.07132e-08
1.85385e-09
4.61856e-08
-1.8348e-09
1.68871e-09
2.07592e-09
4.07137e-08
-3.9141e-09
-4.1793e-09
3.52151e-08
-2.45941e-09
4.57203e-08
1.79816e-09
-4.06783e-09
-1.009e-09
4.21759e-08
6.16146e-09
-4.09498e-09
2.67005e-10
3.88064e-08
-3.34003e-09
3.25866e-10
4.33747e-08
1.41804e-09
3.98094e-08
-3.90368e-09
-3.07593e-09
4.30063e-08
5.58582e-09
-3.3604e-09
4.71251e-10
3.71406e-08
-2.12665e-09
9.9578e-10
3.71288e-08
9.35303e-10
3.58342e-08
-6.73137e-10
6.74335e-09
6.20203e-08
9.38182e-09
-7.21286e-10
3.15437e-09
4.5312e-08
-1.51395e-09
3.15185e-09
3.57729e-08
2.04614e-09
3.97722e-08
-2.87038e-09
4.75116e-08
3.8791e-09
4.40861e-09
-3.6772e-09
4.24743e-08
2.19961e-09
-3.75079e-09
3.51396e-08
3.29958e-09
4.16216e-08
4.47051e-09
6.26199e-10
-2.29613e-09
4.23751e-08
6.16145e-10
3.57095e-10
-8.4825e-10
4.06986e-08
5.9565e-10
-7.83716e-11
4.16539e-08
-1.18008e-09
4.02741e-08
2.1371e-09
-4.84468e-09
4.33127e-08
1.05834e-10
1.29524e-09
-3.33914e-09
4.04729e-08
1.74443e-11
-1.26327e-09
3.95915e-08
-2.89636e-09
3.91247e-08
3.91891e-09
8.94872e-10
4.94631e-08
2.89852e-09
3.41547e-09
-1.45495e-09
4.39308e-08
-5.46483e-10
-1.48061e-09
3.99507e-08
-2.1323e-09
4.0862e-08
1.44812e-09
4.50575e-08
1.13275e-09
7.68406e-10
1.59811e-09
4.2985e-08
-2.11778e-09
-2.31477e-09
3.99496e-08
-2.37867e-09
4.18517e-08
-9.57752e-10
8.78936e-10
-1.11945e-09
4.25173e-08
-3.72095e-10
5.66039e-10
-7.24434e-10
4.17439e-08
4.40713e-10
-5.30317e-10
4.1553e-08
-1.16415e-09
4.10841e-08
1.20753e-09
-1.76285e-09
4.30498e-08
-3.00988e-10
8.18087e-10
-1.69928e-09
4.18374e-08
-4.62896e-11
-1.24388e-09
4.11696e-08
-1.98762e-09
4.09559e-08
1.35026e-09
6.41551e-10
4.48119e-08
8.96723e-10
1.29042e-09
-7.79385e-10
4.30704e-08
-4.86541e-10
-1.1869e-09
4.16709e-08
-1.76209e-09
4.17585e-08
-7.07117e-11
4.37436e-08
8.81401e-10
1.1443e-09
1.52398e-10
4.29296e-08
-9.47792e-10
-1.4598e-09
4.1892e-08
-1.51778e-09
4.23533e-08
-1.33997e-09
6.87196e-10
-6.00068e-10
4.27051e-08
-4.51182e-10
5.6324e-10
-5.41926e-10
4.2321e-08
3.06268e-10
-5.84686e-10
4.20494e-08
-8.98514e-10
4.18444e-08
7.11956e-10
-8.94798e-10
4.29713e-08
-3.3853e-10
5.28835e-10
-9.75707e-10
4.24545e-08
1.28536e-11
-9.78876e-10
4.208e-08
-1.30441e-09
4.19606e-08
6.46763e-10
-2.58003e-10
4.35313e-08
-2.71365e-12
5.17396e-10
-7.12425e-10
4.29367e-08
-2.48252e-10
-9.56652e-10
4.24144e-08
-1.25798e-09
4.23881e-08
1.70676e-10
4.32904e-08
-1.28781e-10
1.53269e-10
8.73025e-11
4.3001e-08
-7.00636e-10
-6.69451e-10
4.26303e-08
-9.38447e-10
4.2752e-08
-1.00385e-09
4.24406e-10
-2.68741e-10
4.28662e-08
-3.55971e-10
3.45356e-10
-3.25807e-10
4.26683e-08
1.36946e-10
-4.20998e-10
4.25032e-08
-6.02504e-10
4.24022e-08
3.54808e-10
-3.9199e-10
4.29825e-08
-2.42151e-10
2.47506e-10
-5.26228e-10
4.27627e-08
-4.25694e-11
-6.35473e-10
4.25847e-08
-8.22031e-10
4.25278e-08
2.26653e-10
-2.094e-10
4.3178e-08
-5.52966e-11
1.32894e-10
-4.62866e-10
4.29674e-08
-2.18529e-10
-6.46346e-10
4.27769e-08
-8.2938e-10
4.27657e-08
-2.89489e-11
4.31459e-08
-1.59366e-10
1.23814e-10
-1.03665e-10
4.30475e-08
-4.34721e-10
-4.40637e-10
4.29276e-08
-6.06732e-10
4.29836e-08
-7.05665e-10
2.12941e-10
-1.25319e-10
4.29861e-08
-1.9489e-10
1.57595e-10
-1.85512e-10
4.28884e-08
2.72359e-11
-2.62123e-10
4.28032e-08
-3.69514e-10
4.27578e-08
1.4747e-10
-2.04849e-10
4.30358e-08
-1.20674e-10
7.87456e-11
-2.96815e-10
4.29429e-08
-8.02963e-11
-3.84478e-10
4.2866e-08
-4.93546e-10
4.2846e-08
5.6014e-11
-1.71463e-10
4.31127e-08
-2.33007e-11
-1.41061e-11
-2.9677e-10
4.30377e-08
-1.88513e-10
-4.05924e-10
4.2973e-08
-5.09713e-10
4.29797e-08
-7.09979e-11
4.31269e-08
-1.58689e-10
7.75441e-11
-1.35224e-10
4.30985e-08
-2.83638e-10
-3.04947e-10
4.30695e-08
-3.78183e-10
4.31087e-08
-4.45636e-10
8.62252e-11
-6.13666e-11
4.30704e-08
-8.72368e-11
4.8778e-11
-1.05154e-10
4.30242e-08
-2.78718e-11
-1.57594e-10
4.29849e-08
-2.21577e-10
4.29678e-08
4.00604e-11
-1.14242e-10
4.30918e-08
-4.27019e-11
-4.93708e-12
-1.70937e-10
4.30536e-08
-9.19326e-11
-2.29192e-10
4.30241e-08
-2.92987e-10
4.30222e-08
-1.69748e-11
-1.20825e-10
4.31259e-08
1.09018e-11
-6.45019e-11
-1.86605e-10
4.31011e-08
-1.55948e-10
-2.48798e-10
4.30841e-08
-3.07437e-10
4.30981e-08
-8.42704e-11
4.31443e-08
-1.21086e-10
6.72849e-11
-1.3111e-10
4.31414e-08
-1.82632e-10
-2.19042e-10
4.3143e-08
-2.34309e-10
4.31739e-08
-2.74677e-10
2.24274e-11
-3.34582e-11
4.31281e-08
-2.96462e-11
-2.77291e-12
-6.22167e-11
4.31076e-08
-4.74665e-11
-9.56663e-11
4.30918e-08
-1.3385e-10
4.30882e-08
-7.28147e-12
-6.84315e-11
4.31374e-08
-3.24703e-12
-3.6887e-11
-1.02379e-10
4.31232e-08
-8.55352e-11
-1.38299e-10
4.31147e-08
-1.75572e-10
4.31203e-08
-4.16261e-11
-8.21353e-11
4.31543e-08
2.72807e-11
-7.32764e-11
-1.17939e-10
4.31487e-08
-1.23014e-10
-1.53236e-10
4.31488e-08
-1.86373e-10
4.31637e-08
-7.83875e-11
4.31688e-08
-8.6624e-11
5.86113e-11
-1.10282e-10
4.31741e-08
-1.18445e-10
-1.57869e-10
4.31842e-08
-1.46775e-10
4.32085e-08
-1.69927e-10
-6.00746e-12
-2.10901e-11
4.31668e-08
-2.13904e-12
-2.27779e-11
-3.91714e-11
4.31589e-08
-4.88305e-11
-5.99181e-11
4.31542e-08
-8.27152e-11
4.31564e-08
-2.45942e-11
-4.37919e-11
4.31711e-08
1.37869e-11
-4.37811e-11
-6.38646e-11
4.31674e-08
-7.16468e-11
-8.53392e-11
4.31675e-08
-1.07112e-10
4.31752e-08
-4.49601e-11
-5.5738e-11
4.31803e-08
3.13358e-11
-6.5548e-11
-7.56268e-11
4.31818e-08
-9.35328e-11
-9.56499e-11
4.31873e-08
-1.14395e-10
4.32004e-08
-6.53833e-11
4.31903e-08
-6.05071e-11
4.89812e-11
-8.63313e-11
4.31976e-08
-7.74799e-11
-1.13021e-10
4.32087e-08
-9.30324e-11
4.3227e-08
-1.05982e-10
-1.63647e-11
-1.50853e-11
4.31926e-08
9.32067e-12
-2.73078e-11
-2.62737e-11
4.31906e-08
-4.26048e-11
-3.90465e-11
4.31908e-08
-5.28354e-11
4.31949e-08
-2.77871e-11
-2.95077e-11
4.31949e-08
1.88998e-11
-4.02054e-11
-4.13646e-11
4.31955e-08
-5.64055e-11
-5.41269e-11
4.31987e-08
-6.69259e-11
4.3206e-08
-3.98384e-11
-3.81664e-11
4.32003e-08
2.92714e-11
-5.31296e-11
-4.93696e-11
4.3204e-08
-6.92679e-11
-6.07722e-11
4.32104e-08
-7.14249e-11
4.3221e-08
-5.13894e-11
4.32069e-08
-4.19427e-11
3.92758e-11
-6.49315e-11
4.32139e-08
-5.11787e-11
-8.02854e-11
4.32235e-08
-5.97065e-11
4.3237e-08
-6.68202e-11
-1.81445e-11
-1.16415e-11
4.32098e-08
1.26897e-11
-2.52401e-11
-1.85623e-11
4.32103e-08
-3.42735e-11
-2.64962e-11
4.32122e-08
-3.49872e-11
4.32163e-08
-2.5183e-11
-2.06494e-11
4.32111e-08
1.85836e-11
-3.32388e-11
-2.76996e-11
4.32133e-08
-4.27727e-11
-3.53232e-11
4.32171e-08
-4.29395e-11
4.32232e-08
-3.23674e-11
-2.6446e-11
4.32144e-08
2.47897e-11
-4.09602e-11
-3.28419e-11
4.32184e-08
-5.043e-11
-3.93741e-11
4.32242e-08
-4.5461e-11
4.32323e-08
-3.90062e-11
4.32188e-08
-2.908e-11
3.05057e-11
-4.77331e-11
4.32247e-08
-3.4174e-11
-5.67197e-11
4.32323e-08
-3.88264e-11
4.32422e-08
-4.26578e-11
-1.63406e-11
-9.28322e-12
4.32208e-08
1.23632e-11
-2.1057e-11
-1.3628e-11
4.32222e-08
-2.64524e-11
-1.85848e-11
4.32245e-08
-2.38378e-11
4.32281e-08
-2.07498e-11
-1.48304e-11
4.32218e-08
1.60459e-11
-2.60486e-11
-1.9068e-11
4.32242e-08
-3.17116e-11
-2.36378e-11
4.32278e-08
-2.8194e-11
4.32327e-08
-2.50838e-11
-1.85424e-11
4.32239e-08
1.97823e-11
-3.06841e-11
-2.22311e-11
4.32276e-08
-3.62978e-11
-2.59723e-11
4.32324e-08
-2.94393e-11
4.32385e-08
-2.89506e-11
4.32268e-08
-2.02531e-11
2.30914e-11
-3.45844e-11
4.32316e-08
-2.30614e-11
-3.98885e-11
4.32376e-08
-2.55536e-11
4.32447e-08
-2.75473e-11
-1.34121e-11
-7.42086e-12
4.32276e-08
1.05532e-11
-1.66599e-11
-1.01523e-11
4.32292e-08
-1.98937e-11
-1.31911e-11
4.32315e-08
-1.63686e-11
4.32345e-08
-1.6182e-11
-1.07585e-11
4.32284e-08
1.28374e-11
-1.97184e-11
-1.33103e-11
4.32308e-08
-2.30741e-11
-1.60163e-11
4.32339e-08
-1.87014e-11
4.32378e-08
-1.88052e-11
-1.30552e-11
4.32299e-08
1.5107e-11
-2.2471e-11
-1.5182e-11
4.32331e-08
-2.57812e-11
-1.72925e-11
4.3237e-08
-1.92291e-11
4.32417e-08
-2.10653e-11
4.32319e-08
-1.4113e-11
1.70715e-11
-2.46925e-11
4.32358e-08
-1.56335e-11
-2.77975e-11
4.32405e-08
-1.69194e-11
4.32458e-08
-1.78993e-11
-1.03523e-11
-5.7064e-12
4.32316e-08
8.29599e-12
-1.25825e-11
-7.36259e-12
4.32333e-08
-1.44844e-11
-9.14464e-12
4.32354e-08
-1.09771e-11
4.32381e-08
-1.20323e-11
-7.66312e-12
4.32324e-08
9.6839e-12
-1.43753e-11
-9.16742e-12
4.32346e-08
-1.63168e-11
-1.07181e-11
4.32373e-08
-1.22406e-11
4.32405e-08
-1.35895e-11
-9.0394e-12
4.32336e-08
1.10588e-11
-1.59594e-11
-1.02487e-11
4.32363e-08
-1.78543e-11
-1.14027e-11
4.32395e-08
-1.24451e-11
4.32432e-08
-1.48968e-11
4.32351e-08
-9.67319e-12
1.22496e-11
-1.71917e-11
4.32382e-08
-1.04757e-11
-1.8949e-11
4.3242e-08
-1.1104e-11
4.32461e-08
-1.15499e-11
-7.44681e-12
-4.02931e-12
4.3234e-08
6.03452e-12
-8.89043e-12
-4.96132e-12
4.32356e-08
-9.96269e-12
-5.94572e-12
4.32377e-08
-6.93775e-12
4.324e-08
-8.39432e-12
-5.15376e-12
4.32348e-08
6.83589e-12
-9.88083e-12
-5.99864e-12
4.32367e-08
-1.09525e-11
-6.84324e-12
4.32391e-08
-7.65742e-12
4.32418e-08
-9.27597e-12
-5.95188e-12
4.32357e-08
7.63962e-12
-1.07486e-11
-6.62092e-12
4.3238e-08
-1.17765e-11
-7.22497e-12
4.32408e-08
-7.75638e-12
4.32439e-08
-1.00128e-11
4.32369e-08
-6.32528e-12
8.35128e-12
-1.14065e-11
4.32395e-08
-6.74196e-12
-1.23421e-11
4.32426e-08
-7.03081e-12
4.32459e-08
-7.21429e-12
-4.82783e-12
-2.51806e-12
4.32354e-08
3.94608e-12
-5.66576e-12
-2.99805e-12
4.3237e-08
-6.22297e-12
-3.50951e-12
4.32389e-08
-4.01003e-12
4.3241e-08
-5.31654e-12
-3.13115e-12
4.32361e-08
4.37289e-12
-6.18159e-12
-3.57348e-12
4.32379e-08
-6.72239e-12
-4.00652e-12
4.32401e-08
-4.41265e-12
4.32424e-08
-5.78221e-12
-3.56753e-12
4.32368e-08
4.80556e-12
-6.63016e-12
-3.9205e-12
4.32389e-08
-7.13532e-12
-4.22065e-12
4.32414e-08
-4.47403e-12
4.3244e-08
-6.17614e-12
4.32378e-08
-3.78358e-12
5.20053e-12
-6.96525e-12
4.32401e-08
-3.9991e-12
-7.41145e-12
4.32429e-08
-4.1214e-12
4.32457e-08
-4.18591e-12
-2.75542e-12
-1.43494e-12
2.26597e-12
-3.18059e-12
-1.68431e-12
-3.46674e-12
-1.95277e-12
-2.21373e-12
-3.01125e-12
-1.76413e-12
2.48498e-12
-3.45295e-12
-1.98394e-12
-3.72889e-12
-2.20363e-12
-2.40827e-12
-3.24582e-12
-1.99252e-12
2.69637e-12
-3.68358e-12
-2.16133e-12
-3.93913e-12
-2.30749e-12
-2.4287e-12
-3.43429e-12
-2.10487e-12
2.87725e-12
-3.85142e-12
-2.2033e-12
-4.07656e-12
-2.25192e-12
-2.27285e-12
3.85232e-09
3.05414e-10
2.4991e-08
2.81906e-09
-3.90736e-09
-3.01197e-09
5.30176e-08
1.34824e-09
6.33647e-09
3.0639e-08
3.11197e-10
5.35641e-08
4.67935e-10
6.04117e-09
2.0223e-08
4.92899e-09
6.3673e-10
1.28892e-09
3.55828e-08
-3.98166e-09
3.97995e-09
5.58152e-08
7.33263e-09
4.10135e-08
-4.9021e-10
5.46835e-09
3.55489e-08
2.67648e-09
2.4342e-09
-3.37912e-09
4.80989e-08
-1.89005e-09
1.37222e-09
6.13558e-08
7.40763e-09
6.45821e-08
-2.54366e-09
4.75912e-08
3.7199e-09
3.61092e-09
4.27239e-08
6.05331e-10
6.3605e-08
7.71238e-08
1.68292e-09
-1.45437e-09
2.03096e-08
1.71802e-09
3.37575e-09
-4.77465e-09
5.08382e-08
4.11399e-09
1.22334e-09
3.02513e-08
2.89619e-09
6.42952e-08
-7.88075e-10
-1.06766e-09
2.04849e-08
1.39329e-10
3.33569e-09
4.70875e-10
2.62132e-08
5.51888e-09
4.02187e-09
5.08334e-08
-5.30099e-09
5.70487e-08
5.22905e-10
-6.53171e-10
3.43731e-08
2.3849e-10
4.62242e-09
-3.25023e-09
4.77203e-08
-9.64711e-10
5.39805e-09
6.55667e-08
-4.32011e-10
5.62907e-08
2.12978e-11
4.59873e-08
1.17107e-09
6.74749e-09
3.47323e-08
-3.15946e-09
7.87563e-08
6.8034e-08
-4.3909e-09
-6.88625e-09
3.31508e-08
-3.10202e-09
7.67549e-09
6.61101e-09
2.56553e-08
-1.87523e-09
-4.3692e-09
5.21103e-08
3.34705e-09
5.69946e-08
2.50886e-09
-2.94185e-09
1.51179e-08
-1.08621e-09
7.05475e-10
-4.42735e-09
3.90549e-08
6.38723e-09
1.1066e-09
3.96758e-08
1.37692e-08
5.64051e-08
2.30004e-09
-7.49012e-09
3.76416e-08
-1.02037e-09
2.52938e-09
3.66017e-09
3.94033e-08
1.18161e-08
-4.47228e-09
6.18588e-08
-6.06978e-09
9.11612e-08
3.80783e-09
3.6092e-08
-1.13126e-09
-7.11174e-10
4.31736e-08
8.26744e-09
6.56285e-08
7.06399e-08
2.99793e-09
-8.28108e-10
3.96106e-08
-6.40299e-09
-2.03992e-09
3.00094e-10
3.66054e-08
-9.98713e-09
-1.8949e-09
6.39638e-08
2.25747e-09
2.87352e-08
2.58564e-09
-5.38337e-09
1.86127e-08
-1.52518e-09
-4.42091e-10
-6.38707e-09
4.87697e-08
-9.24178e-10
-6.64256e-09
4.49055e-08
9.56891e-09
4.1559e-08
1.52226e-09
4.94651e-09
2.59131e-08
-1.23586e-10
-7.30875e-10
-1.43128e-09
3.67007e-08
8.25497e-09
-2.34725e-09
4.85776e-08
9.60108e-09
8.78557e-08
-8.41882e-10
4.28876e-08
-3.8898e-10
-1.94916e-09
4.33419e-08
7.75213e-09
5.36925e-08
8.69555e-08
-4.80944e-09
-5.23764e-09
5.72868e-08
-3.57833e-09
-3.71601e-09
-3.70683e-09
3.66609e-08
-1.64102e-10
-1.18861e-09
6.00389e-08
-2.92007e-09
2.2757e-08
-1.84734e-09
-5.17184e-09
2.41272e-08
-3.7329e-09
-1.28159e-09
2.32332e-09
4.21738e-08
-9.88399e-10
-5.7302e-09
4.91539e-08
-1.40254e-08
4.60631e-08
1.28318e-09
-5.03435e-09
2.51883e-08
-6.95958e-10
-3.53312e-09
-5.16358e-09
4.90039e-08
-5.43632e-09
9.85937e-09
3.48912e-08
1.40769e-08
3.93419e-08
7.60198e-10
3.87536e-08
-2.47849e-09
2.29784e-09
3.69756e-08
-9.45289e-09
7.58155e-08
9.06916e-08
8.22682e-09
-2.01728e-10
2.98621e-08
7.07783e-09
-6.01207e-09
-4.04263e-09
5.37478e-08
5.45449e-09
-2.117e-09
4.69799e-08
-3.64684e-09
3.09158e-08
7.8083e-10
1.6055e-09
2.03437e-08
1.19551e-09
-1.33765e-09
4.92321e-09
3.53265e-08
3.16805e-09
4.60084e-09
3.79303e-08
-7.36634e-10
4.5638e-08
1.92496e-09
-1.65886e-09
2.87964e-08
-2.2686e-09
-9.26792e-10
-5.55956e-09
6.23384e-08
-4.37398e-10
-1.83331e-08
5.73358e-08
-2.20206e-08
6.34381e-08
3.17055e-10
3.92166e-08
-2.10827e-09
-8.78215e-09
4.15847e-08
-8.73509e-09
5.68794e-08
4.92648e-08
2.58629e-10
4.08817e-10
2.60835e-08
1.27591e-09
2.6913e-09
3.06145e-09
4.43398e-08
1.07704e-09
9.1172e-10
4.52229e-08
-1.46045e-09
3.95586e-08
-4.20072e-10
-1.76691e-09
2.40618e-08
-1.12194e-09
-2.04225e-10
-1.08421e-09
3.9256e-08
-1.71549e-09
-5.42544e-10
4.08962e-08
-6.46075e-09
5.06129e-08
-1.53568e-09
-1.46855e-09
3.0643e-08
-6.10001e-10
-1.54135e-10
4.41626e-09
5.54564e-08
3.82989e-09
-3.48129e-10
5.31572e-08
-3.98502e-09
5.90629e-08
-1.61545e-10
3.86559e-08
-7.65359e-10
-4.62648e-10
4.53532e-08
1.28858e-09
5.59717e-08
4.67545e-08
-1.51149e-09
4.54525e-09
2.67118e-08
2.16364e-10
-1.11571e-09
5.20826e-09
4.09353e-08
-1.31166e-09
6.46141e-09
4.22559e-08
4.43227e-09
4.04278e-08
-1.00346e-09
2.28476e-09
2.76819e-08
-3.56025e-10
-1.24477e-09
2.94811e-09
4.17576e-08
-2.51459e-09
5.74021e-09
4.28864e-08
4.9939e-09
4.89663e-08
-1.25891e-09
1.59471e-09
3.23094e-08
2.82663e-10
-1.57581e-10
5.95041e-09
5.13522e-08
-3.51378e-10
4.19056e-09
5.48999e-08
1.95757e-09
6.06793e-08
-1.13504e-10
3.9865e-08
4.97895e-10
-9.5339e-10
5.21416e-08
-2.62818e-09
6.18363e-08
4.74394e-08
-4.64477e-10
2.52643e-09
2.55963e-08
1.86211e-10
1.00638e-09
4.8573e-10
3.68594e-08
-4.9873e-10
-2.18848e-10
4.15998e-08
-8.31704e-10
4.37345e-08
-4.84838e-10
1.22533e-09
2.96203e-08
-1.52939e-10
3.42532e-10
-2.71449e-11
4.14416e-08
-1.60862e-09
-1.66249e-09
4.62798e-08
3.28948e-11
5.0484e-08
-1.45134e-09
1.24171e-10
3.44998e-08
3.62059e-10
-1.73765e-10
1.60279e-09
4.84432e-08
-1.02372e-09
-4.27495e-10
5.4514e-08
4.96931e-09
5.7856e-08
-7.40816e-10
4.00395e-08
6.8963e-10
2.30245e-10
5.27722e-08
1.22287e-09
6.04152e-08
5.65044e-08
-8.89689e-10
1.00791e-09
2.61743e-08
1.84408e-10
-5.20715e-10
-3.19143e-10
3.58608e-08
-1.25168e-09
-8.40258e-10
4.16522e-08
-1.05185e-09
4.48549e-08
-1.15567e-09
5.95145e-10
3.10801e-08
1.0828e-10
-8.17853e-10
-5.11959e-10
4.12956e-08
-1.56775e-09
-1.25375e-09
4.74425e-08
-3.13957e-10
5.10197e-08
-1.50528e-09
2.43899e-10
3.6071e-08
2.84203e-10
-9.17969e-10
1.85759e-10
4.71574e-08
-1.26357e-09
-3.72959e-10
5.39782e-08
1.77383e-09
5.71282e-08
-1.32248e-09
4.12056e-08
3.99408e-10
-7.42336e-10
5.23772e-08
-3.35528e-10
5.9635e-08
6.04583e-08
-2.23105e-10
1.95729e-10
2.59234e-08
1.49299e-10
-2.45856e-10
-2.97463e-10
3.54801e-08
-7.76683e-10
-5.74577e-10
4.18186e-08
-6.17363e-10
4.52209e-08
-3.30697e-10
2.98419e-10
3.11736e-08
1.34614e-10
-3.24918e-10
-1.35696e-10
4.11276e-08
-8.13309e-10
-4.4702e-10
4.78028e-08
-7.38189e-11
5.13522e-08
-4.53762e-10
2.37735e-10
3.64087e-08
1.76622e-10
-3.64544e-10
1.22499e-10
4.68096e-08
-6.89394e-10
-4.60425e-11
5.39018e-08
7.00287e-10
5.73328e-08
-4.25527e-10
4.16638e-08
2.04592e-10
-2.55237e-10
5.23288e-08
-3.56204e-10
5.96895e-08
6.24486e-08
-2.44597e-10
-3.84778e-11
2.59242e-08
1.22641e-10
-3.22647e-10
-2.89008e-10
3.54123e-08
-5.88201e-10
-4.5019e-10
4.19274e-08
-4.96351e-10
4.53526e-08
-2.9543e-10
4.23277e-11
3.12688e-08
1.19627e-10
-3.58078e-10
-1.6093e-10
4.10619e-08
-5.97823e-10
-2.98149e-10
4.78901e-08
-1.92377e-10
5.14776e-08
-3.3347e-10
6.17928e-11
3.65952e-08
1.27564e-10
-3.63457e-10
-2.16934e-11
4.67e-08
-5.38858e-10
-7.60845e-11
5.38549e-08
1.5804e-10
5.74953e-08
-3.29154e-10
4.19231e-08
1.31395e-10
-3.1363e-10
5.22911e-08
-4.14595e-10
5.97141e-08
6.32391e-08
-1.78808e-10
-8.4153e-11
2.59286e-08
9.92995e-11
-2.58418e-10
-2.03475e-10
3.54115e-08
-4.05131e-10
-2.92164e-10
4.19879e-08
-3.37213e-10
4.54116e-08
-1.96868e-10
-2.27255e-11
3.13079e-08
9.61812e-11
-2.7449e-10
-1.1769e-10
4.10533e-08
-4.13875e-10
-1.87622e-10
4.79245e-08
-1.71802e-10
5.15248e-08
-2.09493e-10
9.31844e-12
3.66776e-08
9.48631e-11
-2.75304e-10
-3.7153e-11
4.66848e-08
-3.91179e-10
-6.65597e-11
5.38494e-08
-2.93576e-12
5.75828e-08
-2.07496e-10
4.20466e-08
9.29443e-11
-2.5537e-10
5.23015e-08
-3.44801e-10
5.97367e-08
6.35441e-08
-1.36017e-10
-7.67578e-11
2.59411e-08
7.8568e-11
-1.97034e-10
-1.35436e-10
3.54252e-08
-2.79275e-10
-1.85324e-10
4.20211e-08
-2.19198e-10
4.54365e-08
-1.41128e-10
-3.66009e-11
3.13334e-08
7.53775e-11
-2.03502e-10
-8.21569e-11
4.10621e-08
-2.85815e-10
-1.20406e-10
4.79417e-08
-1.29516e-10
5.15372e-08
-1.43925e-10
-9.16255e-12
3.67216e-08
7.24625e-11
-2.02283e-10
-3.30127e-11
4.66937e-08
-2.76893e-10
-5.04624e-11
5.38538e-08
-3.51233e-11
5.76116e-08
-1.41432e-10
4.21092e-08
6.95662e-11
-1.93452e-10
5.23202e-08
-2.59388e-10
5.97521e-08
6.3652e-08
-1.01891e-10
-5.87512e-11
2.59542e-08
6.05084e-11
-1.45559e-10
-8.98271e-11
3.54404e-08
-1.93061e-10
-1.18631e-10
4.20406e-08
-1.41673e-10
4.54468e-08
-1.02601e-10
-3.26756e-11
3.1352e-08
5.79055e-11
-1.4817e-10
-5.67775e-11
4.10747e-08
-1.9731e-10
-7.94282e-11
4.79517e-08
-9.26111e-11
5.15365e-08
-1.02288e-10
-1.21733e-11
3.67483e-08
5.5249e-11
-1.467e-10
-2.54764e-11
4.67068e-08
-1.93586e-10
-3.69531e-11
5.38584e-08
-3.79214e-11
5.76144e-08
-9.97719e-11
4.21442e-08
5.26424e-11
-1.41999e-10
5.2337e-08
-1.86153e-10
5.97594e-08
6.3679e-08
-7.5094e-11
-4.20531e-11
2.59653e-08
4.56016e-11
-1.05176e-10
-5.94353e-11
3.54529e-08
-1.3338e-10
-7.63903e-11
4.20526e-08
-9.12408e-11
4.54507e-08
-7.44444e-11
-2.4796e-11
3.13659e-08
4.36472e-11
-1.0609e-10
-3.85558e-11
4.1086e-08
-1.35797e-10
-5.25612e-11
4.7958e-08
-6.36629e-11
5.15319e-08
-7.33244e-11
-1.02938e-11
3.67659e-08
4.15856e-11
-1.04738e-10
-1.81773e-11
4.67182e-08
-1.3389e-10
-2.5913e-11
5.38613e-08
-3.04107e-11
5.76079e-08
-7.11185e-11
4.21659e-08
3.95231e-11
-1.01774e-10
5.23497e-08
-1.30066e-10
5.97622e-08
6.3678e-08
-5.45884e-11
-2.93165e-11
2.59738e-08
3.38274e-11
-7.49454e-11
-3.93876e-11
3.54622e-08
-9.20414e-11
-4.9468e-11
4.206e-08
-5.87237e-11
4.54518e-08
-5.36344e-11
-1.76675e-11
3.1376e-08
3.24156e-11
-7.50741e-11
-2.58947e-11
4.10946e-08
-9.32137e-11
-3.46752e-11
4.79619e-08
-4.26301e-11
5.15268e-08
-5.24629e-11
-7.60763e-12
3.6778e-08
3.09019e-11
-7.39075e-11
-1.24588e-11
4.67268e-08
-9.19473e-11
-1.76059e-11
5.38629e-08
-2.18128e-11
5.75996e-08
-5.06763e-11
4.21801e-08
2.93418e-11
-7.18549e-11
5.23588e-08
-8.96295e-11
5.97627e-08
6.36694e-08
-3.9327e-11
-2.03051e-11
2.59799e-08
2.48194e-11
-5.30061e-11
-2.62766e-11
3.54686e-08
-6.35154e-11
-3.2288e-11
4.20645e-08
-3.79242e-11
4.54516e-08
-3.84159e-11
-1.23323e-11
3.13831e-08
2.38091e-11
-5.27794e-11
-1.73817e-11
4.11007e-08
-6.39326e-11
-2.28923e-11
4.79642e-08
-2.81861e-11
5.15224e-08
-3.74052e-11
-5.37023e-12
3.67864e-08
2.27165e-11
-5.17962e-11
-8.42548e-12
4.67329e-08
-6.29342e-11
-1.18005e-11
5.38636e-08
-1.4924e-11
5.75923e-08
-3.60162e-11
4.21897e-08
2.15559e-11
-5.0297e-11
5.2365e-08
-6.1351e-11
5.97623e-08
6.36605e-08
-2.81446e-11
-1.4105e-11
2.5984e-08
1.80551e-11
-3.73077e-11
-1.76911e-11
3.54728e-08
-4.3808e-11
-2.12521e-11
4.20671e-08
-2.46122e-11
4.54509e-08
-2.73686e-11
-8.60181e-12
3.1388e-08
1.73233e-11
-3.69324e-11
-1.17345e-11
4.11048e-08
-4.38073e-11
-1.51646e-11
4.79654e-08
-1.8541e-11
5.15189e-08
-2.65487e-11
-3.76661e-12
3.6792e-08
1.65344e-11
-3.61114e-11
-5.70848e-12
4.67369e-08
-4.29726e-11
-7.8831e-12
5.38637e-08
-9.99518e-12
5.75865e-08
-2.54846e-11
4.21961e-08
1.56755e-11
-3.49826e-11
5.23691e-08
-4.18157e-11
5.97616e-08
6.36531e-08
-1.99508e-11
-9.81289e-12
2.59867e-08
1.29905e-11
-2.60506e-11
-1.19754e-11
3.54753e-08
-3.00428e-11
-1.40541e-11
4.20685e-08
-1.60187e-11
4.54499e-08
-1.93261e-11
-6.01628e-12
3.13912e-08
1.2448e-11
-2.56429e-11
-7.96668e-12
4.11073e-08
-2.98503e-11
-1.00697e-11
4.79659e-08
-1.21642e-11
5.15162e-08
-1.86834e-11
-2.66138e-12
3.67957e-08
1.18773e-11
-2.49696e-11
-3.90214e-12
4.67394e-08
-2.91618e-11
-5.27393e-12
5.38634e-08
-6.62929e-12
5.75822e-08
-1.78766e-11
4.22003e-08
1.1245e-11
-2.4111e-11
5.23715e-08
-2.82975e-11
5.97607e-08
6.36476e-08
-1.38448e-11
-6.7333e-12
2.59884e-08
9.13395e-12
-1.78344e-11
-8.03053e-12
3.54768e-08
-2.02246e-11
-9.22408e-12
4.20691e-08
-1.03601e-11
4.5449e-08
-1.33706e-11
-4.15863e-12
3.13932e-08
8.73277e-12
-1.74716e-11
-5.3716e-12
4.11088e-08
-1.99908e-11
-6.6409e-12
4.7966e-08
-7.91803e-12
5.1514e-08
-1.28884e-11
-1.87064e-12
3.6798e-08
8.32566e-12
-1.69459e-11
-2.67196e-12
4.67408e-08
-1.94568e-11
-3.51884e-12
5.38629e-08
-4.35777e-12
5.7579e-08
-1.22937e-11
4.22028e-08
7.8691e-12
-1.63054e-11
5.23729e-08
-1.88236e-11
5.97598e-08
6.36436e-08
-9.18044e-12
-4.42356e-12
2.59893e-08
6.1177e-12
-1.16895e-11
-5.18505e-12
3.54776e-08
-1.30546e-11
-5.85679e-12
4.20692e-08
-6.50543e-12
4.54481e-08
-8.84957e-12
-2.75396e-12
3.13943e-08
5.83718e-12
-1.14172e-11
-3.49603e-12
4.11095e-08
-1.28616e-11
-4.2468e-12
4.79657e-08
-5.0081e-12
5.15124e-08
-8.51232e-12
-1.26514e-12
3.67992e-08
5.55931e-12
-1.10418e-11
-1.78367e-12
4.67415e-08
-1.24856e-11
-2.29126e-12
5.38624e-08
-2.78959e-12
5.75767e-08
-8.10054e-12
4.22043e-08
5.24579e-12
-1.05924e-11
5.23735e-08
-1.20498e-11
5.97589e-08
6.36407e-08
-5.60223e-12
-2.66281e-12
2.59898e-08
3.74678e-12
-7.07354e-12
-3.08871e-12
3.54779e-08
-7.791e-12
-3.45054e-12
4.20691e-08
-3.80602e-12
4.54474e-08
-5.40341e-12
-1.6741e-12
3.13949e-08
3.57322e-12
-6.90422e-12
-2.10464e-12
4.11098e-08
-7.66775e-12
-2.52655e-12
4.79655e-08
-2.95726e-12
5.15113e-08
-5.19498e-12
-7.89388e-13
3.67999e-08
3.4043e-12
-6.67032e-12
-1.11342e-12
4.67417e-08
-7.43943e-12
-1.39856e-12
5.38619e-08
-1.6751e-12
5.75752e-08
-4.94521e-12
4.2205e-08
3.21714e-12
-6.39313e-12
5.23738e-08
-7.17746e-12
5.97583e-08
6.36389e-08
-3.08987e-12
-1.46932e-12
2.07702e-12
-3.89385e-12
-1.68925e-12
-4.27522e-12
-1.88556e-12
-2.07697e-12
-2.99646e-12
-9.15848e-13
1.99311e-12
-3.81541e-12
-1.14954e-12
-4.21915e-12
-1.38614e-12
-1.6264e-12
-2.89247e-12
-4.37147e-13
1.91144e-12
-3.70578e-12
-6.14198e-13
-4.11848e-12
-7.7469e-13
-9.35797e-13
-2.7742e-12
1.82502e-12
-3.58293e-12
-4.013e-12
5.67665e-09
1.50947e-09
5.57711e-08
4.39171e-10
-1.96835e-10
7.18313e-08
-1.55058e-08
2.42112e-09
7.73166e-08
1.33253e-09
2.73266e-08
-1.40105e-09
7.08619e-09
5.45202e-08
4.07975e-09
7.26489e-09
4.17045e-08
-1.46404e-08
-4.0903e-09
7.45036e-08
1.72178e-09
2.85781e-08
-6.9069e-09
3.10969e-10
6.66699e-08
-1.46297e-08
-3.75586e-09
6.71311e-08
-1.10683e-08
-2.54029e-09
3.47154e-08
-3.40712e-09
3.53549e-08
-1.40291e-08
5.96334e-08
-3.04052e-09
2.48616e-08
-1.16207e-08
4.30788e-08
2.22754e-08
-1.26299e-08
-3.48272e-09
7.76727e-08
-2.57292e-09
5.09165e-10
5.8815e-08
-2.48462e-09
-1.95396e-09
7.47344e-08
-6.47206e-10
2.75319e-08
-1.01656e-09
-4.96995e-09
5.7713e-08
-1.0168e-08
-4.85172e-09
5.62168e-08
-5.07891e-09
-4.90965e-09
7.23702e-08
-4.88847e-10
2.45515e-08
-8.74623e-09
-4.79977e-09
7.52381e-08
-6.87494e-09
-1.30925e-09
6.17172e-08
-2.8837e-09
2.56802e-10
2.55576e-08
2.31518e-09
3.26929e-08
-4.41287e-10
5.69103e-08
-1.68146e-09
2.50309e-08
5.61084e-09
3.61824e-08
3.2143e-08
7.39867e-09
-5.23686e-09
8.26253e-08
-1.1652e-08
-9.88652e-09
9.46948e-08
5.46473e-09
-5.50704e-09
5.85057e-08
-6.79053e-10
3.08835e-08
-1.08889e-08
-1.41712e-08
7.37884e-08
-9.55093e-09
-8.2396e-09
5.32319e-08
7.74482e-09
2.23418e-09
4.73332e-08
9.59777e-10
2.57148e-08
1.10726e-08
-9.92951e-10
5.05237e-08
8.66189e-09
8.51267e-10
5.5037e-08
4.16938e-09
-8.50795e-10
3.31351e-08
-1.0122e-09
3.54109e-08
1.13115e-08
4.58496e-08
1.73598e-09
3.44373e-08
7.4427e-09
2.85385e-08
2.77934e-08
9.39948e-09
-3.68296e-09
6.79628e-08
3.11877e-09
-4.56888e-09
1.06482e-07
7.25042e-09
4.95547e-10
5.32427e-08
3.9628e-10
3.74854e-08
5.81121e-09
2.23575e-09
6.4071e-08
7.67764e-09
1.85494e-09
4.49416e-08
6.59309e-09
1.31222e-10
4.8782e-08
5.10868e-10
2.73418e-08
6.5875e-09
5.99892e-09
4.19693e-08
7.82044e-09
3.31204e-09
5.23469e-08
7.68777e-09
1.7831e-09
3.16158e-08
-1.1e-09
3.35121e-08
-4.63129e-09
5.625e-08
6.93142e-09
2.60631e-08
9.18848e-11
3.5636e-08
1.26082e-08
-5.2471e-09
2.30712e-09
6.03829e-08
1.41261e-08
7.66884e-09
6.89092e-08
7.72752e-09
1.25601e-09
5.58315e-08
1.89688e-09
4.07162e-08
7.16518e-09
5.07748e-09
5.41499e-08
6.30139e-09
4.01305e-09
4.94612e-08
7.0367e-09
1.22504e-09
4.80777e-08