/*--------------------------------*- C++ -*----------------------------------*\
| =========                 |                                                 |
| \\      /  F ield         | OpenFOAM: The Open Source CFD Toolbox           |
|  \\    /   O peration     | Version:  2506                                  |
|   \\  /    A nd           | Website:  www.openfoam.com                      |
|    \\/     M anipulation  |                                                 |
\*---------------------------------------------------------------------------*/
FoamFile
{
    version     2.0;
    format      ascii;
    arch        "LSB;label=32;scalar=64";
    class       volVectorField;
    location    "0.07";
    object      Us;
}
// * * * * * * * * * * * * * * * * * * * * * * * * * * * * * * * * * * * * * //

dimensions      [0 1 -1 0 0 0 0];

internalField   nonuniform List<vector> 
1152
(
(-0.000524818 -0.000235704 -0.000131549)
(0.00022153 -0.00129014 -4.08558e-05)
(0.000430147 0.000625083 -0.000135809)
(0.000118037 0.000859168 -0.00028595)
(0.000679644 0.000101538 -0.000996568)
(0.000605522 -0.000462115 -0.00101068)
(-0.000477049 0.000381089 -2.88339e-06)
(-0.00051287 0.00171581 0.000102226)
(-0.000231055 0.00106914 -0.00045005)
(6.65679e-06 0.00110597 -0.000713291)
(-0.000584658 0.000424445 3.59429e-05)
(-0.00121599 0.00164313 -0.000778809)
(-0.00102296 0.000206076 -3.31278e-05)
(-2.10807e-05 0.000835082 -0.000591469)
(0.000681301 0.00145947 -0.00092622)
(0.000944014 0.000801073 -0.000823248)
(0.000735394 -1.43303e-05 0.00603899)
(0.00114783 0.000640419 0.00531512)
(-0.000207858 0.000955213 0.0065506)
(-0.000435709 -0.000334166 0.00647819)
(-0.00063158 0.00228327 0.00650118)
(0.000466979 7.16313e-05 0.00607519)
(0.000120601 0.000895338 0.00747551)
(0.000913638 0.000556524 0.00656374)
(-0.000119741 0.00148046 0.00498394)
(-0.000132868 0.00108156 0.00677025)
(0.000428341 0.00105887 0.00655247)
(-0.000664571 0.00155248 0.00738116)
(-3.73173e-05 0.000400696 0.00549723)
(0.000760556 0.000759889 0.00626539)
(0.000782872 0.00167551 0.00646492)
(0.00148871 0.00229786 0.004351)
(0.00101583 -0.000484672 0.00530283)
(0.000917023 -0.000690834 0.00653795)
(0.000156148 0.000159213 0.00704873)
(2.88693e-05 0.000336421 0.00692398)
(0.000370895 -0.000390483 0.00537999)
(0.000425405 -0.000123753 0.00605073)
(0.000892602 -0.000326707 0.00662883)
(0.000803014 0.000513877 0.00622151)
(0.000619011 -0.000630255 0.00504056)
(0.000452527 -0.000412363 0.00606593)
(0.000626901 -0.000570057 0.0058499)
(0.000732246 0.000681473 0.00562786)
(1.00033e-06 -0.000622037 0.00548957)
(-2.66796e-05 -0.000147996 0.0055394)
(0.000826277 0.000550626 0.00566902)
(0.00124972 0.000356216 0.00523701)
(0.000673686 -0.000285928 0.00553618)
(0.000516754 -0.000242926 0.00596079)
(0.000116903 -0.000135317 0.00641972)
(2.19939e-05 0.000224519 0.0066144)
(0.000601166 -0.000195285 0.00554395)
(0.000314778 -0.00013762 0.00600335)
(0.000101786 2.35049e-05 0.0064924)
(-3.7429e-05 0.000196774 0.00708413)
(0.000633996 -0.000542657 0.00550975)
(0.00034863 -0.000514471 0.00586857)
(0.000322964 -0.00037648 0.00590403)
(0.000310713 -0.000138936 0.00601558)
(0.00100421 -0.0014018 0.00594007)
(0.000339016 -2.2043e-05 0.00635351)
(0.000542188 0.0001759 0.0057578)
(0.000356725 -0.000432571 0.00564657)
(0.000430683 -4.21416e-05 0.00583689)
(0.000193443 -0.000186575 0.00614513)
(6.97237e-05 -0.000231419 0.0061721)
(-4.38426e-05 -0.000324192 0.00632057)
(0.000348744 4.78275e-05 0.00593539)
(0.000269817 1.31861e-05 0.00609679)
(0.000126431 -0.00022072 0.00616317)
(-0.000283608 5.83677e-05 0.00646005)
(0.000342479 -0.000199586 0.00571575)
(0.000145193 -0.000236944 0.00603705)
(-3.07256e-05 -0.000246135 0.00595516)
(-0.000266415 -0.000427027 0.00599104)
(0.000236302 -0.00016955 0.00552986)
(0.000309984 -0.000446104 0.00561693)
(0.000387807 -0.000504893 0.00564151)
(4.7869e-05 -0.000819509 0.0060437)
(4.64297e-05 -0.000193077 0.00582905)
(-0.000130574 -0.000193746 0.00600756)
(-0.000158439 -0.000219202 0.00624825)
(-0.000188559 -0.00025329 0.0062697)
(-3.09809e-05 -0.000235936 0.00585593)
(-8.10233e-05 -0.000210771 0.00610085)
(-0.000124559 -0.000395176 0.00617784)
(-0.000198478 -0.000279502 0.00625589)
(0.000203795 -0.000150351 0.00560754)
(4.5895e-05 -0.000347809 0.00595475)
(-3.53949e-05 -0.000462053 0.00624274)
(-0.000514407 -0.000382963 0.00618513)
(0.000229543 -0.000431905 0.00550423)
(0.000364857 -0.000594705 0.005651)
(-0.000145946 -0.000591806 0.0055274)
(-0.000687099 -0.000447344 0.00603533)
(-0.000303272 -5.33358e-05 0.00558034)
(-0.000416436 -0.000103147 0.00584652)
(-0.000387059 -0.000317582 0.0060728)
(-0.000202179 -0.000278181 0.00628699)
(-0.000420738 -0.000342889 0.00552712)
(-0.000469419 -0.000273868 0.00605568)
(-0.000594237 -0.00015809 0.00603865)
(-0.000429038 -0.000206374 0.0062077)
(-9.13077e-05 -0.000170957 0.00514142)
(-0.000504347 -0.000371518 0.00577693)
(-0.000473654 -0.000244669 0.00630386)
(-0.000206169 8.93293e-05 0.00623676)
(-0.000156595 -0.000692949 0.00552401)
(0.0012586 -0.000388725 0.0053037)
(-0.000468309 -6.17182e-05 0.00580958)
(-0.000546283 -0.000100006 0.00583721)
(0 0 0)
(0 0 0)
(0 0 0)
(0 0 0)
(0 0 0)
(0 0 0)
(0 0 0)
(0 0 0)
(0 0 0)
(0 0 0)
(0 0 0)
(0 0 0)
(0 0 0)
(0 0 0)
(0 0 0)
(0 0 0)
(0 0 0)
(0 0 0)
(0 0 0)
(0 0 0)
(0 0 0)
(0 0 0)
(0 0 0)
(0 0 0)
(0 0 0)
(0 0 0)
(0 0 0)
(0 0 0)
(0 0 0)
(0 0 0)
(0 0 0)
(0 0 0)
(0 0 0)
(0 0 0)
(0 0 0)
(0 0 0)
(0 0 0)
(0 0 0)
(0 0 0)
(0 0 0)
(0 0 0)
(0 0 0)
(0 0 0)
(0 0 0)
(0 0 0)
(0 0 0)
(0 0 0)
(0 0 0)
(0 0 0)
(0 0 0)
(0 0 0)
(0 0 0)
(0 0 0)
(0 0 0)
(0 0 0)
(0 0 0)
(0 0 0)
(0 0 0)
(0 0 0)
(0 0 0)
(0 0 0)
(0 0 0)
(0 0 0)
(0 0 0)
(0 0 0)
(0 0 0)
(0 0 0)
(0 0 0)
(0 0 0)
(0 0 0)
(0 0 0)
(0 0 0)
(0 0 0)
(0 0 0)
(0 0 0)
(0 0 0)
(0 0 0)
(0 0 0)
(0 0 0)
(0 0 0)
(0 0 0)
(0 0 0)
(0 0 0)
(0 0 0)
(0 0 0)
(0 0 0)
(0 0 0)
(0 0 0)
(0 0 0)
(0 0 0)
(0 0 0)
(0 0 0)
(0 0 0)
(0 0 0)
(0 0 0)
(0 0 0)
(0 0 0)
(0 0 0)
(0 0 0)
(0 0 0)
(0 0 0)
(0 0 0)
(0 0 0)
(0 0 0)
(0 0 0)
(0 0 0)
(0 0 0)
(0 0 0)
(0 0 0)
(0 0 0)
(0 0 0)
(0 0 0)
(0 0 0)
(0 0 0)
(0 0 0)
(0 0 0)
(0 0 0)
(0 0 0)
(0 0 0)
(0 0 0)
(0 0 0)
(0 0 0)
(0 0 0)
(0 0 0)
(0 0 0)
(0 0 0)
(0 0 0)
(0 0 0)
(0 0 0)
(0 0 0)
(0 0 0)
(0 0 0)
(0 0 0)
(0 0 0)
(0 0 0)
(0 0 0)
(0 0 0)
(0 0 0)
(0 0 0)
(0 0 0)
(0 0 0)
(0 0 0)
(0 0 0)
(0 0 0)
(0 0 0)
(0 0 0)
(0 0 0)
(0 0 0)
(0 0 0)
(0 0 0)
(0 0 0)
(0 0 0)
(0 0 0)
(0 0 0)
(0 0 0)
(0 0 0)
(0 0 0)
(0 0 0)
(0 0 0)
(0 0 0)
(0 0 0)
(0 0 0)
(0 0 0)
(0 0 0)
(0 0 0)
(0 0 0)
(0 0 0)
(0 0 0)
(0 0 0)
(0 0 0)
(0 0 0)
(0 0 0)
(0 0 0)
(0 0 0)
(0 0 0)
(0 0 0)
(0 0 0)
(0 0 0)
(0 0 0)
(0 0 0)
(0 0 0)
(0 0 0)
(0 0 0)
(0 0 0)
(0 0 0)
(0 0 0)
(0 0 0)
(0 0 0)
(0 0 0)
(0 0 0)
(0 0 0)
(0 0 0)
(0 0 0)
(0 0 0)
(0 0 0)
(0 0 0)
(0 0 0)
(0 0 0)
(0 0 0)
(0 0 0)
(0 0 0)
(0 0 0)
(0 0 0)
(0 0 0)
(0 0 0)
(0 0 0)
(0 0 0)
(0 0 0)
(0 0 0)
(0 0 0)
(0 0 0)
(0 0 0)
(0 0 0)
(0 0 0)
(0 0 0)
(0 0 0)
(0 0 0)
(0 0 0)
(0 0 0)
(0 0 0)
(0 0 0)
(0 0 0)
(0 0 0)
(0 0 0)
(0 0 0)
(0 0 0)
(0 0 0)
(0 0 0)
(0 0 0)
(0 0 0)
(0 0 0)
(0 0 0)
(0 0 0)
(0 0 0)
(0 0 0)
(0 0 0)
(0 0 0)
(0 0 0)
(0 0 0)
(0 0 0)
(0 0 0)
(0 0 0)
(0 0 0)
(0 0 0)
(0 0 0)
(0 0 0)
(0 0 0)
(0 0 0)
(0 0 0)
(0 0 0)
(0 0 0)
(0 0 0)
(0 0 0)
(0 0 0)
(0 0 0)
(0 0 0)
(0 0 0)
(0 0 0)
(0 0 0)
(0 0 0)
(0 0 0)
(0 0 0)
(0 0 0)
(0 0 0)
(0 0 0)
(0 0 0)
(0 0 0)
(0 0 0)
(0 0 0)
(0 0 0)
(0 0 0)
(0 0 0)
(-0.000507813 -0.00037852 0.000281538)
(-0.000342662 0.000270544 -0.000234324)
(0.00017546 0.00028984 -6.04563e-05)
(0.000291741 0.00035585 0.000206555)
(-0.000701118 7.45016e-05 -8.91283e-05)
(-0.000432651 -0.000489498 -0.00046131)
(-9.59562e-05 -0.000254858 0.000205989)
(-0.000376104 -0.000151604 -2.45166e-05)
(-0.000231787 0.000209123 7.73464e-05)
(-0.000152848 0.000193391 -0.000195611)
(0.000183209 -0.000109816 8.80837e-05)
(-0.000456318 -0.000195799 0.000313362)
(5.46338e-05 -6.32791e-05 0.000236362)
(-0.000106225 -0.00010248 -0.000136501)
(0.00027335 -2.90381e-06 -0.000255018)
(0.000246021 0.000886443 -0.00069592)
(0.000271272 -0.000745554 0.00594203)
(0.00201347 0.00119747 0.00878434)
(0.000850999 0.000944768 0.00568164)
(0.000880616 0.00228179 0.00574946)
(3.82251e-05 -0.000949263 0.00514766)
(0.000738031 -0.000519753 0.00524261)
(0.00134744 -1.38605e-05 0.00554866)
(0.00082271 -0.000207748 0.0063971)
(0.00014209 -0.000152597 0.00410691)
(0.00127963 -0.000123711 0.00516405)
(0.000667855 -4.50898e-05 0.00627332)
(0.000238732 -0.000539924 0.00666584)
(-0.000259856 -0.000323773 0.00512719)
(0.00191235 4.01027e-05 0.00498957)
(0.000582653 0.000234091 0.00527504)
(0.000603471 0.000235277 0.00483437)
(0.000673052 -0.000915899 0.00600402)
(0.000551102 -0.000275576 0.00599785)
(0.000538475 0.000462644 0.00607214)
(0.000896157 -0.000429489 0.00607217)
(0.00134538 -0.000638417 0.00489101)
(0.000882675 7.97914e-05 0.00509892)
(0.000775496 0.000685302 0.00671947)
(0.000632463 -0.000695715 0.00732172)
(0.00141444 -0.00030919 0.00505041)
(0.000470729 -0.000676011 0.00467562)
(0.000667556 -0.000557418 0.00547553)
(0.00116705 -4.36896e-05 0.0062502)
(0.000777967 0.000493092 0.00481299)
(0.000394573 8.74252e-05 0.0039913)
(0.000497461 2.81923e-05 0.00857994)
(0.00140735 -8.33273e-05 0.00615152)
(0.000846447 0.00188289 0.00627161)
(0.000832777 8.99784e-06 0.00576129)
(0.000278789 -0.000410751 0.00582664)
(0.000271341 -0.000476878 0.00569084)
(0.00107288 0.000100192 0.00476755)
(0.00156581 0.000887591 0.00474591)
(0.00105994 -0.00027068 0.00527468)
(0.00116777 -0.00016697 0.00674327)
(0.00033857 9.27515e-05 0.00588691)
(0.000582909 1.24512e-05 0.00501398)
(0.000774515 2.7523e-05 0.00534561)
(0.000743143 -0.000170027 0.00574047)
(-0.000154187 -0.000453613 0.00401445)
(-0.000140964 -0.000295331 0.00381395)
(0.000308512 4.36673e-05 0.00575925)
(0.00107194 0.000148616 0.00502728)
(0.000406524 -0.000565196 0.00481991)
(0.000409182 -0.000431568 0.00520151)
(-2.98e-05 -0.000461711 0.00558093)
(7.63351e-05 -0.000688267 0.00587231)
(0.000633829 -0.000526232 0.00412796)
(0.000650801 -0.000244182 0.00494661)
(0.000777203 -0.000494017 0.00548184)
(0.000462974 -0.00115311 0.00625191)
(0.00036028 -0.000307743 0.00422376)
(0.000417608 -0.000338732 0.00431)
(0.000198218 -0.000950982 0.00458655)
(0.000289947 -0.000797807 0.00424783)
(-0.000419781 6.13282e-05 0.00399233)
(0.000229844 -4.74413e-05 0.00432581)
(-0.000642434 -0.000423813 0.00699351)
(-0.000975788 -0.000568435 0.00502422)
(0.000444566 -0.000993888 0.00521402)
(0.000522823 -0.000375984 0.00546721)
(-0.000269602 -0.000557262 0.00561268)
(-0.00036792 -0.000589522 0.00595392)
(0.000414235 -0.000742463 0.00400486)
(0.00017654 -0.000389207 0.00447564)
(0.000587769 -0.000252329 0.00558138)
(0.000133125 -0.000475642 0.00564678)
(0.000127128 -0.000216751 0.00361105)
(-0.000141407 -0.000778885 0.00272905)
(0.000436367 -0.000439026 0.00374596)
(1.79894e-05 -0.000343639 0.00468608)
(0.000130352 -7.4723e-05 0.00256829)
(-0.000784037 -0.000907965 0.00280247)
(-0.00122857 -0.000177602 0.00319957)
(0.000152183 -0.00032319 0.00347403)
(0.00025306 -0.000552637 0.0049565)
(0.00148415 -0.000247192 0.00491756)
(0.0001262 -0.00060362 0.00566141)
(-0.000249636 -0.000121576 0.00563875)
(0.000265022 -0.000180761 0.00431925)
(-0.000501519 0.000519018 0.00425544)
(-0.000377 0.000114326 0.00508341)
(-0.000509871 -0.000267574 0.00558444)
(0.000339736 0.000180662 0.00339198)
(-0.000891593 4.93127e-05 0.0029168)
(-0.000306312 0.000515179 0.00310927)
(0.00433189 -0.00218834 0.00100418)
(-4.99376e-06 2.77061e-06 0.00250968)
(-0.000621491 -4.7043e-05 0.000938928)
(0.000591233 -0.000176936 0.001222)
(0.0002106 -4.36646e-05 0.00262603)
(0 0 0)
(0 0 0)
(0 0 0)
(0 0 0)
(0 0 0)
(0 0 0)
(0 0 0)
(0 0 0)
(0 0 0)
(0 0 0)
(0 0 0)
(0 0 0)
(0 0 0)
(0 0 0)
(0 0 0)
(0 0 0)
(0 0 0)
(0 0 0)
(0 0 0)
(0 0 0)
(0 0 0)
(0 0 0)
(0 0 0)
(0 0 0)
(0 0 0)
(0 0 0)
(0 0 0)
(0 0 0)
(0 0 0)
(0 0 0)
(0 0 0)
(0 0 0)
(0 0 0)
(0 0 0)
(0 0 0)
(0 0 0)
(0 0 0)
(0 0 0)
(0 0 0)
(0 0 0)
(0 0 0)
(0 0 0)
(0 0 0)
(0 0 0)
(0 0 0)
(0 0 0)
(0 0 0)
(0 0 0)
(0 0 0)
(0 0 0)
(0 0 0)
(0 0 0)
(0 0 0)
(0 0 0)
(0 0 0)
(0 0 0)
(0 0 0)
(0 0 0)
(0 0 0)
(0 0 0)
(0 0 0)
(0 0 0)
(0 0 0)
(0 0 0)
(0 0 0)
(0 0 0)
(0 0 0)
(0 0 0)
(0 0 0)
(0 0 0)
(0 0 0)
(0 0 0)
(0 0 0)
(0 0 0)
(0 0 0)
(0 0 0)
(0 0 0)
(0 0 0)
(0 0 0)
(0 0 0)
(0 0 0)
(0 0 0)
(0 0 0)
(0 0 0)
(0 0 0)
(0 0 0)
(0 0 0)
(0 0 0)
(0 0 0)
(0 0 0)
(0 0 0)
(0 0 0)
(0 0 0)
(0 0 0)
(0 0 0)
(0 0 0)
(0 0 0)
(0 0 0)
(0 0 0)
(0 0 0)
(0 0 0)
(0 0 0)
(0 0 0)
(0 0 0)
(0 0 0)
(0 0 0)
(0 0 0)
(0 0 0)
(0 0 0)
(0 0 0)
(0 0 0)
(0 0 0)
(0 0 0)
(0 0 0)
(0 0 0)
(0 0 0)
(0 0 0)
(0 0 0)
(0 0 0)
(0 0 0)
(0 0 0)
(0 0 0)
(0 0 0)
(0 0 0)
(0 0 0)
(0 0 0)
(0 0 0)
(0 0 0)
(0 0 0)
(0 0 0)
(0 0 0)
(0 0 0)
(0 0 0)
(0 0 0)
(0 0 0)
(0 0 0)
(0 0 0)
(0 0 0)
(0 0 0)
(0 0 0)
(0 0 0)
(0 0 0)
(0 0 0)
(0 0 0)
(0 0 0)
(0 0 0)
(0 0 0)
(0 0 0)
(0 0 0)
(0 0 0)
(0 0 0)
(0 0 0)
(0 0 0)
(0 0 0)
(0 0 0)
(0 0 0)
(0 0 0)
(0 0 0)
(0 0 0)
(0 0 0)
(0 0 0)
(0 0 0)
(0 0 0)
(0 0 0)
(0 0 0)
(0 0 0)
(0 0 0)
(0 0 0)
(0 0 0)
(0 0 0)
(0 0 0)
(0 0 0)
(0 0 0)
(0 0 0)
(0 0 0)
(0 0 0)
(0 0 0)
(0 0 0)
(0 0 0)
(0 0 0)
(0 0 0)
(0 0 0)
(0 0 0)
(0 0 0)
(0 0 0)
(0 0 0)
(0 0 0)
(0 0 0)
(0 0 0)
(0 0 0)
(0 0 0)
(0 0 0)
(0 0 0)
(0 0 0)
(0 0 0)
(0 0 0)
(0 0 0)
(0 0 0)
(0 0 0)
(0 0 0)
(0 0 0)
(0 0 0)
(0 0 0)
(0 0 0)
(0 0 0)
(0 0 0)
(0 0 0)
(0 0 0)
(0 0 0)
(0 0 0)
(0 0 0)
(0 0 0)
(0 0 0)
(0 0 0)
(0 0 0)
(0 0 0)
(0 0 0)
(0 0 0)
(0 0 0)
(0 0 0)
(0 0 0)
(0 0 0)
(0 0 0)
(0 0 0)
(0 0 0)
(0 0 0)
(0 0 0)
(0 0 0)
(0 0 0)
(0 0 0)
(0 0 0)
(0 0 0)
(0 0 0)
(0 0 0)
(0 0 0)
(0 0 0)
(0 0 0)
(0 0 0)
(0 0 0)
(0 0 0)
(0 0 0)
(0 0 0)
(0 0 0)
(0 0 0)
(0 0 0)
(0 0 0)
(0 0 0)
(0 0 0)
(0 0 0)
(0 0 0)
(0 0 0)
(0 0 0)
(0 0 0)
(0 0 0)
(0 0 0)
(0 0 0)
(0 0 0)
(0 0 0)
(0 0 0)
(0 0 0)
(0 0 0)
(0 0 0)
(0 0 0)
(0 0 0)
(0 0 0)
(0 0 0)
(0 0 0)
(0 0 0)
(0 0 0)
(0 0 0)
(0 0 0)
(0 0 0)
(6.99109e-05 -0.000287566 0.000267549)
(-0.000578824 0.000954408 -0.000182008)
(-0.000598805 0.000454013 3.04502e-05)
(-0.000961055 0.000131622 -0.000274766)
(3.08684e-05 0.000285674 -0.000299664)
(-0.00067362 0.000607466 0.000149522)
(-0.00111498 0.000400971 0.000340555)
(-0.000626576 0.000723258 -0.00041748)
(0.00026619 0.00030415 3.52162e-05)
(-0.000481869 0.000315654 0.000467952)
(-0.000510317 -0.000917338 -0.000546843)
(-0.00125978 -0.000493978 -0.00104645)
(0.000416129 0.000423436 -0.000353562)
(0.000182536 0.000102506 -1.85656e-05)
(-0.000579884 -0.000265171 0.000275318)
(-0.000873736 -0.00038625 0.000635128)
(-0.000359482 -0.000854444 0.00527245)
(-0.00162864 -0.000360647 0.00554525)
(-0.000980452 -0.000223616 0.00632895)
(-0.000799561 -0.000199126 0.00499511)
(-5.47275e-05 -0.00119708 0.00355344)
(-0.00151094 -0.000944492 0.00496912)
(-0.00154082 -0.00125349 0.00541366)
(-0.000774763 0.000184506 0.00458785)
(-0.00152597 -0.00284948 0.0064899)
(-0.0020375 -0.00122477 0.00683572)
(-0.00218897 -0.000214174 0.00209224)
(-0.00155527 0.000174596 0.00408304)
(-0.000134968 -0.000414157 0.0068718)
(-0.000242113 0.000250374 0.00421424)
(0.00036489 0.000380723 0.00672541)
(-0.000459039 0.000505827 0.00541601)
(-0.000574819 0.000484113 0.00678875)
(0.000244388 -0.000254689 0.00531762)
(0.000547737 -0.0012952 0.00538068)
(0.000907015 -0.000399945 0.00508811)
(-0.00230953 -0.00281474 0.0104614)
(-0.00254318 -0.00128081 0.00905255)
(0.00142493 -0.00135998 0.005247)
(0.000794872 -0.000220161 0.00502965)
(-0.00124055 -0.00195466 0.00567541)
(-0.000110361 -0.00260011 0.00630576)
(0.000656113 -0.000742705 0.00483997)
(-5.88224e-06 -5.46994e-05 0.00570847)
(0.000484248 -0.00097884 0.00688391)
(0.0016152 -0.000529777 0.0054597)
(0.00117734 -0.000498317 0.00521949)
(0.000673697 -0.000892461 0.00565066)
(0.000541794 -0.00173188 0.00559201)
(0.00131213 -0.000335632 0.00510994)
(0.000827677 -0.000614762 0.0050918)
(0.00088866 -0.000254886 0.00543993)
(0.00135949 0.00186712 0.0085754)
(0.00133896 0.000659807 0.00483418)
(0.000644252 -0.000603786 0.00487387)
(0.000713335 -0.000501657 0.00512939)
(0.00128133 0.000762818 0.00456046)
(0.000996011 0.000702182 0.00440331)
(0.000904917 -0.000491135 0.00513377)
(0.000845208 -0.000780891 0.00519371)
(0.000338539 0.000317963 0.00395486)
(0.000605557 -0.000374819 0.0043181)
(0.000667089 -0.000505291 0.00479522)
(0.00107998 -0.000257533 0.00512846)
(-9.36019e-05 0.0010107 0.00365718)
(0.000330603 -0.000135462 0.00468733)
(0.000494401 -0.000343618 0.00499583)
(0.000570075 5.75726e-05 0.005612)
(0.00024251 0.000778413 0.00385774)
(0.000939424 8.91275e-06 0.00453373)
(0.000521768 -0.000314807 0.00499566)
(0.000369343 -0.000297756 0.00548882)
(0.000614331 0.00146819 0.00383595)
(0.000706873 6.04023e-08 0.00397499)
(0.000931591 -0.000216737 0.00477479)
(0.000435009 -0.000509134 0.0052713)
(-3.73269e-05 7.42909e-05 0.00397595)
(0.000110295 -0.000304112 0.00384893)
(0.000516926 -0.000302304 0.00446051)
(0.000491757 -0.000496321 0.00474052)
(0.000512555 8.57956e-05 0.0028095)
(-2.59624e-05 -0.000105695 0.0043996)
(-0.000165722 7.62652e-06 0.00532352)
(-0.00023263 -7.5584e-05 0.00543169)
(0.000323036 0.000109088 0.00260431)
(0.00100892 -5.51917e-05 0.00412129)
(0.000290109 -0.000192581 0.00505932)
(7.28011e-05 -0.000134917 0.00553456)
(4.34952e-05 0.00061325 0.00295623)
(0.000608894 0.000188759 0.00387631)
(0.000346176 -0.000199486 0.00489061)
(7.3672e-05 -0.000251858 0.00515419)
(0.000200768 0.00018422 0.00255321)
(0.000636927 -0.00013674 0.00370952)
(0.000233662 -0.000546079 0.0039172)
(0.000444066 -0.000587768 0.00470814)
(4.90819e-05 8.09016e-05 0.00222198)
(-0.000318755 -0.000235149 0.00435185)
(-0.000357715 -0.000139463 0.00491584)
(-0.00038477 -0.00041273 0.00531714)
(0.000148513 0.000316437 0.00216949)
(0.000878587 0.000490648 0.00363486)
(-0.000231073 2.72013e-05 0.00524804)
(-0.000200173 0.000297404 0.0054355)
(0.000410738 0.000736442 0.00220782)
(0.000588527 0.000941007 0.00318605)
(0.000319289 0.000140483 0.00465374)
(0.000214043 -6.5231e-05 0.0052711)
(0.000816325 0.000808101 0.00247681)
(0.000457687 0.00064209 0.00338919)
(5.14256e-07 -0.000377144 0.00413054)
(-0.000671165 -0.000825832 0.00469357)
(0 0 0)
(0 0 0)
(0 0 0)
(0 0 0)
(0 0 0)
(0 0 0)
(0 0 0)
(0 0 0)
(0 0 0)
(0 0 0)
(0 0 0)
(0 0 0)
(0 0 0)
(0 0 0)
(0 0 0)
(0 0 0)
(0 0 0)
(0 0 0)
(0 0 0)
(0 0 0)
(0 0 0)
(0 0 0)
(0 0 0)
(0 0 0)
(0 0 0)
(0 0 0)
(0 0 0)
(0 0 0)
(0 0 0)
(0 0 0)
(0 0 0)
(0 0 0)
(0 0 0)
(0 0 0)
(0 0 0)
(0 0 0)
(0 0 0)
(0 0 0)
(0 0 0)
(0 0 0)
(0 0 0)
(0 0 0)
(0 0 0)
(0 0 0)
(0 0 0)
(0 0 0)
(0 0 0)
(0 0 0)
(0 0 0)
(0 0 0)
(0 0 0)
(0 0 0)
(0 0 0)
(0 0 0)
(0 0 0)
(0 0 0)
(0 0 0)
(0 0 0)
(0 0 0)
(0 0 0)
(0 0 0)
(0 0 0)
(0 0 0)
(0 0 0)
(0 0 0)
(0 0 0)
(0 0 0)
(0 0 0)
(0 0 0)
(0 0 0)
(0 0 0)
(0 0 0)
(0 0 0)
(0 0 0)
(0 0 0)
(0 0 0)
(0 0 0)
(0 0 0)
(0 0 0)
(0 0 0)
(0 0 0)
(0 0 0)
(0 0 0)
(0 0 0)
(0 0 0)
(0 0 0)
(0 0 0)
(0 0 0)
(0 0 0)
(0 0 0)
(0 0 0)
(0 0 0)
(0 0 0)
(0 0 0)
(0 0 0)
(0 0 0)
(0 0 0)
(0 0 0)
(0 0 0)
(0 0 0)
(0 0 0)
(0 0 0)
(0 0 0)
(0 0 0)
(0 0 0)
(0 0 0)
(0 0 0)
(0 0 0)
(0 0 0)
(0 0 0)
(0 0 0)
(0 0 0)
(0 0 0)
(0 0 0)
(0 0 0)
(0 0 0)
(0 0 0)
(0 0 0)
(0 0 0)
(0 0 0)
(0 0 0)
(0 0 0)
(0 0 0)
(0 0 0)
(0 0 0)
(0 0 0)
(0 0 0)
(0 0 0)
(0 0 0)
(0 0 0)
(0 0 0)
(0 0 0)
(0 0 0)
(0 0 0)
(0 0 0)
(0 0 0)
(0 0 0)
(0 0 0)
(0 0 0)
(0 0 0)
(0 0 0)
(0 0 0)
(0 0 0)
(0 0 0)
(0 0 0)
(0 0 0)
(0 0 0)
(0 0 0)
(0 0 0)
(0 0 0)
(0 0 0)
(0 0 0)
(0 0 0)
(0 0 0)
(0 0 0)
(0 0 0)
(0 0 0)
(0 0 0)
(0 0 0)
(0 0 0)
(0 0 0)
(0 0 0)
(0 0 0)
(0 0 0)
(0 0 0)
(0 0 0)
(0 0 0)
(0 0 0)
(0 0 0)
(0 0 0)
(0 0 0)
(0 0 0)
(0 0 0)
(0 0 0)
(0 0 0)
(0 0 0)
(0 0 0)
(0 0 0)
(0 0 0)
(0 0 0)
(0 0 0)
(0 0 0)
(0 0 0)
(0 0 0)
(0 0 0)
(0 0 0)
(0 0 0)
(0 0 0)
(0 0 0)
(0 0 0)
(0 0 0)
(0 0 0)
(0 0 0)
(0 0 0)
(0 0 0)
(0 0 0)
(0 0 0)
(0 0 0)
(0 0 0)
(0 0 0)
(0 0 0)
(0 0 0)
(0 0 0)
(0 0 0)
(0 0 0)
(0 0 0)
(0 0 0)
(0 0 0)
(0 0 0)
(0 0 0)
(0 0 0)
(0 0 0)
(0 0 0)
(0 0 0)
(0 0 0)
(0 0 0)
(0 0 0)
(0 0 0)
(0 0 0)
(0 0 0)
(0 0 0)
(0 0 0)
(0 0 0)
(0 0 0)
(0 0 0)
(0 0 0)
(0 0 0)
(0 0 0)
(0 0 0)
(0 0 0)
(0 0 0)
(0 0 0)
(0 0 0)
(0 0 0)
(0 0 0)
(0 0 0)
(0 0 0)
(0 0 0)
(0 0 0)
(0 0 0)
(0 0 0)
(0 0 0)
(0 0 0)
(0 0 0)
(0 0 0)
(0 0 0)
(0 0 0)
(0 0 0)
(0 0 0)
(0 0 0)
(0 0 0)
(0 0 0)
(0 0 0)
(0 0 0)
(0 0 0)
(0 0 0)
(0 0 0)
(0 0 0)
(0 0 0)
(0 0 0)
(0 0 0)
(0 0 0)
(0 0 0)
(0 0 0)
(0 0 0)
(0 0 0)
(0 0 0)
(0 0 0)
(0 0 0)
(0 0 0)
(0 0 0)
(0 0 0)
)
;

boundaryField
{
    inlet
    {
        type            zeroGradient;
    }
    outlet
    {
        type            zeroGradient;
    }
    wall
    {
        type            zeroGradient;
    }
    procBoundary2to0
    {
        type            processor;
        value           nonuniform List<vector> 
192
(
(-0.000346987 -0.000299793 0.000143395)
(-0.000397714 -8.29661e-05 -6.36375e-05)
(0.000262451 0.000560311 6.12009e-05)
(3.30287e-05 0.00062107 -0.000350009)
(-0.00123811 -0.000792117 0.00699347)
(-0.000645568 -0.000207806 0.00606563)
(0.00122249 6.10858e-05 0.00613485)
(0.000603555 -0.00107717 0.00636058)
(0.000416404 -0.000524387 0.00598898)
(0.000893353 -0.000156201 0.00590627)
(0.000322166 -0.000243936 0.00637039)
(0.000216848 0.000396363 0.00651267)
(0.000900572 -0.000426044 0.00579542)
(0.000721909 -0.00025619 0.00569866)
(0.000351915 -0.000236902 0.0060484)
(0.000168788 -2.50716e-06 0.00651892)
(0.000619488 -0.000117705 0.00581252)
(7.25106e-05 -0.000532629 0.00594327)
(-1.20563e-05 -0.0002075 0.00610302)
(-0.000118227 -0.000113935 0.0062627)
(8.86623e-05 -5.85556e-05 0.00585483)
(-0.000100196 -0.000252825 0.00609044)
(-0.000305094 -0.000205669 0.00620066)
(9.23702e-06 -0.000115057 0.006173)
(-0.00026623 -7.12831e-05 0.00581213)
(-0.00016345 -0.000237212 0.00619695)
(-0.00150993 -0.000587135 0.00559105)
(-0.000754656 -0.000428665 0.00589183)
(0 0 0)
(0 0 0)
(0 0 0)
(0 0 0)
(0 0 0)
(0 0 0)
(0 0 0)
(0 0 0)
(0 0 0)
(0 0 0)
(0 0 0)
(0 0 0)
(0 0 0)
(0 0 0)
(0 0 0)
(0 0 0)
(0 0 0)
(0 0 0)
(0 0 0)
(0 0 0)
(0 0 0)
(0 0 0)
(0 0 0)
(0 0 0)
(0 0 0)
(0 0 0)
(0 0 0)
(0 0 0)
(0 0 0)
(0 0 0)
(0 0 0)
(0 0 0)
(0 0 0)
(0 0 0)
(0 0 0)
(0 0 0)
(0 0 0)
(0 0 0)
(0 0 0)
(0 0 0)
(0 0 0)
(0 0 0)
(0 0 0)
(0 0 0)
(0 0 0)
(0 0 0)
(0 0 0)
(0 0 0)
(0 0 0)
(0 0 0)
(0 0 0)
(0 0 0)
(0 0 0)
(0 0 0)
(0 0 0)
(0 0 0)
(0 0 0)
(0 0 0)
(0 0 0)
(0 0 0)
(0 0 0)
(0 0 0)
(0 0 0)
(0 0 0)
(0 0 0)
(0 0 0)
(0 0 0)
(0 0 0)
(8.925e-05 -0.000377889 0.000330013)
(2.38013e-05 0.000542362 0.000163002)
(-0.000497359 8.63642e-05 -0.000214759)
(0.00013569 0.00015701 0.000223754)
(0.000600187 0.000123863 0.00485344)
(0.000459587 1.13652e-05 0.00450704)
(-0.000806716 0.000397019 0.00455423)
(-0.0014768 -0.000505091 0.00609838)
(0.00110735 0.000311126 0.00425333)
(0.000894926 -0.00024724 0.00473625)
(0.000494487 0.000355 0.00516582)
(0.000963934 -0.000257835 0.00570302)
(0.000323044 -0.000173356 0.00367985)
(0.000494947 2.56895e-05 0.00432324)
(0.00118006 -0.000575969 0.00557327)
(0.000881516 -0.000487825 0.00549258)
(0.000303644 0.000424274 0.00403435)
(1.06668e-05 0.000277109 0.00420508)
(0.000781851 -0.000136536 0.00501765)
(0.000769026 1.52764e-05 0.00542857)
(0.00039943 0.000190064 0.00258419)
(0.000302081 -0.000690683 0.0041266)
(0.000147819 -0.000409359 0.00463169)
(0.000127083 -1.34731e-05 0.00543225)
(9.38584e-05 0.000404226 0.00217393)
(-0.00094472 0.000232877 0.00414072)
(-0.000868761 -0.000103925 0.00453316)
(-0.000489108 -4.87144e-06 0.00542923)
(0 0 0)
(0 0 0)
(0 0 0)
(0 0 0)
(0 0 0)
(0 0 0)
(0 0 0)
(0 0 0)
(0 0 0)
(0 0 0)
(0 0 0)
(0 0 0)
(0 0 0)
(0 0 0)
(0 0 0)
(0 0 0)
(0 0 0)
(0 0 0)
(0 0 0)
(0 0 0)
(0 0 0)
(0 0 0)
(0 0 0)
(0 0 0)
(0 0 0)
(0 0 0)
(0 0 0)
(0 0 0)
(0 0 0)
(0 0 0)
(0 0 0)
(0 0 0)
(0 0 0)
(0 0 0)
(0 0 0)
(0 0 0)
(0 0 0)
(0 0 0)
(0 0 0)
(0 0 0)
(0 0 0)
(0 0 0)
(0 0 0)
(0 0 0)
(0 0 0)
(0 0 0)
(0 0 0)
(0 0 0)
(0 0 0)
(0 0 0)
(0 0 0)
(0 0 0)
(0 0 0)
(0 0 0)
(0 0 0)
(0 0 0)
(0 0 0)
(0 0 0)
(0 0 0)
(0 0 0)
(0 0 0)
(0 0 0)
(0 0 0)
(0 0 0)
(0 0 0)
(0 0 0)
(0 0 0)
(0 0 0)
)
;
    }
    procBoundary2to3
    {
        type            processor;
        value           nonuniform List<vector> 
192
(
(0.000325715 0.00137202 5.67022e-05)
(0.000224425 0.00103359 0.000568945)
(0.000915174 0.000963163 7.38875e-05)
(0.000868266 0.000424467 -0.000416114)
(0.000119148 -0.000253533 0.00643115)
(0.00121571 -0.00121735 0.00720925)
(0.000939547 0.000652426 0.00659239)
(0.0021882 0.00140758 0.00726164)
(7.61978e-05 0.000477676 0.00655615)
(0.000104037 0.000734159 0.00631062)
(0.000623274 0.000284162 0.00588818)
(0.00136401 0.000326958 0.00629209)
(0.000154073 7.93772e-05 0.00636819)
(3.87405e-06 -0.000309238 0.00640448)
(0.000433199 -0.000426901 0.00622349)
(0.000249844 -0.000213111 0.00607153)
(-1.30691e-06 -0.000132325 0.00636372)
(-0.000130371 -0.000119848 0.00651674)
(-0.000344033 -0.00011514 0.0063605)
(-0.0002305 -0.000683914 0.00632178)
(-0.000180045 -1.91039e-05 0.00626702)
(-0.000196675 -0.000139388 0.006468)
(-0.00027112 -0.00013267 0.00641841)
(-0.00048856 -0.000638953 0.00634681)
(-0.000211831 -0.000215852 0.00630025)
(-0.000417485 -5.27472e-05 0.00617375)
(7.78303e-06 7.20781e-05 0.00629546)
(-0.000223624 -0.000127588 0.00627511)
(0 0 0)
(0 0 0)
(0 0 0)
(0 0 0)
(0 0 0)
(0 0 0)
(0 0 0)
(0 0 0)
(0 0 0)
(0 0 0)
(0 0 0)
(0 0 0)
(0 0 0)
(0 0 0)
(0 0 0)
(0 0 0)
(0 0 0)
(0 0 0)
(0 0 0)
(0 0 0)
(0 0 0)
(0 0 0)
(0 0 0)
(0 0 0)
(0 0 0)
(0 0 0)
(0 0 0)
(0 0 0)
(0 0 0)
(0 0 0)
(0 0 0)
(0 0 0)
(0 0 0)
(0 0 0)
(0 0 0)
(0 0 0)
(0 0 0)
(0 0 0)
(0 0 0)
(0 0 0)
(0 0 0)
(0 0 0)
(0 0 0)
(0 0 0)
(0 0 0)
(0 0 0)
(0 0 0)
(0 0 0)
(0 0 0)
(0 0 0)
(0 0 0)
(0 0 0)
(0 0 0)
(0 0 0)
(0 0 0)
(0 0 0)
(0 0 0)
(0 0 0)
(0 0 0)
(0 0 0)
(0 0 0)
(0 0 0)
(0 0 0)
(0 0 0)
(0 0 0)
(0 0 0)
(0 0 0)
(0 0 0)
(7.23678e-05 0.000806158 0.0002652)
(0.000256519 0.00103425 -0.00156938)
(-0.000288977 -0.000248633 -0.000130423)
(-0.000238232 -0.000320573 0.000172179)
(0.00107336 0.000679078 0.00596102)
(0.000767688 -6.88301e-05 0.00610589)
(0.000447788 0.00019352 0.00501552)
(0.00130256 0.000120688 0.00487041)
(0.0010192 0.000277857 0.00622512)
(0.000881259 -0.00112234 0.00600761)
(0.000986076 0.000348429 0.00544266)
(0.000681573 3.38382e-05 0.00448643)
(0.000999496 -0.000250415 0.00663645)
(0.00132464 -0.000737931 0.00614822)
(0.00101504 -0.000722119 0.00519581)
(0.00213799 -0.000639039 0.00643093)
(0.000291622 -0.000220776 0.00639087)
(0.000469967 -0.00053189 0.00589368)
(0.000254522 -0.000596534 0.00556513)
(0.000578219 -0.00124119 0.00428214)
(-0.00014866 -0.00090921 0.00625591)
(-0.000350563 -0.000428584 0.00553376)
(3.95702e-05 2.08573e-05 0.00449617)
(0.000178351 -0.000123848 0.00356473)
(-0.00103799 -0.00102203 0.00563533)
(-0.000543427 0.000339395 0.0050638)
(0.000923608 -0.00558699 -0.00562143)
(2.21687e-05 -0.000104812 0.00397114)
(0 0 0)
(0 0 0)
(0 0 0)
(0 0 0)
(0 0 0)
(0 0 0)
(0 0 0)
(0 0 0)
(0 0 0)
(0 0 0)
(0 0 0)
(0 0 0)
(0 0 0)
(0 0 0)
(0 0 0)
(0 0 0)
(0 0 0)
(0 0 0)
(0 0 0)
(0 0 0)
(0 0 0)
(0 0 0)
(0 0 0)
(0 0 0)
(0 0 0)
(0 0 0)
(0 0 0)
(0 0 0)
(0 0 0)
(0 0 0)
(0 0 0)
(0 0 0)
(0 0 0)
(0 0 0)
(0 0 0)
(0 0 0)
(0 0 0)
(0 0 0)
(0 0 0)
(0 0 0)
(0 0 0)
(0 0 0)
(0 0 0)
(0 0 0)
(0 0 0)
(0 0 0)
(0 0 0)
(0 0 0)
(0 0 0)
(0 0 0)
(0 0 0)
(0 0 0)
(0 0 0)
(0 0 0)
(0 0 0)
(0 0 0)
(0 0 0)
(0 0 0)
(0 0 0)
(0 0 0)
(0 0 0)
(0 0 0)
(0 0 0)
(0 0 0)
(0 0 0)
(0 0 0)
(0 0 0)
(0 0 0)
)
;
    }
}


// ************************************************************************* //
