/*--------------------------------*- C++ -*----------------------------------*\
| =========                 |                                                 |
| \\      /  F ield         | OpenFOAM: The Open Source CFD Toolbox           |
|  \\    /   O peration     | Version:  2506                                  |
|   \\  /    A nd           | Website:  www.openfoam.com                      |
|    \\/     M anipulation  |                                                 |
\*---------------------------------------------------------------------------*/
FoamFile
{
    version     2.0;
    format      ascii;
    arch        "LSB;label=32;scalar=64";
    class       volScalarField;
    location    "0.07";
    object      voidfraction;
}
// * * * * * * * * * * * * * * * * * * * * * * * * * * * * * * * * * * * * * //

dimensions      [0 0 0 0 0 0 0];

internalField   nonuniform List<scalar> 
1152
(
0.491764
0.40223
0.357463
0.460163
0.431196
0.452263
0.470697
0.431196
0.478597
0.460163
0.454897
0.365363
0.399596
0.396963
0.42593
0.470697
0.360096
0.365363
0.446997
0.446997
0.381163
0.383796
0.423296
0.431196
0.375896
0.44173
0.44963
0.41803
0.38643
0.399596
0.470697
0.325862
0.323229
0.48913
0.41803
0.396963
0.389063
0.373263
0.41013
0.286362
0.404863
0.41013
0.362729
0.373263
0.41803
0.454897
0.415396
0.38643
0.431196
0.389063
0.431196
0.452263
0.43383
0.383796
0.375896
0.362729
0.389063
0.383796
0.415396
0.42593
0.423296
0.383796
0.396963
0.304796
0.381163
0.412763
0.46543
0.344296
0.396963
0.352196
0.446997
0.412763
0.499664
0.354829
0.41013
0.375896
0.412763
0.341663
0.370629
0.404863
0.454897
0.331129
0.396963
0.41013
0.43383
0.378529
0.346929
0.370629
0.48913
0.39433
0.454897
0.420663
0.412763
0.420663
0.367996
0.317962
0.681365
0.633964
0.655031
0.631331
0.655031
0.715598
0.623431
0.583931
0.826199
0.784065
0.610264
0.689265
0.676098
0.673465
0.589197
0.773532
1
1
1
1
1
1
1
1
1
1
1
1
1
1
1
1
1
1
1
1
1
1
1
1
1
1
1
1
1
1
1
1
1
1
1
1
1
1
1
1
1
1
1
1
1
1
1
1
1
1
1
1
1
1
1
1
1
1
1
1
1
1
1
1
1
1
1
1
1
1
1
1
1
1
1
1
1
1
1
1
1
1
1
1
1
1
1
1
1
1
1
1
1
1
1
1
1
1
1
1
1
1
1
1
1
1
1
1
1
1
1
1
1
1
1
1
1
1
1
1
1
1
1
1
1
1
1
1
1
1
1
1
1
1
1
1
1
1
1
1
1
1
1
1
1
1
1
1
1
1
1
1
1
1
1
1
1
1
1
1
1
1
1
1
1
1
1
1
1
1
1
1
1
1
1
1
1
1
1
1
1
1
1
1
1
1
1
1
1
1
1
1
1
1
1
1
1
1
1
1
1
1
1
1
1
1
1
1
1
1
1
1
1
1
1
1
1
1
1
1
1
1
1
1
1
1
1
1
1
1
1
1
1
1
1
1
1
1
1
1
1
1
1
1
1
1
1
1
1
1
1
1
1
1
1
1
1
1
1
1
1
1
1
1
1
1
1
1
1
1
1
1
0.478658
0.435116
0.436965
0.483792
0.397959
0.482031
0.480053
0.436211
0.480198
0.468918
0.469308
0.491623
0.452346
0.467322
0.432097
0.489944
0.386657
0.505726
0.374707
0.403605
0.408839
0.354616
0.439692
0.383149
0.393565
0.422631
0.448165
0.414476
0.473928
0.373831
0.464495
0.450572
0.404181
0.361296
0.399069
0.498828
0.354438
0.390625
0.411202
0.460531
0.439976
0.425067
0.452394
0.38876
0.395692
0.393399
0.456872
0.382564
0.456753
0.380553
0.466741
0.373534
0.336304
0.421093
0.373215
0.380938
0.371906
0.359291
0.427022
0.529207
0.401087
0.417315
0.384455
0.470258
0.439229
0.438325
0.434258
0.343464
0.387079
0.440483
0.434944
0.38536
0.368812
0.403142
0.369936
0.365023
0.430763
0.36296
0.382549
0.439834
0.548755
0.393391
0.464034
0.338452
0.416093
0.393394
0.406454
0.403047
0.405941
0.439684
0.365707
0.35711
0.384901
0.406444
0.500703
0.479206
0.649518
0.740025
0.664345
0.654191
0.582923
0.650994
0.605885
0.66836
0.659654
0.77831
0.708225
0.693391
0.66817
0.706483
0.615046
0.529317
1
1
1
1
1
1
1
1
1
1
1
1
1
1
1
1
1
1
1
1
1
1
1
1
1
1
1
1
1
1
1
1
1
1
1
1
1
1
1
1
1
1
1
1
1
1
1
1
1
1
1
1
1
1
1
1
1
1
1
1
1
1
1
1
1
1
1
1
1
1
1
1
1
1
1
1
1
1
1
1
1
1
1
1
1
1
1
1
1
1
1
1
1
1
1
1
1
1
1
1
1
1
1
1
1
1
1
1
1
1
1
1
1
1
1
1
1
1
1
1
1
1
1
1
1
1
1
1
1
1
1
1
1
1
1
1
1
1
1
1
1
1
1
1
1
1
1
1
1
1
1
1
1
1
1
1
1
1
1
1
1
1
1
1
1
1
1
1
1
1
1
1
1
1
1
1
1
1
1
1
1
1
1
1
1
1
1
1
1
1
1
1
1
1
1
1
1
1
1
1
1
1
1
1
1
1
1
1
1
1
1
1
1
1
1
1
1
1
1
1
1
1
1
1
1
1
1
1
1
1
1
1
1
1
1
1
1
1
1
1
1
1
1
1
1
1
1
1
1
1
1
1
1
1
1
1
1
1
1
1
1
1
1
1
1
1
1
1
1
1
1
1
0.436254
0.505469
0.491485
0.41864
0.481646
0.441822
0.456311
0.428845
0.443405
0.515205
0.49588
0.47684
0.476626
0.439976
0.485001
0.412943
0.427306
0.444148
0.495906
0.366017
0.380643
0.399536
0.501421
0.374707
0.519502
0.468918
0.371235
0.415858
0.498208
0.393565
0.466867
0.44361
0.470258
0.384804
0.429578
0.381052
0.445437
0.456622
0.389834
0.366586
0.443405
0.451865
0.401704
0.409439
0.390296
0.399753
0.397959
0.456753
0.446992
0.527229
0.440633
0.37604
0.437815
0.355135
0.430195
0.369293
0.380354
0.417758
0.396164
0.415858
0.438857
0.424505
0.405212
0.369133
0.416568
0.426344
0.396414
0.406111
0.388266
0.424908
0.399331
0.369293
0.395573
0.417758
0.385085
0.390182
0.457741
0.300743
0.426973
0.31656
0.393302
0.418432
0.434
0.411122
0.41304
0.367821
0.408828
0.409896
0.40427
0.439684
0.349076
0.367715
0.409181
0.439976
0.387079
0.351609
0.609852
0.628113
0.681625
0.596556
0.592177
0.670168
0.729343
0.656224
0.549941
0.734459
0.720241
0.723977
0.595329
0.569926
0.702606
0.667042
1
1
1
1
1
1
1
1
1
1
1
1
1
1
1
1
1
1
1
1
1
1
1
1
1
1
1
1
1
1
1
1
1
1
1
1
1
1
1
1
1
1
1
1
1
1
1
1
1
1
1
1
1
1
1
1
1
1
1
1
1
1
1
1
1
1
1
1
1
1
1
1
1
1
1
1
1
1
1
1
1
1
1
1
1
1
1
1
1
1
1
1
1
1
1
1
1
1
1
1
1
1
1
1
1
1
1
1
1
1
1
1
1
1
1
1
1
1
1
1
1
1
1
1
1
1
1
1
1
1
1
1
1
1
1
1
1
1
1
1
1
1
1
1
1
1
1
1
1
1
1
1
1
1
1
1
1
1
1
1
1
1
1
1
1
1
1
1
1
1
1
1
1
1
1
1
1
1
1
1
1
1
1
1
1
1
1
1
1
1
1
1
1
1
1
1
1
1
1
1
1
1
1
1
1
1
1
1
1
1
1
1
1
1
1
1
1
1
1
1
1
1
1
1
1
1
1
1
1
1
1
1
1
1
1
1
1
1
1
1
1
1
1
1
1
1
1
1
1
1
1
1
1
1
1
1
1
1
1
1
1
1
1
1
1
1
1
1
1
1
1
1
)
;

boundaryField
{
    inlet
    {
        type            fixedValue;
        value           uniform 1;
    }
    outlet
    {
        type            fixedValue;
        value           uniform 1;
    }
    wall
    {
        type            zeroGradient;
    }
    procBoundary2to0
    {
        type            processor;
        value           nonuniform List<scalar> 
192
(
0.45753
0.583931
0.454897
0.53653
0.43383
0.43383
0.423296
0.452263
0.43383
0.315329
0.362729
0.446997
0.420663
0.378529
0.344296
0.323229
0.373263
0.370629
0.357463
0.354829
0.346929
0.452263
0.42593
0.478597
0.741932
0.797232
0.639231
0.636598
1
1
1
1
1
1
1
1
1
1
1
1
1
1
1
1
1
1
1
1
1
1
1
1
1
1
1
1
1
1
1
1
1
1
1
1
1
1
1
1
1
1
1
1
1
1
1
1
1
1
1
1
1
1
1
1
1
1
1
1
1
1
1
1
1
1
1
1
0.486365
0.428323
0.378727
0.478781
0.480996
0.392716
0.345563
0.441193
0.368247
0.457994
0.447266
0.451216
0.375406
0.333373
0.389782
0.408616
0.473837
0.390738
0.407469
0.386064
0.434465
0.422388
0.391992
0.416134
0.581218
0.586572
0.610875
0.629132
1
1
1
1
1
1
1
1
1
1
1
1
1
1
1
1
1
1
1
1
1
1
1
1
1
1
1
1
1
1
1
1
1
1
1
1
1
1
1
1
1
1
1
1
1
1
1
1
1
1
1
1
1
1
1
1
1
1
1
1
1
1
1
1
1
1
1
1
)
;
    }
    procBoundary2to3
    {
        type            processor;
        value           nonuniform List<scalar> 
192
(
0.470697
0.483863
0.525997
0.396963
0.44963
0.40223
0.378529
0.43383
0.373263
0.452263
0.333763
0.452263
0.404863
0.44173
0.378529
0.439097
0.486497
0.423296
0.38643
0.367996
0.41803
0.45753
0.389063
0.533897
0.649764
0.612898
0.678731
0.702431
1
1
1
1
1
1
1
1
1
1
1
1
1
1
1
1
1
1
1
1
1
1
1
1
1
1
1
1
1
1
1
1
1
1
1
1
1
1
1
1
1
1
1
1
1
1
1
1
1
1
1
1
1
1
1
1
1
1
1
1
1
1
1
1
1
1
1
1
0.471263
0.453899
0.386782
0.427306
0.366017
0.427367
0.432279
0.389723
0.361005
0.367672
0.35711
0.446992
0.413628
0.321243
0.365023
0.386144
0.426158
0.422946
0.422388
0.398671
0.441193
0.345563
0.511404
0.355719
0.731873
0.661727
0.711194
0.699336
1
1
1
1
1
1
1
1
1
1
1
1
1
1
1
1
1
1
1
1
1
1
1
1
1
1
1
1
1
1
1
1
1
1
1
1
1
1
1
1
1
1
1
1
1
1
1
1
1
1
1
1
1
1
1
1
1
1
1
1
1
1
1
1
1
1
1
1
)
;
    }
}


// ************************************************************************* //
