FoamFile
{version 2.0; format ascii;class Cloud<passiveParticle>; location 0;object  positions;}
1000
(
( 0.0309191 0.0356505 0.0873764 ) 0 
( 0.0321898 0.0811161 0.0994893 ) 0 
( 0.0407928 0.0923124 0.0993756 ) 0 
( 0.094473 0.00890948 0.0885416 ) 0 
( 0.00764969 0.00384208 0.0995004 ) 0 
( 0.0949005 0.0400712 0.0989653 ) 0 
( 0.0206359 0.0613631 0.0886234 ) 0 
( 0.020677 0.0942629 0.0993263 ) 0 
( 0.0235408 0.0972808 0.0995002 ) 0 
( 0.0669146 0.0170108 0.0938216 ) 0 
( 0.00336356 0.0301622 0.0957436 ) 0 
( 0.0226542 0.0184853 0.0910098 ) 0 
( 0.0506748 0.0566114 0.0995002 ) 0 
( 0.0183606 0.0673758 0.0995002 ) 0 
( 0.0758973 0.074726 0.0962629 ) 0 
( 0.0586634 0.0159152 0.0995002 ) 0 
( 0.018707 0.0262125 0.0991436 ) 0 
( 0.0210735 0.0696304 0.0995002 ) 0 
( 0.006288 0.0542023 0.0991379 ) 0 
( 0.0173766 0.0794114 0.0885419 ) 0 
( 0.0851702 0.010281 0.0893155 ) 0 
( 0.0629108 0.0128777 0.0947917 ) 0 
( 0.100158 0.0953394 0.0893135 ) 0 
( 0.0808447 0.0519919 0.0985525 ) 0 
( 0.0303661 0.00346845 0.0995002 ) 0 
( 0.0843527 0.0728452 0.0978747 ) 0 
( 0.0278266 0.0757743 0.0995002 ) 0 
( 0.089981 0.0353184 0.0989699 ) 0 
( 0.104852 0.00193623 0.0994832 ) 0 
( 0.0881827 0.0320396 0.0989648 ) 0 
( 0.0653906 0.00457104 0.0891771 ) 0 
( 0.0663989 0.0231639 0.0882817 ) 0 
( 0.0138471 0.0708967 0.099309 ) 0 
( 0.0721933 0.0582477 0.0990486 ) 0 
( 0.0746642 0.0865573 0.0887894 ) 0 
( 0.0117334 0.00131117 0.0941532 ) 0 
( 0.065617 0.0987041 0.0890997 ) 0 
( 0.0427258 0.0788679 0.0899651 ) 0 
( 0.0858267 0.0536993 0.0890779 ) 0 
( 0.0950926 0.0715934 0.0956561 ) 0 
( 0.091009 0.0244532 0.0995002 ) 0 
( 0.0272615 0.062478 0.0990063 ) 0 
( 0.0493519 0.0562242 0.0994804 ) 0 
( 0.0767131 0.086601 0.0900977 ) 0 
( 0.0764713 0.0497533 0.090545 ) 0 
( 0.0358238 0.0489002 0.0994638 ) 0 
( 0.0624853 0.000945173 0.0994989 ) 0 
( 0.0247212 0.0852639 0.0883546 ) 0 
( 0.0780804 0.0226037 0.0883339 ) 0 
( 0.0241936 0.0534742 0.0954825 ) 0 
( 0.0263671 0.0341116 0.0896868 ) 0 
( 0.0227414 0.0199194 0.0995002 ) 0 
( 0.0236531 0.00471741 0.0927587 ) 0 
( 0.00769064 0.0793306 0.0995002 ) 0 
( 0.0734533 0.0970295 0.0991654 ) 0 
( 0.0328959 0.0540731 0.0989459 ) 0 
( 0.0717016 0.0449749 0.0994982 ) 0 
( 0.0536304 0.0320754 0.0876882 ) 0 
( 0.0840688 0.0317742 0.0928152 ) 0 
( 0.013955 0.0786432 0.0928417 ) 0 
( 0.033728 0.024803 0.0906139 ) 0 
( 0.0789529 0.0286293 0.099037 ) 0 
( 0.0256837 0.0461445 0.087853 ) 0 
( 0.0441307 0.0643886 0.0950493 ) 0 
( 0.0905632 0.0451159 0.0925722 ) 0 
( 0.0894336 0.0886148 0.0995002 ) 0 
( 0.0109464 0.0834233 0.0995002 ) 0 
( 0.0547499 0.0414802 0.0991781 ) 0 
( 0.0078534 0.0278049 0.0983028 ) 0 
( 0.0548935 0.0805188 0.0891046 ) 0 
( 0.0166039 0.0255728 0.0883476 ) 0 
( 0.0905293 0.0775495 0.0991149 ) 0 
( 0.0428962 0.0189753 0.0978149 ) 0 
( 0.0347763 0.0600157 0.0995002 ) 0 
( 0.0838334 0.0895732 0.0884227 ) 0 
( 0.0275496 0.0218881 0.0994767 ) 0 
( 0.068687 0.00117541 0.0967088 ) 0 
( 0.0957532 0.0827921 0.0955163 ) 0 
( 0.0879988 0.0705455 0.0932325 ) 0 
( 0.0876115 0.0798761 0.0991859 ) 0 
( 0.023272 0.001486 0.0994655 ) 0 
( 0.0593379 0.0559258 0.0866971 ) 0 
( 0.0927933 0.0527257 0.088317 ) 0 
( 0.0377542 0.0992338 0.0905282 ) 0 
( 0.0416784 0.0207116 0.0994982 ) 0 
( 0.0193093 0.0196147 0.0994682 ) 0 
( 0.0203836 0.0560359 0.0994868 ) 0 
( 0.0473007 0.0405475 0.0995002 ) 0 
( 0.0453601 0.0815821 0.088508 ) 0 
( 0.0509272 0.0592175 0.0895541 ) 0 
( 0.0748021 0.0694393 0.0990926 ) 0 
( 0.0724305 0.0854054 0.0995002 ) 0 
( 0.00315268 0.01744 0.0995002 ) 0 
( 0.0594108 0.0520081 0.090986 ) 0 
( 0.0876333 0.062391 0.0995002 ) 0 
( 0.0891336 0.0498116 0.0923417 ) 0 
( 0.0940168 0.0659867 0.0895415 ) 0 
( 0.00887319 0.0170375 0.0995002 ) 0 
( 0.0961427 0.0336583 0.0990034 ) 0 
( 0.0821064 0.0722725 0.0866914 ) 0 
( 0.0662386 0.072542 0.088885 ) 0 
( 0.0505952 0.0111324 0.0995002 ) 0 
( 0.0715869 0.0878374 0.0990507 ) 0 
( 0.0660394 0.07814 0.0995002 ) 0 
( 0.0274034 0.0553934 0.0961789 ) 0 
( 0.0900084 0.0316381 0.0983832 ) 0 
( 0.0617277 0.0158204 0.0995002 ) 0 
( 0.0344623 0.0914028 0.0995002 ) 0 
( 0.0925979 0.0446832 0.0887954 ) 0 
( 0.0894458 0.0112835 0.0963237 ) 0 
( 0.036801 0.0153143 0.0994899 ) 0 
( 0.00849791 0.0236708 0.088467 ) 0 
( 0.0859249 0.0583744 0.0895705 ) 0 
( 0.00604968 0.0638052 0.0887995 ) 0 
( 0.0227166 0.00322512 0.0875339 ) 0 
( 0.0640763 0.0399807 0.0882438 ) 0 
( 0.0246878 0.0639243 0.0995002 ) 0 
( 0.066923 0.00683656 0.0926396 ) 0 
( 0.0724267 0.0626716 0.0876216 ) 0 
( 0.0493924 0.0859267 0.0899484 ) 0 
( 0.0303447 0.0754867 0.0993621 ) 0 
( 0.0185589 0.0635282 0.0885113 ) 0 
( 0.0812837 0.081002 0.093327 ) 0 
( 0.0937466 0.0257988 0.0994992 ) 0 
( 0.0254435 0.0962151 0.0926666 ) 0 
( 0.0769545 0.0246637 0.0926174 ) 0 
( 0.0273632 0.0631977 0.0899192 ) 0 
( 0.0246154 0.00753275 0.0901104 ) 0 
( 0.0347486 0.00324849 0.0929896 ) 0 
( 0.0592333 0.0431878 0.0991424 ) 0 
( 0.0153645 0.0322215 0.0924942 ) 0 
( 0.0992643 0.0194924 0.0885569 ) 0 
( 0.0726314 0.0071723 0.0932349 ) 0 
( 0.0801813 0.00200921 0.0884124 ) 0 
( 0.0950931 0.0840072 0.0892471 ) 0 
( 0.0396774 0.0481333 0.0884827 ) 0 
( 0.0935806 0.0299465 0.0995002 ) 0 
( 0.0402996 0.0747772 0.0995002 ) 0 
( 0.0450922 0.0933937 0.0869295 ) 0 
( 0.0674878 0.045388 0.0909296 ) 0 
( 0.03868 0.0735984 0.0913993 ) 0 
( 0.0292579 0.0729555 0.0876812 ) 0 
( 0.0445088 0.0697482 0.0992902 ) 0 
( 0.0898124 0.0827395 0.0995002 ) 0 
( 0.0784769 0.0879354 0.0901646 ) 0 
( 0.0413787 0.0213966 0.0891778 ) 0 
( 0.0662271 0.0326515 0.086853 ) 0 
( 0.0504558 0.0523987 0.0904035 ) 0 
( 0.0312361 0.0938663 0.0924015 ) 0 
( 0.0608346 0.0881713 0.0995002 ) 0 
( 0.0798939 0.0258044 0.0995002 ) 0 
( 0.0114546 0.0748404 0.0925118 ) 0 
( 0.0723025 0.0928929 0.0897542 ) 0 
( 0.0957253 0.0795614 0.0991917 ) 0 
( 0.0644224 0.0115263 0.0887886 ) 0 
( 0.092824 0.000901222 0.0986829 ) 0 
( 0.0254182 0.0332799 0.0922363 ) 0 
( 0.0795279 0.061343 0.0995002 ) 0 
( 0.0548432 0.0862847 0.0911578 ) 0 
( 0.0956309 0.0511402 0.0931891 ) 0 
( 0.0565289 0.0162747 0.0917222 ) 0 
( 0.0361166 0.0979921 0.0973598 ) 0 
( 0.0580221 0.0710737 0.0894602 ) 0 
( 0.0948278 0.0900216 0.0995002 ) 0 
( 0.0285278 0.0834212 0.0929924 ) 0 
( 0.0694018 0.0407668 0.0992524 ) 0 
( 0.0490902 0.0846706 0.0994636 ) 0 
( 0.0191848 0.0591478 0.099393 ) 0 
( 0.0307065 0.058614 0.0888356 ) 0 
( 0.0852722 0.0441406 0.0977744 ) 0 
( 0.0395357 0.0010519 0.0995002 ) 0 
( 0.0968836 0.0442073 0.0995002 ) 0 
( 0.0222335 0.0718561 0.0995002 ) 0 
( 0.0910951 0.022317 0.0994981 ) 0 
( 0.0171612 0.0332119 0.0971924 ) 0 
( 0.0401591 0.0716045 0.0990054 ) 0 
( 0.0684014 0.017396 0.0932816 ) 0 
( 0.0754704 0.0546727 0.0917221 ) 0 
( 0.0937545 0.0355883 0.0922185 ) 0 
( 0.0416027 0.0839251 0.0995002 ) 0 
( 0.0857818 0.016015 0.0901576 ) 0 
( 0.0731488 0.0678455 0.0995002 ) 0 
( 0.0260095 0.0923652 0.0995002 ) 0 
( 0.0278251 0.0824845 0.0902634 ) 0 
( 0.0228758 0.0329759 0.0881264 ) 0 
( 0.0750941 0.0630038 0.0910346 ) 0 
( 0.0887903 0.00987962 0.0990037 ) 0 
( 0.041338 0.0432708 0.0889743 ) 0 
( 0.071629 0.0357751 0.0882029 ) 0 
( 0.000632769 0.0637651 0.0993103 ) 0 
( 0.0574 0.070091 0.0885998 ) 0 
( 0.0406633 0.0191461 0.093993 ) 0 
( 0.0979153 0.0613056 0.0886872 ) 0 
( 0.0305216 0.0427276 0.0899332 ) 0 
( 0.0522593 0.0835105 0.0990763 ) 0 
( 0.0411621 0.0498411 0.0995002 ) 0 
( 0.0274 0.0869202 0.0888945 ) 0 
( 0.0113494 0.0297864 0.0988827 ) 0 
( 0.0879454 0.0650316 0.0920814 ) 0 
( 0.0883918 0.0882634 0.0995002 ) 0 
( 0.0641662 0.013886 0.0995002 ) 0 
( 0.0451898 0.0548677 0.0995002 ) 0 
( 0.0553245 0.0461974 0.0884071 ) 0 
( 0.0441014 0.0336767 0.0989975 ) 0 
( 0.0865897 0.0593566 0.0954677 ) 0 
( 0.0582048 0.0846066 0.0991862 ) 0 
( 0.0710273 0.0476333 0.0909282 ) 0 
( 0.0759956 0.00182268 0.0989856 ) 0 
( 0.0851373 0.0200625 0.0920567 ) 0 
( 0.00149711 0.0590172 0.0995002 ) 0 
( 0.0639574 0.0900434 0.0889719 ) 0 
( 0.0860275 0.0215569 0.0956329 ) 0 
( 0.0733208 0.0400197 0.0903036 ) 0 
( 0.0145484 0.0685591 0.0989653 ) 0 
( 0.0291775 0.0753748 0.0956671 ) 0 
( 0.0186051 0.0305741 0.0989613 ) 0 
( 0.01374 0.0695578 0.0995009 ) 0 
( 0.0102569 0.0508855 0.096575 ) 0 
( 0.0397677 0.0298779 0.0897838 ) 0 
( 0.0231767 0.0124028 0.0991884 ) 0 
( 0.0968033 0.087773 0.0995002 ) 0 
( 0.00591155 0.011457 0.0992074 ) 0 
( 0.0847109 0.0423223 0.0901163 ) 0 
( 0.0499858 0.0927153 0.0946204 ) 0 
( 0.0234191 0.0631164 0.0991058 ) 0 
( 0.014979 0.0516628 0.0995002 ) 0 
( 0.0575736 0.0261534 0.0882572 ) 0 
( 0.0352837 0.00484361 0.0868937 ) 0 
( 0.0740561 0.00330144 0.0944626 ) 0 
( 0.00810384 0.0625607 0.0896966 ) 0 
( 0.106661 0.0968035 0.098438 ) 0 
( 0.0508894 0.0386911 0.0995002 ) 0 
( 0.0154224 0.0597242 0.0990192 ) 0 
( 0.0863478 0.0324556 0.0927293 ) 0 
( 0.0862729 0.0252569 0.0995002 ) 0 
( 0.0734306 0.0174095 0.0937108 ) 0 
( 0.0781612 0.0365496 0.0911991 ) 0 
( 0.00908058 0.0324682 0.0898213 ) 0 
( 0.0435841 0.00255668 0.0977501 ) 0 
( 0.00354321 0.0565689 0.0974295 ) 0 
( 0.0944697 0.00521559 0.0992191 ) 0 
( 0.032192 0.0378165 0.0995002 ) 0 
( 0.0828474 0.0865063 0.0984856 ) 0 
( 0.0165445 0.0553938 0.0898318 ) 0 
( 0.395414 0.00235365 0.0995002 ) 0 
( 0.0956735 0.00368584 0.0880694 ) 0 
( 0.0768355 0.0572029 0.0902033 ) 0 
( 0.0253824 0.0158588 0.0928 ) 0 
( 0.0381486 0.0319702 0.0945087 ) 0 
( 0.0754556 0.0551688 0.0977 ) 0 
( 0.0729611 0.0336441 0.093695 ) 0 
( 0.155977 0.0375557 0.0995002 ) 0 
( 0.185483 0.0386438 0.0995002 ) 0 
( 0.12166 0.0554716 0.0884876 ) 0 
( 0.167415 0.0806306 0.0877328 ) 0 
( 0.11165 0.0136178 0.0994368 ) 0 
( 0.151375 0.0521333 0.0909412 ) 0 
( 0.196645 0.0605168 0.093039 ) 0 
( 0.132553 0.0216136 0.0991981 ) 0 
( 0.141079 0.0414649 0.0886186 ) 0 
( 0.132493 0.0595108 0.0922039 ) 0 
( 0.152241 0.0707908 0.0943256 ) 0 
( 0.138763 0.0992961 0.0984908 ) 0 
( 0.122751 0.0948041 0.0990777 ) 0 
( 0.195303 0.0658764 0.0995002 ) 0 
( 0.13707 0.0704705 0.0995002 ) 0 
( 0.120466 0.0953338 0.0994948 ) 0 
( 0.139189 0.0336206 0.0990051 ) 0 
( 0.189494 0.0850705 0.0886234 ) 0 
( 0.153022 0.0633159 0.0983337 ) 0 
( 0.168254 0.0213427 0.0898811 ) 0 
( 0.123767 0.0338661 0.0899795 ) 0 
( 0.14556 0.0548617 0.0978686 ) 0 
( 0.168094 0.00330776 0.0951794 ) 0 
( 0.105796 0.0171171 0.0995002 ) 0 
( 0.116449 0.0875518 0.0882309 ) 0 
( 0.137125 0.0205427 0.0990158 ) 0 
( 0.15992 0.0486356 0.0875706 ) 0 
( 0.148627 0.0598595 0.0991434 ) 0 
( 0.193941 0.0445246 0.0900681 ) 0 
( 0.191383 0.0636495 0.0923966 ) 0 
( 0.127211 0.0642222 0.0989725 ) 0 
( 0.186216 0.0587672 0.0918021 ) 0 
( 0.152491 0.0301663 0.0889148 ) 0 
( 0.12284 0.0485388 0.0868622 ) 0 
( 0.110687 0.0801442 0.0901466 ) 0 
( 0.104889 0.0676863 0.0995002 ) 0 
( 0.179975 0.08243 0.0868224 ) 0 
( 0.118654 0.0894313 0.0903515 ) 0 
( 0.144118 0.0563314 0.0884711 ) 0 
( 0.128613 0.0276654 0.0995002 ) 0 
( 0.104806 0.0762108 0.0993618 ) 0 
( 0.180816 0.0553423 0.0927441 ) 0 
( 0.166064 0.0989632 0.0974952 ) 0 
( 0.142306 0.0452496 0.0941475 ) 0 
( 0.190136 0.0796229 0.0990173 ) 0 
( 0.167247 0.0608589 0.0882653 ) 0 
( 0.173866 0.0637893 0.0882378 ) 0 
( 0.101732 0.0232347 0.0995002 ) 0 
( 0.125434 0.0300637 0.0882959 ) 0 
( 0.125351 0.0888085 0.0887708 ) 0 
( 0.196434 0.04649 0.0916415 ) 0 
( 0.107767 0.0342541 0.0980456 ) 0 
( 0.136393 0.0368428 0.0995002 ) 0 
( 0.11053 0.0560525 0.0915601 ) 0 
( 0.162645 0.0889248 0.0880896 ) 0 
( 0.149343 0.0550168 0.098958 ) 0 
( 0.103763 0.065657 0.0990315 ) 0 
( 0.146741 0.0417456 0.0905284 ) 0 
( 0.0931839 0.072316 0.0994016 ) 0 
( 0.134891 0.00502041 0.0885375 ) 0 
( 0.110688 0.0725426 0.0869304 ) 0 
( 0.103596 0.0618194 0.0990417 ) 0 
( 0.101684 0.0676563 0.097331 ) 0 
( 0.150898 0.00640756 0.0987864 ) 0 
( 0.113884 0.0177226 0.094582 ) 0 
( 0.170641 0.00330116 0.091565 ) 0 
( 0.185502 0.0896739 0.0989893 ) 0 
( 0.111489 0.050602 0.0883109 ) 0 
( 0.116154 0.0129408 0.0994136 ) 0 
( 0.134031 0.0855641 0.090403 ) 0 
( 0.197721 0.0721756 0.0876209 ) 0 
( 0.154633 0.00318098 0.0892237 ) 0 
( 0.143041 0.078428 0.0888018 ) 0 
( 0.193865 0.0817996 0.0956645 ) 0 
( 0.200847 0.0905805 0.0929012 ) 0 
( 0.125907 0.0232555 0.0990737 ) 0 
( 0.133331 0.0663108 0.0991252 ) 0 
( 0.14849 0.00884082 0.099481 ) 0 
( 0.120212 0.0369642 0.0988286 ) 0 
( 0.128423 0.0164209 0.0995002 ) 0 
( 0.100615 0.0381265 0.0995002 ) 0 
( 0.14725 0.0397067 0.0883434 ) 0 
( 0.103632 0.0579003 0.0967409 ) 0 
( 0.195846 0.0548502 0.0941103 ) 0 
( 0.177573 0.0569209 0.0990744 ) 0 
( 0.17151 0.0350737 0.0881963 ) 0 
( 0.132847 0.00596326 0.0938967 ) 0 
( 0.167722 0.0640428 0.0991543 ) 0 
( 0.102099 0.0131659 0.0990306 ) 0 
( 0.146061 0.0434438 0.0991545 ) 0 
( 0.162226 0.0590958 0.0945521 ) 0 
( 0.147291 0.0372584 0.0995002 ) 0 
( 0.195016 0.0444326 0.0995017 ) 0 
( 0.186054 0.0753129 0.0885174 ) 0 
( 0.152689 0.021471 0.0883905 ) 0 
( 0.132176 0.0605394 0.0995002 ) 0 
( 0.143453 0.0544391 0.0991194 ) 0 
( 0.199057 0.0304865 0.0884662 ) 0 
( 0.19157 0.0411839 0.090255 ) 0 
( 0.105972 0.0209378 0.0922788 ) 0 
( 0.176303 0.0371645 0.08788 ) 0 
( 0.194607 0.036246 0.0912608 ) 0 
( 0.114159 0.0468578 0.0880907 ) 0 
( 0.122571 0.0686594 0.0882725 ) 0 
( 0.15569 0.0953226 0.0994876 ) 0 
( 0.103946 0.0464505 0.0994879 ) 0 
( 0.198462 0.051073 0.0994905 ) 0 
( 0.160901 0.0703014 0.099017 ) 0 
( 0.136887 0.0333408 0.0990075 ) 0 
( 0.132947 0.055245 0.0896848 ) 0 
( 0.178039 0.0351733 0.0989709 ) 0 
( 0.185072 0.0834988 0.0994928 ) 0 
( 0.114503 0.0124529 0.0990109 ) 0 
( 0.199046 0.0192141 0.0889802 ) 0 
( 0.173847 0.0311183 0.0985173 ) 0 
( 0.176484 0.0907138 0.0933479 ) 0 
( 0.129518 0.0927457 0.0990354 ) 0 
( 0.179528 0.0445497 0.0898602 ) 0 
( 0.19032 0.0265644 0.0995002 ) 0 
( 0.198754 0.00302195 0.0995002 ) 0 
( 0.108287 0.00226098 0.0995002 ) 0 
( 0.196359 0.00881229 0.0879976 ) 0 
( 0.156262 0.0875514 0.0918026 ) 0 
( 0.193705 0.0445984 0.0990409 ) 0 
( 0.15372 0.0417794 0.0993292 ) 0 
( 0.145106 0.028898 0.0995002 ) 0 
( 0.185564 0.0793801 0.0915689 ) 0 
( 0.203696 0.0731291 0.0962747 ) 0 
( 0.170979 0.07249 0.0895393 ) 0 
( 0.129765 0.0506787 0.0885306 ) 0 
( 0.111522 0.0956838 0.0885045 ) 0 
( 0.160496 0.0251862 0.0953169 ) 0 
( 0.162976 0.0137904 0.0992942 ) 0 
( 0.176917 0.0665925 0.0989129 ) 0 
( 0.127426 0.046962 0.0995002 ) 0 
( 0.142004 0.0521654 0.0994951 ) 0 
( 0.126157 0.0407717 0.0930596 ) 0 
( 0.186383 0.0567553 0.0995002 ) 0 
( 0.143403 0.036692 0.0995001 ) 0 
( 0.174016 0.0264518 0.0994717 ) 0 
( 0.201363 0.0723253 0.0883344 ) 0 
( 0.151139 0.00983865 0.088287 ) 0 
( 0.191969 0.00447103 0.0993025 ) 0 
( 0.131697 0.00384828 0.0917179 ) 0 
( 0.123309 0.0533127 0.0961759 ) 0 
( 0.153257 0.0239897 0.0910195 ) 0 
( 0.124794 0.0168971 0.0995002 ) 0 
( 0.170112 0.0982779 0.0887534 ) 0 
( 0.122943 0.0902418 0.0959995 ) 0 
( 0.188664 0.0209035 0.0963492 ) 0 
( 0.136044 0.0181763 0.0995002 ) 0 
( 0.131905 0.0537301 0.0964246 ) 0 
( 0.126869 0.074847 0.0890301 ) 0 
( 0.192182 0.0207272 0.0994962 ) 0 
( 0.123175 0.0292276 0.0933804 ) 0 
( 0.184281 0.045194 0.0954018 ) 0 
( 0.139006 0.0524492 0.0891563 ) 0 
( 0.105832 0.0648421 0.0994643 ) 0 
( 0.158308 0.0155293 0.0995002 ) 0 
( 0.18516 0.0904059 0.0884883 ) 0 
( 0.152857 0.00809756 0.0994951 ) 0 
( 0.131703 0.053322 0.0994678 ) 0 
( 0.108081 0.087736 0.0992133 ) 0 
( 0.167765 0.0165873 0.0993981 ) 0 
( 0.152165 0.0810657 0.0994921 ) 0 
( 0.146306 0.0233324 0.0990539 ) 0 
( 0.112738 0.0125778 0.0994245 ) 0 
( 0.117535 0.0205389 0.0882544 ) 0 
( 0.188898 0.0518335 0.099203 ) 0 
( 0.164315 0.0856774 0.0995002 ) 0 
( 0.118365 0.0839354 0.0893681 ) 0 
( 0.126498 0.0814906 0.0995002 ) 0 
( 0.18127 0.0856286 0.0995002 ) 0 
( 0.133132 0.0812892 0.0885633 ) 0 
( 0.143399 0.0517026 0.0990986 ) 0 
( 0.178091 0.0758255 0.0905448 ) 0 
( 0.188671 0.0660793 0.0901265 ) 0 
( 0.14074 0.0244716 0.088148 ) 0 
( 0.144193 0.0693928 0.0995002 ) 0 
( 0.106948 0.0435005 0.097711 ) 0 
( 0.146442 0.0724793 0.0991398 ) 0 
( 0.127379 0.0932233 0.0995002 ) 0 
( 0.166573 0.069457 0.0887193 ) 0 
( 0.109364 0.0980348 0.0989838 ) 0 
( 0.117961 0.0112273 0.0995048 ) 0 
( 0.18163 0.0823515 0.0995002 ) 0 
( 0.180316 0.0853099 0.0993222 ) 0 
( 0.127018 0.0406668 0.0995002 ) 0 
( 0.144581 0.00741159 0.0976315 ) 0 
( 0.174056 0.0386186 0.0994326 ) 0 
( 0.137462 0.0841011 0.0995039 ) 0 
( 0.104347 0.0599098 0.0990198 ) 0 
( 0.101764 0.0218434 0.0975736 ) 0 
( 0.192744 0.0263306 0.0989982 ) 0 
( 0.111914 0.00946706 0.0907513 ) 0 
( 0.113283 0.0759089 0.0995002 ) 0 
( 0.169207 0.0785163 0.0891177 ) 0 
( 0.165695 0.0184494 0.0867128 ) 0 
( 0.114116 0.00580934 0.0938514 ) 0 
( 0.103656 0.052252 0.0990951 ) 0 
( 0.187132 0.052573 0.0995002 ) 0 
( 0.18347 0.0323375 0.0884594 ) 0 
( 0.173776 0.00644854 0.0992923 ) 0 
( 0.138714 0.0560138 0.0904705 ) 0 
( 0.199559 0.0816289 0.0885369 ) 0 
( 0.158287 0.0527974 0.0990247 ) 0 
( 0.116121 0.0794548 0.0965632 ) 0 
( 0.157527 0.0696504 0.0876642 ) 0 
( 0.154395 0.0558548 0.0994082 ) 0 
( 0.191958 0.0991534 0.0995002 ) 0 
( 0.111002 0.0775143 0.0980572 ) 0 
( 0.134221 0.032558 0.0995002 ) 0 
( 0.192014 0.0133147 0.0995002 ) 0 
( 0.114679 0.0541037 0.0895432 ) 0 
( 0.118771 0.0863552 0.0881426 ) 0 
( 0.186454 0.0489731 0.0995002 ) 0 
( 0.136648 0.00415686 0.0991361 ) 0 
( 0.11433 0.0146187 0.0995002 ) 0 
( 0.137462 0.0458788 0.0994745 ) 0 
( 0.154592 0.0978338 0.0995002 ) 0 
( 0.194453 0.020323 0.0995002 ) 0 
( 0.1784 0.0605113 0.097091 ) 0 
( 0.154918 0.0378829 0.0995002 ) 0 
( 0.135744 0.0954184 0.0995002 ) 0 
( 0.131523 0.0156892 0.0995002 ) 0 
( 0.158135 0.0727188 0.0901962 ) 0 
( 0.156463 0.00906814 0.0995002 ) 0 
( 0.102439 0.0413861 0.0990673 ) 0 
( 0.1069 0.0392577 0.0979422 ) 0 
( 0.144777 0.0332772 0.090106 ) 0 
( 0.14762 0.0314929 0.0881342 ) 0 
( 0.195534 0.0747557 0.0883973 ) 0 
( 0.127815 0.0330783 0.0887222 ) 0 
( 0.178698 0.071985 0.0884756 ) 0 
( 0.183464 0.029992 0.093964 ) 0 
( 0.138829 0.029588 0.0995002 ) 0 
( 0.123301 0.0695637 0.09351 ) 0 
( 0.195789 0.0280152 0.0961962 ) 0 
( 0.156973 0.00090923 0.0989589 ) 0 
( 0.150655 0.0903349 0.0876337 ) 0 
( 0.181039 0.000856497 0.088457 ) 0 
( 0.1197 0.0311746 0.0943194 ) 0 
( 0.171263 0.0985162 0.0913148 ) 0 
( 0.187017 0.013874 0.0995002 ) 0 
( 0.168897 0.0570228 0.0882124 ) 0 
( 0.106707 0.0152045 0.0968787 ) 0 
( 0.18035 0.0138556 0.092956 ) 0 
( 0.199657 0.0642872 0.0917699 ) 0 
( 0.18613 0.0109799 0.0918675 ) 0 
( 0.171529 0.00831112 0.0890442 ) 0 
( 0.101799 0.02869 0.0994879 ) 0 
( 0.28328 0.0394515 0.0994338 ) 0 
( 0.239351 0.0961687 0.088364 ) 0 
( 0.300651 0.0186303 0.0948544 ) 0 
( 0.240365 0.0523311 0.0884709 ) 0 
( 0.216824 0.0233923 0.0932663 ) 0 
( 0.207836 0.065749 0.0884928 ) 0 
( 0.281215 0.0429002 0.098515 ) 0 
( 0.270885 0.0267882 0.0885915 ) 0 
( 0.24293 0.0459443 0.0951561 ) 0 
( 0.212901 0.0659066 0.0994769 ) 0 
( 0.276754 0.0707844 0.0994864 ) 0 
( 0.281785 0.0231009 0.0971925 ) 0 
( 0.228879 0.0419702 0.0915705 ) 0 
( 0.22853 0.0222339 0.0936496 ) 0 
( 0.217361 0.0570268 0.0877269 ) 0 
( 0.215476 0.0250258 0.0995002 ) 0 
( 0.266912 0.0203229 0.0924286 ) 0 
( 0.221116 0.0210364 0.0910748 ) 0 
( 0.272449 0.0130426 0.0994507 ) 0 
( 0.261545 0.0907606 0.089001 ) 0 
( 0.272281 0.0298123 0.0884982 ) 0 
( 0.245949 0.0724098 0.0909295 ) 0 
( 0.207878 0.0385862 0.0995002 ) 0 
( 0.20505 0.00314056 0.0878417 ) 0 
( 0.249079 0.0721068 0.0950893 ) 0 
( 0.290313 0.0990318 0.0993009 ) 0 
( 0.284229 0.00577025 0.0994985 ) 0 
( 0.221745 0.0948515 0.0991123 ) 0 
( 0.209541 0.0876756 0.0989927 ) 0 
( 0.221128 0.0844743 0.0912993 ) 0 
( 0.215879 0.00413946 0.0985647 ) 0 
( 0.225248 0.0500658 0.0885028 ) 0 
( 0.239715 0.0930522 0.0993045 ) 0 
( 0.22996 0.0957675 0.0991407 ) 0 
( 0.253111 0.0615679 0.0927802 ) 0 
( 0.271278 0.0564672 0.0943509 ) 0 
( 0.274162 0.0111839 0.0887157 ) 0 
( 0.241105 0.00725329 0.0884744 ) 0 
( 0.295135 0.0882046 0.0895107 ) 0 
( 0.260555 0.0961919 0.0918988 ) 0 
( 0.284599 0.0241019 0.092508 ) 0 
( 0.223156 0.0296681 0.0867263 ) 0 
( 0.247156 0.0415722 0.0881286 ) 0 
( 0.217651 0.058307 0.0990407 ) 0 
( 0.209851 0.0364556 0.0882927 ) 0 
( 0.26894 0.00498039 0.0894664 ) 0 
( 0.277754 0.0988176 0.0887469 ) 0 
( 0.279338 0.0123517 0.0992671 ) 0 
( 0.226019 0.0402029 0.0884226 ) 0 
( 0.224064 0.0728756 0.0995002 ) 0 
( 0.281068 0.0136495 0.0991011 ) 0 
( 0.241582 0.0714799 0.096249 ) 0 
( 0.264729 0.0161962 0.0888277 ) 0 
( 0.245199 0.0671142 0.0995002 ) 0 
( 0.269194 0.0605388 0.0995002 ) 0 
( 0.239254 0.0460505 0.099278 ) 0 
( 0.28653 0.0314039 0.0995002 ) 0 
( 0.276735 0.00650774 0.0883053 ) 0 
( 0.21039 0.0548403 0.0995002 ) 0 
( 0.284495 0.0107557 0.0882516 ) 0 
( 0.225223 0.04564 0.0995006 ) 0 
( 0.215517 0.0304146 0.0936627 ) 0 
( 0.292322 0.0518695 0.0888912 ) 0 
( 0.247504 0.0713362 0.0943917 ) 0 
( 0.21891 0.00763615 0.0907552 ) 0 
( 0.287784 0.0260703 0.0961745 ) 0 
( 0.266779 0.0322393 0.0967641 ) 0 
( 0.23018 0.0236496 0.0928484 ) 0 
( 0.290195 0.00690757 0.0995002 ) 0 
( 0.229123 0.0110829 0.0990631 ) 0 
( 0.280512 0.0844697 0.0990105 ) 0 
( 0.215591 0.0654878 0.0994513 ) 0 
( 0.29133 0.0808581 0.0977238 ) 0 
( 0.214277 0.010638 0.0902159 ) 0 
( 0.269172 0.0923842 0.0995002 ) 0 
( 0.243307 0.0311332 0.0990721 ) 0 
( 0.240462 0.0617352 0.0964366 ) 0 
( 0.2359 0.0662572 0.0886675 ) 0 
( 0.266181 0.0801193 0.0994738 ) 0 
( 0.263097 0.0760904 0.0994432 ) 0 
( 0.252649 0.0801591 0.0990404 ) 0 
( 0.263892 0.0950789 0.0904894 ) 0 
( 0.241449 0.0798344 0.0992949 ) 0 
( 0.269387 0.0536621 0.0875196 ) 0 
( 0.209072 0.0732863 0.0962551 ) 0 
( 0.297694 0.0885307 0.0883224 ) 0 
( 0.21354 0.0526864 0.0989669 ) 0 
( 0.260559 0.0586466 0.0995018 ) 0 
( 0.233712 0.0409184 0.093291 ) 0 
( 0.272456 0.082611 0.0882905 ) 0 
( 0.264132 0.0525323 0.0994188 ) 0 
( 0.20693 0.0121261 0.0995002 ) 0 
( 0.204195 0.0390508 0.088498 ) 0 
( 0.278121 0.0846638 0.0884645 ) 0 
( 0.203253 0.0221887 0.0884635 ) 0 
( 0.257112 0.0940735 0.0883691 ) 0 
( 0.290967 0.0752216 0.0993785 ) 0 
( 0.213881 0.088719 0.0995002 ) 0 
( 0.216504 0.00981905 0.0924705 ) 0 
( 0.251395 0.0185275 0.0946899 ) 0 
( 0.23836 0.054042 0.0869506 ) 0 
( 0.249975 0.0406568 0.0935642 ) 0 
( 0.219064 0.0943699 0.0990578 ) 0 
( 0.29862 0.0383243 0.0995133 ) 0 
( 0.280717 0.0813004 0.0929281 ) 0 
( 0.281366 0.0214854 0.088367 ) 0 
( 0.281794 0.00356928 0.0995002 ) 0 
( 0.219351 0.0482163 0.0914672 ) 0 
( 0.209784 0.0831365 0.0906897 ) 0 
( 0.28612 0.0253014 0.0950676 ) 0 
( 0.269429 0.043021 0.0904922 ) 0 
( 0.279949 0.0520948 0.0877017 ) 0 
( 0.253188 0.00655307 0.0888495 ) 0 
( 0.248839 0.0637766 0.0963228 ) 0 
( 0.268368 0.0849033 0.0889918 ) 0 
( 0.264566 0.0515143 0.0995002 ) 0 
( 0.233311 0.0631975 0.0875408 ) 0 
( 0.279343 0.0187369 0.0995002 ) 0 
( 0.22523 0.0132197 0.0994528 ) 0 
( 0.26431 0.0896089 0.0990553 ) 0 
( 0.223549 0.0129789 0.0994583 ) 0 
( 0.222899 0.0787242 0.0995002 ) 0 
( 0.258208 0.0245434 0.0995002 ) 0 
( 0.234743 0.0504093 0.0896261 ) 0 
( 0.263814 0.0260091 0.088164 ) 0 
( 0.286196 0.0760139 0.0893752 ) 0 
( 0.252096 0.063748 0.0995002 ) 0 
( 0.207817 0.0155947 0.0995002 ) 0 
( 0.262048 0.0986828 0.0990083 ) 0 
( 0.242451 0.0254907 0.0926379 ) 0 
( 0.284625 0.0941804 0.0990812 ) 0 
( 0.244114 0.0893494 0.0886134 ) 0 
( 0.225663 0.0663651 0.0989683 ) 0 
( 0.290263 0.0794325 0.0890025 ) 0 
( 0.278091 0.0500829 0.0875154 ) 0 
( 0.214383 0.0584184 0.091216 ) 0 
( 0.211796 0.000515931 0.0990073 ) 0 
( 0.233891 0.0804198 0.0990103 ) 0 
( 0.24907 0.030622 0.0989878 ) 0 
( 0.222342 0.00858428 0.0990031 ) 0 
( 0.221634 0.0627466 0.0995001 ) 0 
( 0.258266 0.0701637 0.0992162 ) 0 
( 0.259484 0.0982731 0.0994809 ) 0 
( 0.221471 0.0762867 0.0890287 ) 0 
( 0.209386 0.0384725 0.0995002 ) 0 
( 0.207717 0.0235345 0.0995002 ) 0 
( 0.242167 0.0598012 0.0994872 ) 0 
( 0.2697 0.00799031 0.0995002 ) 0 
( 0.241402 0.0496171 0.0876851 ) 0 
( 0.29738 0.0828697 0.0995002 ) 0 
( 0.204244 0.0489255 0.0995002 ) 0 
( 0.27859 0.0567808 0.0887265 ) 0 
( 0.298411 0.0959234 0.0995002 ) 0 
( 0.257441 0.0487644 0.0994998 ) 0 
( 0.262412 0.0081742 0.0892076 ) 0 
( 0.263015 0.0971134 0.0995002 ) 0 
( 0.213186 0.00408504 0.0988075 ) 0 
( 0.282347 0.0537327 0.0867394 ) 0 
( 0.259242 0.0134152 0.0893995 ) 0 
( 0.282976 0.0330817 0.0908865 ) 0 
( 0.210274 0.00973346 0.0994977 ) 0 
( 0.216105 0.0305856 0.0995001 ) 0 
( 0.238925 0.023211 0.0886988 ) 0 
( 0.246744 0.0347048 0.0995002 ) 0 
( 0.2864 0.0485007 0.0990249 ) 0 
( 0.247771 0.0620282 0.0918584 ) 0 
( 0.273695 0.0875163 0.0941225 ) 0 
( 0.29904 0.06653 0.0918454 ) 0 
( 0.246578 0.0969283 0.0994058 ) 0 
( 0.266503 0.00176626 0.0994286 ) 0 
( 0.23175 0.0271489 0.0995002 ) 0 
( 0.211261 0.0959851 0.0957441 ) 0 
( 0.264059 0.0406691 0.088502 ) 0 
( 0.245863 0.0167239 0.0952563 ) 0 
( 0.2231 0.0909334 0.09598 ) 0 
( 0.278343 0.0927748 0.0953921 ) 0 
( 0.279767 0.0969263 0.0885982 ) 0 
( 0.282211 0.096594 0.090935 ) 0 
( 0.245592 0.0703266 0.0995002 ) 0 
( 0.206275 0.0227479 0.0954109 ) 0 
( 0.240832 0.01915 0.0906187 ) 0 
( 0.268747 0.0525883 0.0931606 ) 0 
( 0.229526 0.0039549 0.0995059 ) 0 
( 0.209824 0.00607891 0.089015 ) 0 
( 0.245221 0.0330573 0.0995002 ) 0 
( 0.236213 0.085815 0.0989879 ) 0 
( 0.269258 0.0441095 0.089873 ) 0 
( 0.224179 0.0214252 0.0991051 ) 0 
( 0.292831 0.0348763 0.0891669 ) 0 
( 0.253483 0.0175699 0.0995002 ) 0 
( 0.23184 0.0447191 0.0995002 ) 0 
( 0.20987 0.0690624 0.0995002 ) 0 
( 0.30127 0.0175735 0.0916629 ) 0 
( 0.282333 0.0770727 0.0883475 ) 0 
( 0.250976 0.0601814 0.0940833 ) 0 
( 0.24474 0.00282357 0.0919053 ) 0 
( 0.296239 0.0320113 0.0953944 ) 0 
( 0.217956 0.0220269 0.0895618 ) 0 
( 0.249401 0.0919947 0.088474 ) 0 
( 0.240494 0.0483502 0.0894182 ) 0 
( 0.2607 0.0977205 0.0995002 ) 0 
( 0.262827 0.0496329 0.094439 ) 0 
( 0.221042 0.0589329 0.0995002 ) 0 
( 0.193648 0.0384578 0.0993916 ) 0 
( 0.264097 0.0535391 0.0885796 ) 0 
( 0.218192 0.0342278 0.0995002 ) 0 
( 0.225936 0.0156663 0.0995002 ) 0 
( 0.240767 0.00377113 0.0994218 ) 0 
( 0.247316 0.0488585 0.099501 ) 0 
( 0.211463 0.0802668 0.0883544 ) 0 
( 0.247769 0.021659 0.0884885 ) 0 
( 0.301261 0.0767356 0.0887258 ) 0 
( 0.249509 0.0150046 0.0994755 ) 0 
( 0.219657 0.0767599 0.0892896 ) 0 
( 0.25816 0.0512499 0.0913782 ) 0 
( 0.206709 0.0776191 0.0989937 ) 0 
( 0.219736 0.00270818 0.0884356 ) 0 
( 0.25131 0.0537509 0.0995002 ) 0 
( 0.2355 0.0784326 0.0995002 ) 0 
( 0.207701 0.0168248 0.0883663 ) 0 
( 0.278119 0.00398461 0.0990499 ) 0 
( 0.205542 0.0841869 0.0885565 ) 0 
( 0.206488 0.0983281 0.0912201 ) 0 
( 0.22615 0.0376728 0.0989935 ) 0 
( 0.287828 0.0110004 0.0885078 ) 0 
( 0.256514 0.0391741 0.0995002 ) 0 
( 0.207578 0.00522448 0.0994982 ) 0 
( 0.279432 0.0405891 0.0935917 ) 0 
( 0.219742 0.0156961 0.0995002 ) 0 
( 0.300974 0.0202317 0.0884952 ) 0 
( 0.217902 0.0846898 0.0991529 ) 0 
( 0.237339 0.0291041 0.0967366 ) 0 
( 0.276339 0.0032649 0.0923885 ) 0 
( 0.202634 0.017086 0.0989992 ) 0 
( 0.266892 0.0409128 0.0931529 ) 0 
( 0.231303 0.0815854 0.096014 ) 0 
( 0.276738 0.00743694 0.0995002 ) 0 
( 0.256934 0.0275219 0.0975704 ) 0 
( 0.236656 0.0566199 0.0892463 ) 0 
( 0.242111 0.0825387 0.0905097 ) 0 
( 0.29618 0.0508228 0.0896125 ) 0 
( 0.282857 0.0639895 0.0971929 ) 0 
( 0.21627 0.0941493 0.0991294 ) 0 
( 0.248135 0.0460942 0.099346 ) 0 
( 0.316962 0.0937304 0.0974182 ) 0 
( 0.240386 0.0586594 0.0995002 ) 0 
( 0.269011 0.0398251 0.0957293 ) 0 
( 0.264484 0.0108646 0.0964715 ) 0 
( 0.31104 0.0413454 0.0988767 ) 0 
( 0.394368 0.0536914 0.0894297 ) 0 
( 0.377635 0.081763 0.0995002 ) 0 
( 0.313106 0.0240434 0.0884665 ) 0 
( 0.321137 0.0331592 0.0889106 ) 0 
( 0.311225 0.0285922 0.0989702 ) 0 
( 0.311562 0.0336749 0.0994744 ) 0 
( 0.34787 0.0926645 0.0995002 ) 0 
( 0.352418 0.0702852 0.0902302 ) 0 
( 0.388138 0.0903529 0.0945971 ) 0 
( 0.318544 0.0850996 0.0992909 ) 0 
( 0.310878 0.0753875 0.0993144 ) 0 
( 0.316966 0.0846565 0.0884214 ) 0 
( 0.34662 0.0426039 0.0951895 ) 0 
( 0.335985 0.0481794 0.0969266 ) 0 
( 0.388001 0.0173665 0.099053 ) 0 
( 0.320093 0.0467408 0.0884191 ) 0 
( 0.305313 0.0924584 0.0994131 ) 0 
( 0.332601 0.0964449 0.0907594 ) 0 
( 0.393173 0.0693721 0.0913115 ) 0 
( 0.374097 0.0382581 0.0995002 ) 0 
( 0.368109 0.0109364 0.0920215 ) 0 
( 0.374709 0.0605978 0.094811 ) 0 
( 0.342008 0.00298012 0.0970149 ) 0 
( 0.382218 0.0217361 0.09239 ) 0 
( 0.382881 0.00712723 0.0994709 ) 0 
( 0.331319 0.0909961 0.0994614 ) 0 
( 0.387706 0.0410785 0.0888748 ) 0 
( 0.370708 0.0155047 0.0968542 ) 0 
( 0.347676 0.0244374 0.0945452 ) 0 
( 0.340564 0.0446236 0.0995002 ) 0 
( 0.320773 0.0359121 0.096058 ) 0 
( 0.308214 0.0598141 0.0990921 ) 0 
( 0.308122 0.01737 0.090567 ) 0 
( 0.330647 0.0434932 0.0993856 ) 0 
( 0.396834 0.0429912 0.0944046 ) 0 
( 0.335585 0.0452825 0.0884212 ) 0 
( 0.36831 0.0399233 0.0886093 ) 0 
( 0.363002 0.0250842 0.0994635 ) 0 
( 0.346077 0.0200867 0.0935764 ) 0 
( 0.333504 0.0580542 0.088499 ) 0 
( 0.317048 0.0161656 0.0889499 ) 0 
( 0.388281 0.0928213 0.0939933 ) 0 
( 0.396165 0.0696456 0.0883486 ) 0 
( 0.349696 0.0379179 0.0989317 ) 0 
( 0.346506 0.0369906 0.0967983 ) 0 
( 0.352173 0.0120649 0.0882971 ) 0 
( 0.365381 0.0461662 0.0909 ) 0 
( 0.357126 0.0214986 0.0881471 ) 0 
( 0.356956 0.00146756 0.0964586 ) 0 
( 0.326352 0.0503632 0.0886418 ) 0 
( 0.326856 0.0609492 0.0995002 ) 0 
( 0.379358 0.0960971 0.0945555 ) 0 
( 0.375765 0.00869821 0.0935682 ) 0 
( 0.377778 0.0972505 0.0995002 ) 0 
( 0.383442 0.0781839 0.0964907 ) 0 
( 0.378036 0.0247692 0.0995002 ) 0 
( 0.318395 0.00317798 0.093147 ) 0 
( 0.325288 0.0077786 0.0902403 ) 0 
( 0.349373 0.0473585 0.0936423 ) 0 
( 0.377684 0.0679438 0.0963643 ) 0 
( 0.363151 0.0430514 0.0968564 ) 0 
( 0.318338 0.0862554 0.0945126 ) 0 
( 0.350857 0.0273619 0.0884948 ) 0 
( 0.323419 0.0990184 0.0878578 ) 0 
( 0.379815 0.0361157 0.0995002 ) 0 
( 0.343571 0.0362567 0.0909364 ) 0 
( 0.322284 0.0975484 0.0887654 ) 0 
( 0.293774 0.051832 0.0995002 ) 0 
( 0.327467 0.0179876 0.0990242 ) 0 
( 0.347352 0.0966971 0.0989778 ) 0 
( 0.36439 0.000875982 0.0889598 ) 0 
( 0.328244 0.0366135 0.0884517 ) 0 
( 0.323356 0.0374301 0.0994978 ) 0 
( 0.309111 0.0657493 0.0867241 ) 0 
( 0.387777 0.0328879 0.0933653 ) 0 
( 0.389612 0.0798958 0.0977379 ) 0 
( 0.327559 0.0306767 0.0895501 ) 0 