/*--------------------------------*- C++ -*----------------------------------*\
| =========                 |                                                 |
| \\      /  F ield         | OpenFOAM: The Open Source CFD Toolbox           |
|  \\    /   O peration     | Version:  2506                                  |
|   \\  /    A nd           | Website:  www.openfoam.com                      |
|    \\/     M anipulation  |                                                 |
\*---------------------------------------------------------------------------*/
FoamFile
{
    version     2.0;
    format      ascii;
    arch        "LSB;label=32;scalar=64";
    class       volScalarField;
    location    "0.06";
    object      p;
}
// * * * * * * * * * * * * * * * * * * * * * * * * * * * * * * * * * * * * * //

dimensions      [0 2 -2 0 0 0 0];

internalField   nonuniform List<scalar> 
1152
(
17.7014
17.7979
17.7843
17.7868
17.7712
17.7721
17.8294
17.6761
17.7125
17.6605
17.4655
17.5114
17.6256
17.5054
17.169
17.3983
15.7652
15.8795
15.7269
15.7155
15.7821
15.7718
15.2699
15.424
15.6467
15.5664
15.1966
15.6525
15.4522
15.6078
15.5366
15.4769
12.0687
11.9575
12.1903
12.052
12.1781
12.2144
11.9985
12.1002
12.1483
12.3533
12.5073
12.211
12.4988
12.4999
13.2333
12.4803
8.83052
8.48121
8.44643
8.36329
8.28419
8.61356
8.74293
8.6085
8.5041
8.43658
8.77869
8.373
8.57888
8.67234
8.75553
8.3286
4.94597
4.9359
4.99736
4.87804
4.79785
4.96145
5.29622
5.19524
5.29926
4.8465
5.02689
4.97996
5.01572
5.11831
5.07885
4.79
1.52795
1.5517
1.74153
1.61713
1.85291
1.70124
1.71326
1.79877
1.86936
1.73857
1.69887
1.62841
2.3308
1.83447
1.51476
1.53517
1.01157
1.01245
1.00839
1.02044
1.01813
1.00076
1.01282
1.00408
1.00221
1.01556
1.00586
1.01109
0.999315
1.00544
1.02328
1.01723
0.999921
1.00043
1.00053
1.00146
1.00028
1.00007
1.00111
1.00122
1.00014
1.00061
1.00043
1.00171
1.00048
1.00089
1.00241
1.00215
1.00717
1.00733
1.00737
1.008
1.00731
1.00709
1.00751
1.00754
1.00707
1.00804
1.00762
1.00786
1.00684
1.00788
1.00839
1.00839
1.00467
1.00482
1.00493
1.00517
1.0047
1.00478
1.00496
1.00511
1.0047
1.00505
1.00506
1.00521
1.00468
1.00504
1.00529
1.00541
1.00486
1.00497
1.00507
1.00522
1.00488
1.00498
1.00509
1.0052
1.0049
1.00506
1.00513
1.00523
1.00491
1.00508
1.00519
1.00529
1.00449
1.00456
1.00463
1.0047
1.00451
1.00458
1.00465
1.00472
1.00453
1.00461
1.00467
1.00474
1.00455
1.00464
1.0047
1.00477
1.00415
1.0042
1.00425
1.00429
1.00417
1.00421
1.00426
1.00431
1.00418
1.00423
1.00427
1.00432
1.00419
1.00425
1.00429
1.00434
1.0038
1.00383
1.00387
1.0039
1.00381
1.00384
1.00388
1.00391
1.00382
1.00386
1.00389
1.00392
1.00383
1.00387
1.0039
1.00393
1.00345
1.00347
1.00349
1.00351
1.00345
1.00348
1.0035
1.00352
1.00346
1.00348
1.00351
1.00353
1.00347
1.00349
1.00351
1.00353
1.00309
1.0031
1.00312
1.00313
1.00309
1.00311
1.00312
1.00314
1.0031
1.00311
1.00313
1.00314
1.0031
1.00312
1.00313
1.00315
1.00272
1.00274
1.00275
1.00276
1.00273
1.00274
1.00275
1.00276
1.00273
1.00274
1.00275
1.00277
1.00273
1.00275
1.00276
1.00277
1.00236
1.00237
1.00238
1.00238
1.00236
1.00237
1.00238
1.00239
1.00237
1.00237
1.00238
1.00239
1.00237
1.00238
1.00239
1.00239
1.002
1.002
1.00201
1.00202
1.002
1.00201
1.00201
1.00202
1.002
1.00201
1.00201
1.00202
1.002
1.00201
1.00202
1.00202
1.00164
1.00164
1.00164
1.00165
1.00164
1.00164
1.00165
1.00165
1.00164
1.00164
1.00165
1.00165
1.00164
1.00164
1.00165
1.00165
1.00127
1.00128
1.00128
1.00128
1.00127
1.00128
1.00128
1.00128
1.00127
1.00128
1.00128
1.00128
1.00128
1.00128
1.00128
1.00128
1.00091
1.00091
1.00091
1.00091
1.00091
1.00091
1.00091
1.00092
1.00091
1.00091
1.00091
1.00092
1.00091
1.00091
1.00091
1.00092
1.00055
1.00055
1.00055
1.00055
1.00055
1.00055
1.00055
1.00055
1.00055
1.00055
1.00055
1.00055
1.00055
1.00055
1.00055
1.00055
1.00018
1.00018
1.00018
1.00018
1.00018
1.00018
1.00018
1.00018
1.00018
1.00018
1.00018
1.00018
1.00018
1.00018
1.00018
1.00018
17.6735
17.7453
17.6832
17.4747
17.7427
17.6566
17.5645
17.5546
17.708
17.8187
17.6197
17.579
17.7071
17.801
17.749
17.717
16.0131
15.4503
15.4514
15.3471
15.629
15.6429
15.7381
15.4423
15.6622
15.4977
15.6496
15.6512
15.7406
15.6387
15.8251
15.4549
12.4756
12.086
12.0451
11.9288
12.3246
12.1419
12.0178
12.0444
12.0119
12.0498
12.067
12.0776
12.1046
12.0856
11.8568
12.0159
8.32419
8.28995
8.42148
8.64481
8.28966
8.43878
8.60394
8.69174
8.25646
8.54099
8.50523
8.46951
8.30352
8.39955
8.46656
8.45293
4.81162
4.88391
5.15775
5.20434
4.50907
4.90096
5.12965
4.94887
4.9426
4.83961
5.02763
4.96253
4.81716
4.88543
5.09475
5.0127
1.64312
2.05505
2.06046
1.8217
1.55843
1.64639
1.97589
1.87605
1.39927
1.48569
1.71165
1.6397
1.3094
1.50181
1.51397
1.71079
1.00677
1.01843
1.01296
1.02204
1.01567
1.01719
1.00685
1.00825
1.01199
1.01285
1.01714
1.02
1.01043
1.01014
1.01437
1.01633
0.99991
1.00064
1.00045
1.00133
0.999942
1.00065
1.00045
1.00092
0.999999
1.00048
1.0008
1.00145
1.00018
1.00023
1.00075
1.00102
1.00669
1.00753
1.00743
1.00842
1.00709
1.00746
1.00715
1.00797
1.00702
1.00733
1.00754
1.00816
1.00702
1.00721
1.00744
1.00807
1.00446
1.00476
1.00479
1.00513
1.00464
1.00484
1.00483
1.00512
1.00464
1.00482
1.00492
1.00513
1.00464
1.00478
1.00489
1.00508
1.0048
1.00499
1.00509
1.00535
1.00481
1.00497
1.00505
1.0053
1.00483
1.00496
1.00508
1.00528
1.00484
1.00496
1.00506
1.00525
1.00443
1.00453
1.00459
1.00471
1.00445
1.00454
1.0046
1.00471
1.00446
1.00455
1.00461
1.0047
1.00447
1.00455
1.00461
1.00469
1.00412
1.00418
1.00423
1.00431
1.00412
1.00418
1.00423
1.00431
1.00413
1.00419
1.00424
1.0043
1.00414
1.00419
1.00424
1.00429
1.00378
1.00382
1.00386
1.0039
1.00378
1.00382
1.00386
1.0039
1.00379
1.00383
1.00386
1.0039
1.00379
1.00383
1.00386
1.00389
1.00343
1.00346
1.00348
1.00351
1.00343
1.00346
1.00348
1.00351
1.00344
1.00346
1.00349
1.00351
1.00344
1.00346
1.00349
1.00351
1.00307
1.00309
1.00311
1.00313
1.00308
1.0031
1.00311
1.00313
1.00308
1.0031
1.00311
1.00313
1.00308
1.0031
1.00311
1.00313
1.00272
1.00273
1.00274
1.00276
1.00272
1.00273
1.00274
1.00276
1.00272
1.00273
1.00274
1.00276
1.00272
1.00273
1.00274
1.00275
1.00236
1.00237
1.00237
1.00238
1.00236
1.00237
1.00238
1.00238
1.00236
1.00237
1.00238
1.00238
1.00236
1.00237
1.00238
1.00238
1.00199
1.002
1.00201
1.00201
1.002
1.002
1.00201
1.00201
1.002
1.002
1.00201
1.00201
1.002
1.002
1.00201
1.00201
1.00163
1.00164
1.00164
1.00165
1.00163
1.00164
1.00164
1.00165
1.00163
1.00164
1.00164
1.00165
1.00163
1.00164
1.00164
1.00165
1.00127
1.00127
1.00128
1.00128
1.00127
1.00127
1.00128
1.00128
1.00127
1.00127
1.00128
1.00128
1.00127
1.00127
1.00128
1.00128
1.00091
1.00091
1.00091
1.00091
1.00091
1.00091
1.00091
1.00091
1.00091
1.00091
1.00091
1.00091
1.00091
1.00091
1.00091
1.00091
1.00054
1.00055
1.00055
1.00055
1.00054
1.00055
1.00055
1.00055
1.00055
1.00055
1.00055
1.00055
1.00055
1.00055
1.00055
1.00055
1.00018
1.00018
1.00018
1.00018
1.00018
1.00018
1.00018
1.00018
1.00018
1.00018
1.00018
1.00018
1.00018
1.00018
1.00018
1.00018
17.6735
17.5834
17.5403
17.4277
17.6703
17.7192
17.5827
17.3062
17.6537
17.4929
17.4245
17.4073
17.6904
17.5865
17.4617
17.468
15.3597
15.4358
15.55
15.6181
15.557
15.2201
15.1514
15.2044
15.3599
15.3695
15.301
15.26
15.0306
15.479
15.3897
14.7914
12.0507
12.1113
12.0936
11.9374
12.0521
12.0641
12.0037
12.3487
11.9486
12.178
11.8668
11.5435
11.8735
11.7368
11.868
11.5457
8.88876
8.60612
8.61736
8.67941
8.56377
8.52034
8.32064
8.33532
8.51229
8.41344
7.99347
8.16601
8.6158
8.3417
8.04173
8.27506
5.02224
5.01457
4.96272
4.6196
4.91636
4.98906
4.98185
5.05291
4.99061
5.10276
5.13811
5.35872
4.98134
4.89404
4.91988
5.12495
1.46898
1.74036
1.50162
1.61081
1.69996
1.73337
1.65984
1.31607
1.70955
1.40043
1.4376
1.48282
1.53035
1.51061
1.25741
1.36976
1.01317
1.01333
1.01143
1.0195
1.01768
1.00958
1.01908
1.01707
1.01019
1.01438
1.01975
1.0125
1.01247
1.01365
1.01075
1.01362
1.00152
1.00163
1.00175
1.00183
1.00212
1.00226
1.00287
1.00358
1.0019
1.00265
1.00344
1.00279
1.00229
1.00255
1.0029
1.0027
1.00806
1.00805
1.00809
1.00835
1.00808
1.0081
1.00847
1.00874
1.00788
1.00811
1.00847
1.00811
1.00815
1.00818
1.00823
1.00836
1.00516
1.00519
1.00522
1.00521
1.00526
1.00536
1.00551
1.00556
1.00528
1.00539
1.00552
1.00531
1.00542
1.0055
1.00556
1.00555
1.0053
1.00533
1.00535
1.00539
1.0053
1.00536
1.00542
1.00549
1.00529
1.00533
1.00537
1.00537
1.00534
1.00539
1.00543
1.00547
1.00473
1.00475
1.00476
1.00476
1.00477
1.0048
1.00484
1.00485
1.00478
1.00482
1.00484
1.00484
1.00482
1.00486
1.00489
1.0049
1.00432
1.00433
1.00434
1.00435
1.00434
1.00437
1.00439
1.0044
1.00435
1.00438
1.0044
1.0044
1.00437
1.0044
1.00442
1.00444
1.00392
1.00392
1.00393
1.00393
1.00393
1.00395
1.00396
1.00397
1.00394
1.00396
1.00397
1.00398
1.00396
1.00398
1.00399
1.004
1.00353
1.00353
1.00353
1.00354
1.00354
1.00355
1.00356
1.00356
1.00354
1.00356
1.00356
1.00357
1.00355
1.00357
1.00358
1.00359
1.00314
1.00315
1.00315
1.00315
1.00315
1.00316
1.00316
1.00317
1.00316
1.00316
1.00317
1.00317
1.00316
1.00317
1.00318
1.00318
1.00276
1.00277
1.00277
1.00277
1.00277
1.00277
1.00278
1.00278
1.00277
1.00278
1.00279
1.00279
1.00278
1.00279
1.00279
1.00279
1.00239
1.00239
1.00239
1.00239
1.00239
1.0024
1.0024
1.0024
1.0024
1.0024
1.00241
1.00241
1.0024
1.00241
1.00241
1.00241
1.00202
1.00202
1.00202
1.00202
1.00202
1.00202
1.00203
1.00203
1.00202
1.00203
1.00203
1.00203
1.00203
1.00203
1.00203
1.00203
1.00165
1.00165
1.00165
1.00165
1.00165
1.00165
1.00165
1.00166
1.00165
1.00166
1.00166
1.00166
1.00166
1.00166
1.00166
1.00166
1.00128
1.00128
1.00128
1.00128
1.00128
1.00128
1.00129
1.00129
1.00128
1.00129
1.00129
1.00129
1.00129
1.00129
1.00129
1.00129
1.00092
1.00092
1.00092
1.00092
1.00092
1.00092
1.00092
1.00092
1.00092
1.00092
1.00092
1.00092
1.00092
1.00092
1.00092
1.00092
1.00055
1.00055
1.00055
1.00055
1.00055
1.00055
1.00055
1.00055
1.00055
1.00055
1.00055
1.00055
1.00055
1.00055
1.00055
1.00055
1.00018
1.00018
1.00018
1.00018
1.00018
1.00018
1.00018
1.00018
1.00018
1.00018
1.00018
1.00018
1.00018
1.00018
1.00018
1.00018
)
;

boundaryField
{
    inlet
    {
        type            zeroGradient;
    }
    outlet
    {
        type            fixedValue;
        value           uniform 1;
    }
    wall
    {
        type            zeroGradient;
    }
    procBoundary1to0
    {
        type            processor;
        value           nonuniform List<scalar> 
192
(
18.0319
17.9656
17.8681
17.8049
15.503
15.3885
15.4189
15.792
11.3595
11.9244
11.9261
12.1251
8.55742
8.5873
8.47667
8.83044
5.05767
4.98064
5.30998
5.95021
1.8181
2.03261
1.92138
1.9458
1.00679
0.996886
1.02062
1.00262
0.999565
0.999768
1.0005
1.00002
1.00688
1.00664
1.00792
1.00733
1.00454
1.00451
1.00491
1.0048
1.00479
1.0048
1.00492
1.00493
1.00444
1.00446
1.0045
1.00452
1.00411
1.00413
1.00415
1.00416
1.00377
1.00378
1.00379
1.0038
1.00343
1.00343
1.00344
1.00345
1.00307
1.00308
1.00308
1.00308
1.00271
1.00272
1.00272
1.00272
1.00235
1.00236
1.00236
1.00236
1.00199
1.00199
1.002
1.002
1.00163
1.00163
1.00163
1.00164
1.00127
1.00127
1.00127
1.00127
1.00091
1.00091
1.00091
1.00091
1.00054
1.00054
1.00055
1.00055
1.00018
1.00018
1.00018
1.00018
17.8312
17.7131
17.716
17.8785
15.125
15.2865
15.6214
15.1694
11.7015
12.0316
11.851
11.9928
8.19078
8.39266
8.39881
8.49942
5.03291
5.04118
4.87467
4.76724
2.0938
1.798
1.40079
1.68014
1.02181
1.00754
1.01374
1.01365
0.99915
0.999144
0.999913
0.999552
1.00776
1.00691
1.00709
1.00697
1.00459
1.0045
1.00457
1.00454
1.00483
1.00476
1.00477
1.00477
1.00442
1.00442
1.00442
1.00442
1.00409
1.00409
1.00409
1.0041
1.00375
1.00375
1.00376
1.00377
1.00341
1.00341
1.00341
1.00342
1.00306
1.00306
1.00306
1.00307
1.00271
1.00271
1.00271
1.00271
1.00235
1.00235
1.00235
1.00235
1.00199
1.00199
1.00199
1.00199
1.00163
1.00163
1.00163
1.00163
1.00127
1.00127
1.00127
1.00127
1.00091
1.00091
1.00091
1.00091
1.00054
1.00054
1.00054
1.00054
1.00018
1.00018
1.00018
1.00018
)
;
    }
    procBoundary1to3
    {
        type            processor;
        value           nonuniform List<scalar> 
192
(
17.3374
17.5372
17.42
17.6887
15.4664
15.4455
15.388
14.9581
13.4257
12.5423
12.5364
12.2591
9.01842
8.08363
8.54456
9.09836
4.27942
4.8965
5.07865
4.81506
2.35001
2.26856
1.95161
1.64117
1.00186
1.01767
1.00417
1.01448
1.00142
1.00112
1.00101
1.00171
1.00682
1.00803
1.00724
1.00793
1.00473
1.0051
1.00503
1.00526
1.00495
1.0051
1.00514
1.00525
1.00457
1.00465
1.0047
1.00476
1.0042
1.00426
1.0043
1.00434
1.00384
1.00387
1.0039
1.00393
1.00347
1.0035
1.00352
1.00354
1.0031
1.00312
1.00314
1.00315
1.00274
1.00275
1.00276
1.00277
1.00237
1.00238
1.00239
1.0024
1.00201
1.00201
1.00202
1.00202
1.00164
1.00164
1.00165
1.00165
1.00128
1.00128
1.00128
1.00128
1.00091
1.00091
1.00092
1.00092
1.00055
1.00055
1.00055
1.00055
1.00018
1.00018
1.00018
1.00018
17.6218
17.5452
17.4248
17.26
15.5794
15.6322
15.0347
14.8423
11.9099
11.5927
11.823
11.7713
8.46146
8.35365
8.44596
8.52207
4.78903
4.86944
4.85384
5.31133
1.68386
1.61047
1.6623
1.78605
1.01512
1.01441
1.01792
1.0097
1.00186
1.0021
1.00228
1.00236
1.008
1.00807
1.00818
1.0078
1.00535
1.00541
1.00545
1.00527
1.00531
1.00535
1.00537
1.00536
1.00481
1.00484
1.00486
1.00485
1.00437
1.0044
1.00441
1.00442
1.00396
1.00398
1.00399
1.004
1.00356
1.00357
1.00358
1.00359
1.00317
1.00318
1.00318
1.00319
1.00278
1.00279
1.00279
1.0028
1.0024
1.00241
1.00241
1.00241
1.00203
1.00203
1.00203
1.00204
1.00166
1.00166
1.00166
1.00166
1.00129
1.00129
1.00129
1.00129
1.00092
1.00092
1.00092
1.00092
1.00055
1.00055
1.00055
1.00055
1.00018
1.00018
1.00018
1.00018
)
;
    }
}


// ************************************************************************* //
