/*--------------------------------*- C++ -*----------------------------------*\
| =========                 |                                                 |
| \\      /  F ield         | OpenFOAM: The Open Source CFD Toolbox           |
|  \\    /   O peration     | Version:  2506                                  |
|   \\  /    A nd           | Website:  www.openfoam.com                      |
|    \\/     M anipulation  |                                                 |
\*---------------------------------------------------------------------------*/
FoamFile
{
    version     2.0;
    format      ascii;
    arch        "LSB;label=32;scalar=64";
    class       volVectorField;
    location    "0.06";
    object      stored_U;
}
// * * * * * * * * * * * * * * * * * * * * * * * * * * * * * * * * * * * * * //

dimensions      [0 1 -1 0 0 0 0];

internalField   nonuniform List<vector> 
1152
(
(0.00494513 -0.00357055 0.0420709)
(-0.00170792 -0.000581288 0.0179939)
(-0.000921971 -0.00163986 0.0210135)
(0.00123058 -0.000132822 0.0159829)
(0.0012112 -0.000450057 0.0190925)
(-0.00234259 0.00051333 0.0237752)
(1.13698e-05 0.00146518 0.0113001)
(0.000948329 0.00205428 0.0166144)
(0.000835764 0.000658429 0.020945)
(0.000499965 0.00111117 0.017101)
(0.000256348 0.0046772 0.0177884)
(-0.00187858 0.00303906 0.025709)
(0.000796745 0.00160938 0.00819903)
(0.00222685 0.00105998 0.0227499)
(0.00120485 0.0023045 0.0416535)
(-0.00596094 -0.00299856 0.0289256)
(-0.0017118 -0.000136856 0.0156164)
(-0.000601962 -1.31584e-05 0.0172279)
(0.000376542 0.00379797 0.0237362)
(0.00166717 0.000254373 0.0159861)
(-0.00275196 0.00171397 0.0248512)
(0.00188779 0.00209884 0.0167528)
(0.00131698 0.00187852 0.0179876)
(-0.00237283 0.000141465 0.0310803)
(-0.00222924 0.00274402 0.0318649)
(0.000836332 0.00245874 0.0246177)
(-0.00180555 -2.62072e-05 0.0258316)
(-9.98528e-06 -0.000700158 0.0189308)
(0.000651711 -8.44957e-05 0.022682)
(-0.000703718 9.67865e-05 0.00556075)
(-0.000105161 0.000338956 0.00129104)
(0.00114209 0.00514003 0.0244779)
(-0.0061999 0.00216237 0.0722464)
(-0.00035034 -0.000262078 0.0179654)
(-0.000788006 0.000191001 0.0305295)
(-0.000304929 0.000323574 0.00480326)
(-0.00074819 0.000315812 0.0135061)
(0.000667256 -0.00115205 0.0277445)
(-0.00023067 0.00047071 0.0383468)
(-0.00147982 -0.000816685 0.0368779)
(-0.00128767 -0.000182718 0.0220874)
(-0.00123109 6.17812e-05 0.0279384)
(-0.000339515 -0.0015723 0.0271628)
(0.000726711 -0.000151881 0.0218918)
(-0.00252644 -0.00701726 0.0395814)
(-0.00103517 -0.000772991 0.0453944)
(-0.0018868 -0.000270975 0.0615566)
(0.000416186 8.78275e-05 0.00163268)
(-0.000151892 0.000117462 0.00827233)
(0.00233963 -0.000906094 0.039363)
(0.000442204 -9.69494e-05 0.0138758)
(-0.0027387 -2.1059e-05 0.0246467)
(-0.000294476 0.00186376 0.0235042)
(-0.00115865 0.00035854 0.012241)
(-0.000368294 -0.00177365 0.0477788)
(0.00106454 0.000308575 0.0309327)
(-0.000118618 -0.00122993 0.0413397)
(-0.00144881 -9.09127e-05 0.0240808)
(0.000169012 0.000878795 0.025769)
(0.000517978 0.0010672 0.0177034)
(7.69389e-05 0.000142004 0.00237225)
(-0.00162485 0.00185699 0.0318619)
(0.00121016 0.00113114 0.0290764)
(-0.000256176 -0.00203526 0.0164794)
(0.000827283 0.000792459 0.0466319)
(-6.33584e-06 -5.99665e-05 0.0215443)
(0.000398374 -0.00106842 0.037995)
(-0.000546245 -0.000687401 0.0260912)
(-0.000139348 -0.00126712 0.0367545)
(-0.00206759 0.000490835 0.0202216)
(-0.000959752 0.000174816 0.0208522)
(0.00248852 -0.000573503 0.0316914)
(0.000298358 -0.00109842 0.00644626)
(0.00126687 -0.000574314 0.040745)
(-0.000366875 0.000491449 0.0137011)
(6.8385e-05 0.00277926 0.034868)
(0.00736595 0.00734748 0.0474378)
(0.000127937 0.000234629 0.00199945)
(0.0030867 -0.00143942 0.0653796)
(0.000125319 0.00083364 0.0309056)
(0.000353127 -0.000712022 0.00375016)
(-0.00185931 -0.0015883 0.0244876)
(-0.000233989 -0.00100777 0.0127262)
(0.00321523 -0.000987449 0.0279455)
(0.00348106 -0.00400922 0.0319241)
(0.000360318 -0.000510905 0.00710389)
(-0.000537914 4.70123e-05 0.0218065)
(0.00039857 -0.000749042 0.0050123)
(0.000807035 -0.0022596 0.0136543)
(0.00171125 -0.00112513 0.0280728)
(0.000898982 0.000732576 0.0172026)
(0.000285698 0.000533727 0.0113797)
(0.00126733 -0.00461548 0.0304061)
(0.00333642 -0.00225335 0.0146343)
(0.00129286 -0.00185283 0.0184772)
(-0.000208413 -0.000201361 0.0237366)
(-0.000106775 -6.01858e-06 0.018881)
(9.73921e-05 0.000583926 0.0213143)
(-0.000142225 -0.00018473 0.0120031)
(-0.000236165 0.000387541 0.0252029)
(-0.000332487 0.000520614 0.0239639)
(5.74887e-05 0.000187667 0.00962809)
(1.79702e-05 -3.10911e-05 0.0169908)
(5.90236e-05 -0.000248277 0.00891091)
(0.000315605 0.00010563 0.0119603)
(-0.000302708 -0.000286023 0.0282054)
(0.000817031 -0.000844972 0.0102361)
(0.000454285 -0.000561505 0.0171331)
(0.000267808 -6.77082e-05 0.00948308)
(0.000165888 -0.00103328 0.0181501)
(0.00148148 -0.00264594 0.041792)
(0.00133071 -0.000364774 0.0237828)
(-0.000322899 0.000733094 0.0289265)
(0.000169285 0.000708866 0.0260736)
(-0.000179266 0.000118082 0.0210957)
(-0.000106883 3.53559e-05 0.0282404)
(0.000121619 0.000742103 0.0325291)
(-0.000222866 0.000148243 0.0204589)
(-0.000420494 2.27455e-05 0.0222729)
(-0.000352813 0.00035114 0.0166053)
(0.000105013 0.000452 0.0249059)
(-0.000495554 -3.74609e-05 0.0355906)
(0.000100888 -0.00116873 0.0253858)
(3.28641e-06 -0.000574365 0.022297)
(4.83878e-06 -0.000439189 0.0195714)
(-0.00145229 0.00034538 0.0283077)
(-0.00080241 0.000115238 0.0373322)
(0.000954007 0.000171935 0.0304237)
(0.000210167 0.000294102 0.00697503)
(0.000732635 0.00065751 0.00637712)
(0.000112528 0.000516656 0.00532073)
(-0.00029227 0.00106399 0.00626996)
(0.000200212 0.00057472 0.00718583)
(0.000618612 -0.000448753 0.00551659)
(0.000336909 -0.000202539 0.00517933)
(-0.000273575 0.000449545 0.00439856)
(0.000393844 0.00102707 0.00669166)
(-3.8352e-05 -0.000467783 0.00785276)
(0.000959207 -0.00115591 0.00624991)
(0.000277415 -0.00103135 0.00537239)
(-0.000357673 0.00108236 0.00570296)
(-0.00153269 0.000918936 0.00678975)
(-0.000302687 0.000749347 0.00874742)
(0.000529529 2.15901e-05 0.00733533)
(0.000206162 0.000179683 0.0150894)
(0.000435335 0.000229197 0.0147675)
(0.000264687 0.000108629 0.0142303)
(5.5112e-05 0.000138277 0.0144686)
(0.000170467 0.000179433 0.0150102)
(0.000342927 -0.000171838 0.0144355)
(0.000250939 -0.000164384 0.0140972)
(-7.88858e-05 -1.81308e-05 0.0137708)
(0.000213669 0.000316339 0.0149544)
(8.86078e-05 -0.000191432 0.0154312)
(0.000380181 -0.00051094 0.0146284)
(3.28051e-05 -0.000523308 0.0142146)
(-0.000141081 0.000483271 0.0143868)
(-0.000503832 0.000392956 0.0151116)
(-0.000142608 0.000215403 0.0154499)
(3.67827e-06 -4.90848e-05 0.015026)
(0.000140432 0.000130934 0.0124563)
(0.000183156 0.000149677 0.0123195)
(9.41896e-05 0.000114338 0.0120573)
(-7.93375e-05 0.00017528 0.0120402)
(0.00011622 0.000107027 0.0124065)
(0.000148156 7.30371e-07 0.0122348)
(9.3523e-05 -7.55339e-06 0.0120407)
(-8.24376e-05 5.15006e-05 0.0119195)
(0.00010297 0.000134794 0.0124532)
(6.39337e-05 -3.01793e-05 0.0125621)
(0.000124196 -0.0001457 0.0122715)
(-3.03845e-05 -0.000154843 0.0121266)
(-3.73998e-05 0.000208119 0.012281)
(-0.000145963 0.000156781 0.0124957)
(-5.9037e-05 6.46169e-05 0.012552)
(-6.88307e-05 -2.07073e-05 0.0124403)
(9.83332e-05 7.57351e-05 0.0128817)
(0.000112066 7.30959e-05 0.0128286)
(8.59416e-05 3.62713e-05 0.0127236)
(1.15721e-05 3.14638e-05 0.0127082)
(8.02902e-05 6.2316e-05 0.0128526)
(8.55725e-05 2.2278e-05 0.0127994)
(6.16637e-05 -7.34418e-07 0.0127152)
(-1.90328e-05 -2.46919e-06 0.012675)
(6.08418e-05 6.79378e-05 0.0128688)
(4.70439e-05 7.78908e-06 0.0128901)
(5.16835e-05 -4.30372e-05 0.0127897)
(-1.82323e-05 -6.23298e-05 0.0127392)
(5.56925e-06 9.6102e-05 0.0128069)
(-3.09614e-05 6.76896e-05 0.0128734)
(-1.90406e-05 2.41769e-05 0.0128749)
(-4.98977e-05 -7.62545e-06 0.012846)
(6.2758e-05 4.55704e-05 0.0128441)
(6.20751e-05 4.30093e-05 0.0128119)
(4.58965e-05 2.55525e-05 0.0127492)
(4.07206e-06 2.51426e-05 0.0127058)
(5.25661e-05 4.10387e-05 0.0128385)
(4.85107e-05 2.6193e-05 0.0128132)
(3.24945e-05 1.21337e-05 0.0127669)
(-7.19106e-06 8.45022e-06 0.0127328)
(4.09152e-05 4.10047e-05 0.012844)
(3.16628e-05 1.80629e-05 0.0128422)
(2.38633e-05 -2.80749e-06 0.0128009)
(-7.8959e-06 -1.27968e-05 0.0127724)
(1.88817e-05 4.76739e-05 0.0128199)
(2.38271e-06 3.38245e-05 0.0128384)
(-2.36623e-06 1.57647e-05 0.0128306)
(-2.42883e-05 3.97534e-06 0.012817)
(4.07825e-05 2.70908e-05 0.0128405)
(3.80159e-05 2.53829e-05 0.0128204)
(2.93996e-05 1.59481e-05 0.012782)
(8.86342e-06 1.41186e-05 0.0127427)
(3.55147e-05 2.6147e-05 0.012846)
(3.09104e-05 2.01954e-05 0.012831)
(2.11806e-05 1.2065e-05 0.0128036)
(2.10146e-06 8.49983e-06 0.0127754)
(2.95893e-05 2.50904e-05 0.0128486)
(2.32565e-05 1.63535e-05 0.0128421)
(1.57328e-05 7.1416e-06 0.0128214)
(5.36118e-07 1.74761e-06 0.0127996)
(2.08993e-05 2.52001e-05 0.0128389)
(1.22371e-05 1.91075e-05 0.0128414)
(5.40205e-06 1.18624e-05 0.0128324)
(-7.09897e-06 7.21667e-06 0.012819)
(2.72657e-05 1.63993e-05 0.0128425)
(2.46766e-05 1.55025e-05 0.0128271)
(1.95496e-05 1.05835e-05 0.012798)
(9.00221e-06 9.48126e-06 0.012759)
(2.47454e-05 1.6481e-05 0.0128536)
(2.1118e-05 1.40575e-05 0.0128423)
(1.51639e-05 9.88803e-06 0.0128219)
(5.46873e-06 7.77162e-06 0.0127942)
(2.20646e-05 1.5534e-05 0.0128573)
(1.77013e-05 1.2186e-05 0.01285)
(1.22879e-05 8.13555e-06 0.0128353)
(4.43159e-06 5.50639e-06 0.0128142)
(1.86802e-05 1.41719e-05 0.0128538)
(1.34763e-05 1.17204e-05 0.0128506)
(8.11222e-06 8.81293e-06 0.0128413)
(9.44119e-07 6.99321e-06 0.0128255)
(1.87665e-05 1.00309e-05 0.0128443)
(1.68672e-05 9.6244e-06 0.0128314)
(1.37328e-05 7.19041e-06 0.0128066)
(8.04558e-06 6.66587e-06 0.0127681)
(1.76816e-05 1.03249e-05 0.0128584)
(1.51922e-05 9.37357e-06 0.0128488)
(1.1561e-05 7.40287e-06 0.0128313)
(6.34599e-06 6.32225e-06 0.0128037)
(1.65915e-05 9.66689e-06 0.0128635)
(1.37204e-05 8.40107e-06 0.0128566)
(1.01612e-05 6.66989e-06 0.0128439)
(5.74181e-06 5.42793e-06 0.0128225)
(1.5313e-05 8.37023e-06 0.0128631)
(1.20883e-05 7.46728e-06 0.0128583)
(8.43546e-06 6.34148e-06 0.0128486)
(4.20221e-06 5.61711e-06 0.0128311)
(1.32051e-05 6.21552e-06 0.0128454)
(1.19283e-05 6.06628e-06 0.012834)
(9.95214e-06 4.9458e-06 0.0128111)
(6.72177e-06 4.76802e-06 0.0127729)
(1.28159e-05 6.50086e-06 0.0128612)
(1.12077e-05 6.18477e-06 0.0128527)
(8.95627e-06 5.33002e-06 0.0128365)
(5.92753e-06 4.85014e-06 0.0128087)
(1.24499e-05 6.10065e-06 0.0128675)
(1.06115e-05 5.65841e-06 0.0128612)
(8.32256e-06 4.95266e-06 0.0128491)
(5.64229e-06 4.41136e-06 0.0128274)
(1.20284e-05 5.15764e-06 0.0128687)
(9.99848e-06 4.87487e-06 0.0128636)
(7.62964e-06 4.47031e-06 0.0128538)
(4.99829e-06 4.194e-06 0.0128353)
(9.41352e-06 3.90992e-06 0.0128462)
(8.59392e-06 3.88461e-06 0.0128356)
(7.32174e-06 3.40599e-06 0.0128139)
(5.38348e-06 3.40884e-06 0.0127759)
(9.33365e-06 4.14182e-06 0.012863)
(8.3288e-06 4.09269e-06 0.0128552)
(6.90448e-06 3.76688e-06 0.0128396)
(5.06936e-06 3.59348e-06 0.0128119)
(9.26232e-06 3.92199e-06 0.0128701)
(8.12107e-06 3.80493e-06 0.0128642)
(6.64666e-06 3.54253e-06 0.0128525)
(4.94625e-06 3.32589e-06 0.0128307)
(9.17086e-06 3.31732e-06 0.0128722)
(7.90892e-06 3.25791e-06 0.0128672)
(6.3758e-06 3.1261e-06 0.0128574)
(4.6836e-06 3.02622e-06 0.0128385)
(6.7277e-06 2.49664e-06 0.0128468)
(6.20885e-06 2.52742e-06 0.0128367)
(5.38558e-06 2.34621e-06 0.0128156)
(4.16718e-06 2.42681e-06 0.0127779)
(6.76889e-06 2.6729e-06 0.012864)
(6.14794e-06 2.72859e-06 0.0128567)
(5.23735e-06 2.63967e-06 0.0128416)
(4.07577e-06 2.60532e-06 0.0128139)
(6.80217e-06 2.55932e-06 0.0128717)
(6.10879e-06 2.56841e-06 0.0128662)
(5.15283e-06 2.49571e-06 0.0128547)
(4.03556e-06 2.42215e-06 0.012833)
(6.81139e-06 2.22229e-06 0.0128742)
(6.05624e-06 2.22111e-06 0.0128695)
(5.05755e-06 2.18394e-06 0.0128598)
(3.93604e-06 2.1469e-06 0.0128409)
(4.76877e-06 1.61409e-06 0.0128471)
(4.44231e-06 1.66074e-06 0.0128374)
(3.90644e-06 1.60948e-06 0.0128166)
(3.11563e-06 1.71255e-06 0.0127791)
(4.84757e-06 1.74347e-06 0.0128647)
(4.45842e-06 1.82486e-06 0.0128577)
(3.87936e-06 1.82909e-06 0.0128428)
(3.12697e-06 1.85432e-06 0.0128153)
(4.91152e-06 1.68225e-06 0.0128727)
(4.4821e-06 1.7304e-06 0.0128674)
(3.86538e-06 1.7332e-06 0.0128562)
(3.12055e-06 1.71676e-06 0.0128345)
(4.94155e-06 1.50068e-06 0.0128754)
(4.48959e-06 1.51776e-06 0.012871)
(3.84211e-06 1.51401e-06 0.0128614)
(3.08875e-06 1.49836e-06 0.0128425)
(3.30516e-06 1.04421e-06 0.0128472)
(3.10044e-06 1.0871e-06 0.0128378)
(2.75613e-06 1.08887e-06 0.0128173)
(2.24179e-06 1.18301e-06 0.0127799)
(3.38586e-06 1.13633e-06 0.012865)
(3.13927e-06 1.20752e-06 0.0128583)
(2.77531e-06 1.24108e-06 0.0128436)
(2.28532e-06 1.28398e-06 0.0128162)
(3.45366e-06 1.10842e-06 0.0128732)
(3.17409e-06 1.15365e-06 0.0128681)
(2.78644e-06 1.17526e-06 0.0128571)
(2.29331e-06 1.18042e-06 0.0128355)
(3.49622e-06 9.78032e-07 0.0128761)
(3.19234e-06 1.01387e-06 0.0128719)
(2.78544e-06 1.02622e-06 0.0128625)
(2.28718e-06 1.01978e-06 0.0128436)
(2.18957e-06 6.57648e-07 0.0128472)
(2.06751e-06 6.91138e-07 0.012838)
(1.85392e-06 7.09038e-07 0.0128177)
(1.52862e-06 7.83016e-07 0.0127804)
(2.25563e-06 7.21077e-07 0.0128651)
(2.10461e-06 7.71536e-07 0.0128586)
(1.88302e-06 8.06471e-07 0.0128441)
(1.57582e-06 8.46781e-07 0.0128168)
(2.31398e-06 7.17312e-07 0.0128734)
(2.13248e-06 7.46285e-07 0.0128686)
(1.89941e-06 7.65122e-07 0.0128576)
(1.58587e-06 7.75596e-07 0.0128362)
(2.36621e-06 6.01546e-07 0.0128765)
(2.14315e-06 6.46085e-07 0.0128724)
(1.90079e-06 6.64076e-07 0.0128631)
(1.5856e-06 6.65917e-07 0.0128444)
(1.33708e-06 3.73643e-07 0.0128472)
(1.27059e-06 3.99412e-07 0.0128382)
(1.1476e-06 4.1857e-07 0.0128179)
(9.59443e-07 4.68689e-07 0.0127807)
(1.38147e-06 4.11182e-07 0.0128652)
(1.29856e-06 4.43947e-07 0.0128588)
(1.17179e-06 4.70531e-07 0.0128444)
(9.91946e-07 5.00693e-07 0.0128172)
(1.42118e-06 4.18197e-07 0.0128736)
(1.31703e-06 4.33866e-07 0.0128688)
(1.18556e-06 4.46453e-07 0.012858)
(1.00139e-06 4.55805e-07 0.0128366)
(1.46616e-06 3.34673e-07 0.0128766)
(1.32083e-06 3.67954e-07 0.0128727)
(1.18565e-06 3.83414e-07 0.0128635)
(1.00209e-06 3.87633e-07 0.0128448)
(6.78962e-07 1.45173e-07 0.0128473)
(6.45163e-07 1.67021e-07 0.0128382)
(5.82391e-07 1.85675e-07 0.0128181)
(4.92473e-07 2.18442e-07 0.0127809)
(7.01818e-07 1.55719e-07 0.0128653)
(6.63125e-07 1.76762e-07 0.0128589)
(5.9852e-07 1.95683e-07 0.0128446)
(5.08418e-07 2.17393e-07 0.0128174)
(7.20931e-07 1.56615e-07 0.0128736)
(6.76168e-07 1.67576e-07 0.012869)
(6.09868e-07 1.78509e-07 0.0128582)
(5.18009e-07 1.8964e-07 0.0128368)
(7.42778e-07 1.23327e-07 0.0128767)
(6.80763e-07 1.37276e-07 0.0128729)
(6.13838e-07 1.46472e-07 0.0128638)
(5.22381e-07 1.52775e-07 0.0128451)
(0.000590148 -0.00156666 0.0262398)
(-0.000486797 0.000348123 0.0122365)
(7.22018e-05 0.00093885 0.0121935)
(0.00203648 -0.000696251 0.0215123)
(0.000188367 7.70835e-06 0.015483)
(0.00155201 -0.000705577 0.0231062)
(-0.00027749 0.00162489 0.0307992)
(0.000476822 -0.00216043 0.0190573)
(-0.00174131 0.000858001 0.0187881)
(0.000124462 -0.00059003 0.0109611)
(0.00308723 -0.00243564 0.0236609)
(0.00128266 -0.00449899 0.0251185)
(0.000368879 -0.000188877 0.0262002)
(-0.00162087 -0.00016643 0.021596)
(0.000461865 -0.00240546 0.0181923)
(0.000506459 -0.00116819 0.00905545)
(-0.00159341 0.0027931 0.0187203)
(0.00243326 -0.00102277 0.0291144)
(0.00118373 -0.00128885 0.0236693)
(-0.000151901 -0.00209274 0.0355902)
(-0.00236981 0.00293921 0.0200512)
(-0.000317117 -0.000206764 0.0306263)
(0.00108238 -0.000707811 0.0217552)
(0.00128305 -0.00177845 0.0186028)
(0.000199253 0.00117114 0.034989)
(-7.95453e-05 0.000916927 0.0209303)
(-0.000720566 -0.000596125 0.0265135)
(0.00114263 0.000668204 0.022621)
(-0.00427787 -0.000856966 0.0305713)
(-2.24391e-05 -0.000277624 0.0118929)
(0.000258821 0.000788648 0.0172613)
(0.00179519 0.00159747 0.0250508)
(-0.00136624 0.00096487 0.0227055)
(0.00145879 -0.00012556 0.0317831)
(9.72401e-05 0.000283412 0.0260851)
(0.00116118 -0.000558033 0.0392383)
(-0.000279389 0.00282933 0.0300338)
(0.00134885 0.000218517 0.0222283)
(0.000842445 -5.76661e-05 0.0375002)
(0.000298785 -0.00142661 0.0374968)
(-0.000685596 0.000550986 0.022867)
(-8.74812e-05 0.000848319 0.0274262)
(-0.000553476 0.00196322 0.0426067)
(-0.000629914 0.00131796 0.0132822)
(-0.00012936 0.000323695 0.00140599)
(0.00303012 0.00229186 0.0453745)
(-9.1546e-05 0.00084077 0.00546028)
(-0.00343677 -7.55006e-05 0.0465545)
(-0.000453032 -0.000105352 0.00639722)
(-0.000198383 -0.00107463 0.0354197)
(-0.000624486 -0.00132152 0.0231394)
(-0.00181744 -0.00177409 0.0529183)
(-0.000242633 -0.000182738 0.00847102)
(-0.00159575 -0.00228689 0.0350773)
(-0.00122365 -0.0015256 0.0370454)
(-9.21252e-05 0.00106611 0.0120234)
(-0.000745024 -0.000908 0.0430346)
(-0.00083006 9.23567e-05 0.0268678)
(-0.000358859 0.00103751 0.0214547)
(-0.000995495 0.00177472 0.0241358)
(0.000480297 -0.00253248 0.0213012)
(0.000140128 -5.60665e-05 0.00609297)
(-0.000518028 0.00120112 0.0441123)
(-0.00191654 -0.000320619 0.0310403)
(0.000186604 0.000951447 0.0215808)
(-0.00162185 -0.000583411 0.0373712)
(-0.00122047 -0.000171827 0.0372155)
(-5.53272e-06 0.00358479 0.036377)
(0.00050627 -0.00111169 0.0310142)
(-0.00245125 -0.000187146 0.0224681)
(-0.00022287 0.000906857 0.0192421)
(-0.000394926 0.00161942 0.0230105)
(0.000677362 -0.00268015 0.0408531)
(-0.000144426 -0.000134028 0.014776)
(-0.00138701 0.000398315 0.042439)
(0.00030284 -0.000308021 0.0251725)
(-7.59547e-05 1.91837e-05 0.0233451)
(-0.00223249 -0.00135373 0.0474877)
(-0.000397936 -8.48288e-05 0.00865137)
(0.000787718 0.00159564 0.0520571)
(-0.000175188 1.43491e-05 0.000594538)
(-0.0042167 0.00333952 0.0280819)
(8.84646e-05 0.000509094 0.011873)
(0.00206864 0.000828447 0.0236919)
(0.00118361 0.00217113 0.0285692)
(-0.00275265 0.00301801 0.0177813)
(-0.00234352 0.00225495 0.0206886)
(0.00106516 0.00360478 0.0234947)
(-0.000106476 0.000767796 0.0103356)
(-0.00199393 0.000622989 0.0211254)
(-0.00165329 0.0023171 0.0152795)
(-0.000850467 0.00108419 0.0173141)
(0.000858313 -0.000778988 0.0151702)
(-0.00045782 -0.000334773 0.00725851)
(-0.00139902 -0.000654949 0.0198942)
(0.000125526 2.19947e-05 0.0131824)
(0.000394589 -0.000397277 0.00792991)
(-0.000217365 -5.72389e-05 0.0131342)
(-0.000301034 6.01012e-05 0.0159415)
(-0.000652959 0.000252147 0.0242237)
(-0.000435262 -0.000534679 0.0244138)
(5.16134e-05 0.000130344 0.0221708)
(-0.000290342 -0.000223609 0.00901478)
(-0.000353292 -0.000396879 0.00827935)
(0.000393695 0.00036759 0.021307)
(0.000241291 0.000235382 0.0184184)
(3.52865e-05 -0.000210569 0.0212447)
(0.000116537 -0.000424633 0.0270039)
(0.000176219 -0.000285835 0.0205676)
(9.39327e-05 -0.000266345 0.018335)
(-1.43009e-05 0.000541577 0.0186762)
(-5.59958e-05 -0.00022265 0.0183417)
(0.000451839 -0.000545892 0.0209866)
(0.000362777 -0.000381708 0.0251936)
(-0.000456276 -0.000391653 0.02313)
(-0.000690572 -0.000217227 0.0300986)
(0.000178833 -0.000992338 0.0305725)
(0.000833304 -0.00061747 0.0287366)
(0.000202334 -0.000679815 0.0195108)
(-0.000343804 -0.000605701 0.0219307)
(0.000600072 -0.000334848 0.027703)
(0.000618739 -0.000154283 0.0267668)
(0.000166633 -0.000791172 0.0268471)
(8.17978e-05 -0.000686919 0.0277449)
(0.000109527 0.000451724 0.0259379)
(0.000495831 0.00010179 0.0251168)
(8.89366e-05 1.44797e-05 0.025402)
(1.00831e-05 -0.000294297 0.0275356)
(0.00130884 -0.000359322 0.00567499)
(0.000269106 9.12177e-05 0.00580801)
(-0.000291471 8.63867e-05 0.00513846)
(-0.000822044 0.00014416 0.00690748)
(0.000422945 -0.000238488 0.00717346)
(0.000794005 0.000428612 0.00673969)
(0.000268902 -9.11626e-05 0.00493165)
(-0.000783225 0.000172219 0.00583242)
(0.000533964 0.000368079 0.00706898)
(0.00036859 0.000635117 0.00674229)
(0.000166918 -0.000265697 0.00616617)
(-0.000220275 2.15416e-05 0.00644032)
(0.000426265 0.00024076 0.00684313)
(0.000387709 0.000557725 0.00643023)
(-5.93542e-05 0.000475798 0.00613364)
(-0.000293909 0.000481581 0.0064413)
(0.000647028 -0.000150025 0.01451)
(0.00039686 1.67679e-05 0.0148735)
(0.000166946 -1.61461e-05 0.0141758)
(-0.000235326 -0.000102289 0.0150551)
(0.000333342 -0.000139217 0.0151039)
(0.000553856 8.98226e-05 0.0150916)
(0.000382499 -0.000116124 0.0141097)
(-0.000179222 -6.37776e-05 0.0146886)
(0.000329191 0.000145905 0.0150893)
(0.000411506 0.000281581 0.0150392)
(0.000359537 -4.44964e-05 0.014551)
(-3.82548e-05 8.78997e-06 0.0147737)
(0.000278668 0.000146259 0.0149873)
(0.000389731 0.000264026 0.0148288)
(0.000297749 0.000156412 0.0144981)
(1.82479e-05 8.12108e-05 0.0146941)
(0.000282467 1.73658e-05 0.0119491)
(0.000133053 8.15812e-05 0.0120289)
(1.41227e-05 3.54034e-05 0.0116081)
(-0.000166042 -1.81857e-05 0.0118763)
(0.00018402 4.60467e-05 0.0122914)
(0.000172787 0.000152126 0.0122515)
(5.87572e-05 3.56997e-05 0.0117713)
(-0.000188688 6.18301e-05 0.01191)
(0.000171651 8.37632e-05 0.0124038)
(0.000150776 0.000169337 0.0123278)
(7.6745e-05 2.31225e-05 0.0119887)
(-0.000128196 8.67793e-05 0.011982)
(0.000155371 9.78786e-05 0.0124178)
(0.000154192 0.000168215 0.0123068)
(7.09592e-05 0.00010492 0.0120565)
(-9.37829e-05 0.000146335 0.012009)
(0.000151923 -5.89382e-07 0.0125709)
(0.000110134 3.60737e-05 0.0126408)
(8.29273e-05 2.19927e-05 0.0124392)
(-3.07727e-05 -1.54209e-05 0.0125855)
(0.000124588 7.70969e-06 0.0127242)
(0.000123003 6.29808e-05 0.0127434)
(0.000101154 1.48858e-05 0.012538)
(-2.71153e-05 1.11008e-05 0.0126368)
(0.000115634 4.20937e-05 0.0128224)
(0.000117639 9.09496e-05 0.0128079)
(0.000101494 2.92851e-05 0.0126562)
(-1.3722e-05 3.60471e-05 0.0126871)
(0.000108407 6.20372e-05 0.0128636)
(0.000116968 9.46389e-05 0.0128256)
(9.69218e-05 5.21934e-05 0.0127137)
(3.6406e-06 5.08326e-05 0.0127103)
(8.00099e-05 4.06987e-06 0.0125207)
(5.65326e-05 2.41993e-05 0.0125407)
(4.20232e-05 1.66067e-05 0.0123999)
(-1.44582e-05 6.67988e-08 0.0124211)
(7.46814e-05 1.0271e-05 0.0126731)
(6.30694e-05 4.08685e-05 0.0126694)
(4.87927e-05 1.75964e-05 0.0125335)
(-1.38412e-05 1.7774e-05 0.012526)
(7.10371e-05 2.48958e-05 0.012772)
(6.43288e-05 4.98909e-05 0.0127502)
(5.04955e-05 2.10838e-05 0.0126405)
(-5.89246e-06 2.57867e-05 0.0126054)
(6.78861e-05 3.80782e-05 0.0128225)
(6.49663e-05 5.29699e-05 0.0127915)
(4.92918e-05 3.27351e-05 0.0127093)
(2.16208e-06 3.59008e-05 0.0126611)
(4.62515e-05 3.45663e-06 0.012526)
(3.57125e-05 1.44971e-05 0.0125307)
(2.99357e-05 1.20151e-05 0.0124494)
(5.1027e-07 3.38005e-06 0.0124468)
(4.59104e-05 7.7348e-06 0.0126648)
(3.87898e-05 2.33496e-05 0.0126551)
(3.27407e-05 1.27086e-05 0.0125755)
(2.2799e-06 1.10147e-05 0.0125529)
(4.46857e-05 1.5401e-05 0.0127598)
(3.98364e-05 2.75851e-05 0.0127406)
(3.28622e-05 1.44394e-05 0.012674)
(5.2303e-06 1.48474e-05 0.0126363)
(4.34071e-05 2.31956e-05 0.0128143)
(4.00464e-05 3.02285e-05 0.0127923)
(3.18976e-05 2.08131e-05 0.012741)
(8.33817e-06 2.13726e-05 0.0126967)
(2.80599e-05 2.61841e-06 0.012528)
(2.30885e-05 8.75488e-06 0.0125215)
(1.94688e-05 8.07323e-06 0.0124665)
(4.16856e-06 4.47598e-06 0.0124459)
(2.89403e-05 5.62933e-06 0.012663)
(2.4867e-05 1.37463e-05 0.0126482)
(2.12388e-05 9.04189e-06 0.0125923)
(5.80937e-06 8.51518e-06 0.0125569)
(2.87733e-05 9.93677e-06 0.0127565)
(2.55443e-05 1.60853e-05 0.0127376)
(2.13297e-05 1.00744e-05 0.0126885)
(7.3502e-06 1.01657e-05 0.0126446)
(2.84274e-05 1.43918e-05 0.0128129)
(2.5749e-05 1.80952e-05 0.0127945)
(2.09158e-05 1.38351e-05 0.0127552)
(8.66722e-06 1.41142e-05 0.012709)
(1.79129e-05 1.88636e-06 0.0125288)
(1.54075e-05 5.45539e-06 0.0125172)
(1.31422e-05 5.66128e-06 0.012476)
(5.0451e-06 4.26276e-06 0.0124493)
(1.88994e-05 3.92373e-06 0.0126623)
(1.65942e-05 8.34403e-06 0.0126454)
(1.43588e-05 6.50085e-06 0.0126013)
(6.37249e-06 6.3714e-06 0.0125617)
(1.90706e-05 6.40503e-06 0.0127551)
(1.70529e-05 9.7006e-06 0.0127369)
(1.45072e-05 7.0918e-06 0.0126964)
(7.20565e-06 7.09395e-06 0.0126508)
(1.91534e-05 8.98372e-06 0.0128126)
(1.73062e-05 1.11499e-05 0.0127963)
(1.43773e-05 9.45196e-06 0.0127628)
(7.73081e-06 9.62149e-06 0.0127164)
(1.18886e-05 1.32983e-06 0.0125287)
(1.05254e-05 3.51131e-06 0.0125149)
(9.02084e-06 4.00899e-06 0.0124809)
(4.61471e-06 3.64286e-06 0.0124513)
(1.27005e-05 2.67513e-06 0.0126616)
(1.13824e-05 5.22122e-06 0.0126441)
(9.91992e-06 4.69209e-06 0.0126058)
(5.64155e-06 4.80792e-06 0.0125645)
(1.29801e-05 4.1376e-06 0.0127543)
(1.17402e-05 6.01852e-06 0.0127367)
(1.01314e-05 5.0284e-06 0.0127005)
(6.16775e-06 5.07527e-06 0.0126543)
(1.32308e-05 5.66502e-06 0.0128125)
(1.20191e-05 7.03128e-06 0.0127974)
(1.01762e-05 6.55475e-06 0.0127668)
(6.39588e-06 6.71706e-06 0.0127205)
(8.09461e-06 9.28352e-07 0.0125284)
(7.33863e-06 2.3226e-06 0.0125139)
(6.30932e-06 2.86001e-06 0.0124836)
(3.81722e-06 2.90778e-06 0.0124529)
(8.72937e-06 1.81189e-06 0.0126611)
(7.97534e-06 3.35331e-06 0.0126436)
(6.98276e-06 3.37663e-06 0.0126084)
(4.59855e-06 3.56962e-06 0.0125665)
(9.00886e-06 2.69259e-06 0.0127539)
(8.2638e-06 3.83115e-06 0.0127368)
(7.2073e-06 3.56991e-06 0.0127029)
(4.95648e-06 3.64806e-06 0.0126565)
(9.29604e-06 3.61766e-06 0.0128125)
(8.53268e-06 4.52879e-06 0.0127982)
(7.33457e-06 4.56943e-06 0.0127692)
(5.07035e-06 4.73666e-06 0.0127231)
(5.59353e-06 6.49787e-07 0.0125282)
(5.16066e-06 1.56836e-06 0.0125135)
(4.4454e-06 2.04277e-06 0.0124851)
(2.98408e-06 2.23606e-06 0.0124541)
(6.06997e-06 1.2318e-06 0.0126608)
(5.63223e-06 2.20467e-06 0.0126434)
(4.94737e-06 2.42186e-06 0.0126099)
(3.56578e-06 2.63392e-06 0.0125679)
(6.31153e-06 1.77334e-06 0.0127537)
(5.86293e-06 2.49469e-06 0.012737)
(5.15607e-06 2.53612e-06 0.0127043)
(3.8212e-06 2.64037e-06 0.012658)
(6.57301e-06 2.34348e-06 0.0128125)
(6.09741e-06 2.97134e-06 0.0127988)
(5.31048e-06 3.19434e-06 0.0127706)
(3.89104e-06 3.36037e-06 0.0127247)
(3.86971e-06 4.53394e-07 0.012528)
(3.61582e-06 1.06888e-06 0.0125134)
(3.12553e-06 1.45171e-06 0.012486)
(2.23998e-06 1.66374e-06 0.0124549)
(4.21824e-06 8.39641e-07 0.0126606)
(3.95945e-06 1.47119e-06 0.0126434)
(3.49111e-06 1.72414e-06 0.0126109)
(2.66331e-06 1.91099e-06 0.0125689)
(4.41014e-06 1.17869e-06 0.0127535)
(4.13815e-06 1.65014e-06 0.0127372)
(3.66552e-06 1.79137e-06 0.0127052)
(2.8463e-06 1.89332e-06 0.0126591)
(4.62382e-06 1.53411e-06 0.0128126)
(4.32756e-06 1.97189e-06 0.0127992)
(3.81039e-06 2.22516e-06 0.0127715)
(2.89373e-06 2.36698e-06 0.0127258)
(2.63711e-06 3.10719e-07 0.0125278)
(2.48636e-06 7.22119e-07 0.0125133)
(2.15969e-06 1.01187e-06 0.0124866)
(1.61415e-06 1.19245e-06 0.0124555)
(2.88264e-06 5.65204e-07 0.0126604)
(2.72938e-06 9.78412e-07 0.0126435)
(2.41691e-06 1.20089e-06 0.0126114)
(1.91199e-06 1.34678e-06 0.0125696)
(3.02513e-06 7.77832e-07 0.0127534)
(2.86131e-06 1.08957e-06 0.0127373)
(2.5512e-06 1.2386e-06 0.0127057)
(2.03984e-06 1.32409e-06 0.0126598)
(3.18701e-06 1.00113e-06 0.0128125)
(3.00445e-06 1.30265e-06 0.0127994)
(2.66917e-06 1.52122e-06 0.0127721)
(2.07462e-06 1.63227e-06 0.0127265)
(1.73091e-06 2.04104e-07 0.0125277)
(1.6435e-06 4.72711e-07 0.0125133)
(1.43553e-06 6.77082e-07 0.0124869)
(1.10209e-06 8.11587e-07 0.0124559)
(1.89395e-06 3.65558e-07 0.0126602)
(1.80562e-06 6.30295e-07 0.0126435)
(1.60596e-06 7.98868e-07 0.0126117)
(1.30026e-06 9.03312e-07 0.0125701)
(1.99115e-06 4.95307e-07 0.0127533)
(1.89629e-06 6.96562e-07 0.0127374)
(1.70077e-06 8.17997e-07 0.0127061)
(1.3866e-06 8.82837e-07 0.0126602)
(2.10376e-06 6.32568e-07 0.0128125)
(1.99665e-06 8.31912e-07 0.0127996)
(1.78645e-06 9.94175e-07 0.0127724)
(1.41217e-06 1.0752e-06 0.012727)
(1.06139e-06 1.23676e-07 0.0125276)
(1.01317e-06 2.89747e-07 0.0125133)
(8.90355e-07 4.21908e-07 0.0124871)
(6.96476e-07 5.11723e-07 0.0124562)
(1.1539e-06 2.13435e-07 0.0126601)
(1.10662e-06 3.7319e-07 0.0126435)
(9.90012e-07 4.85235e-07 0.0126119)
(8.14023e-07 5.54325e-07 0.0125703)
(1.21343e-06 2.84496e-07 0.0127532)
(1.16211e-06 4.06221e-07 0.0127375)
(1.04863e-06 4.90846e-07 0.0127063)
(8.67918e-07 5.3515e-07 0.0126605)
(1.2827e-06 3.60085e-07 0.0128124)
(1.22482e-06 4.79383e-07 0.0127996)
(1.10326e-06 5.83223e-07 0.0127726)
(8.87983e-07 6.3645e-07 0.0127272)
(5.64058e-07 6.24592e-08 0.0125275)
(5.34335e-07 1.53669e-07 0.0125133)
(4.66121e-07 2.25611e-07 0.0124872)
(3.6784e-07 2.73695e-07 0.0124564)
(5.96228e-07 9.25892e-08 0.0126601)
(5.67618e-07 1.74978e-07 0.0126435)
(5.04012e-07 2.36409e-07 0.0126121)
(4.16626e-07 2.76437e-07 0.0125705)
(6.20873e-07 1.15572e-07 0.0127531)
(5.91707e-07 1.77833e-07 0.0127375)
(5.3094e-07 2.25822e-07 0.0127064)
(4.45812e-07 2.57184e-07 0.0126607)
(6.52173e-07 1.40091e-07 0.0128124)
(6.21381e-07 1.9507e-07 0.0127997)
(5.58379e-07 2.44209e-07 0.0127728)
(4.6328e-07 2.81176e-07 0.0127274)
(0.00398111 -0.00105814 0.0265062)
(0.00182978 -0.00366589 0.0222518)
(0.00151013 -0.0021601 0.0160338)
(0.00307457 -0.000868713 0.0287519)
(-0.0005751 -0.000743292 0.0263166)
(0.000528337 0.000170687 0.0122981)
(0.000829379 1.8086e-05 0.00315437)
(0.0029143 -0.00195724 0.0166894)
(0.0010147 -0.000729402 0.0168279)
(0.00297016 0.00034918 0.01742)
(0.00148877 0.000886316 0.0252553)
(-0.000233324 -0.00116609 0.0168225)
(-0.000388792 0.000223886 0.00795046)
(0.00307388 -0.000446516 0.0212121)
(0.0015499 -0.000109151 0.023988)
(-0.000137375 0.00124781 0.0227312)
(0.000362727 -0.000120806 0.00473402)
(-0.00110997 0.00320716 0.0366094)
(-0.000882849 0.00165275 0.0137155)
(-0.000101203 0.00155301 0.0181114)
(0.000913798 -5.40558e-07 0.0153661)
(0.00184175 -0.000103897 0.0181612)
(0.000339745 0.000888648 0.0403486)
(0.000220934 0.00202389 0.0434083)
(0.00161399 0.00174099 0.0133128)
(7.16059e-05 -0.00257619 0.0446602)
(0.000500196 -0.00113806 0.0206712)
(0.000550921 0.00165818 0.0321638)
(6.91211e-05 -0.000624201 0.0215201)
(-6.19664e-05 -0.000420164 0.00673015)
(0.00361597 0.00085334 0.0235789)
(0.00142717 0.000545595 0.00982609)
(-0.00264311 -0.000105445 0.0569953)
(-0.00019137 -0.00018013 0.0352302)
(0.000717211 -0.0004575 0.0149681)
(2.13119e-05 -0.00262957 0.0361777)
(-0.000371181 0.000476143 0.0301037)
(-0.000613288 -0.00122824 0.0376641)
(-0.000825071 0.000249386 0.0159331)
(-0.00203675 0.00187715 0.0328343)