/*--------------------------------*- C++ -*----------------------------------*\
| =========                 |                                                 |
| \\      /  F ield         | OpenFOAM: The Open Source CFD Toolbox           |
|  \\    /   O peration     | Version:  2506                                  |
|   \\  /    A nd           | Website:  www.openfoam.com                      |
|    \\/     M anipulation  |                                                 |
\*---------------------------------------------------------------------------*/
FoamFile
{
    version     2.0;
    format      ascii;
    arch        "LSB;label=32;scalar=64";
    class       volVectorField;
    location    "0.06";
    object      U;
}
// * * * * * * * * * * * * * * * * * * * * * * * * * * * * * * * * * * * * * //

dimensions      [0 1 -1 0 0 0 0];

internalField   nonuniform List<vector> 
1152
(
(0.00631216 -0.00184084 0.0418708)
(-0.00087113 0.000344783 0.0179388)
(4.12244e-05 -0.000408201 0.0208409)
(0.00155214 0.000817766 0.0158093)
(0.00216231 0.000274865 0.0191918)
(-0.000796938 0.00209744 0.0231476)
(0.000551835 0.00258934 0.0111989)
(0.00111174 0.00335109 0.0162879)
(0.00241547 0.00202234 0.0203079)
(0.00240346 0.00277652 0.0163424)
(0.00103247 0.00762134 0.0175472)
(-0.0030739 0.00522501 0.0252199)
(0.00176291 0.00219976 0.00812118)
(0.00591046 0.00168614 0.0192889)
(0.00221328 0.00215552 0.033216)
(-0.0096925 -0.00345541 0.0281283)
(-0.00165146 -2.37168e-05 0.0155413)
(-0.000628663 0.000154991 0.016615)
(0.000629328 0.00418898 0.0233231)
(0.0017924 0.000466196 0.0156444)
(-0.002542 0.00171874 0.0249494)
(0.00219694 0.00236743 0.0164641)
(0.00157581 0.00277632 0.017412)
(-0.00210018 0.000855077 0.030391)
(-0.00156691 0.00299914 0.0318136)
(0.00189142 0.00168854 0.0229505)
(-0.00100471 -0.000896151 0.0236547)
(-0.000346594 -0.000170945 0.0180091)
(0.000590992 0.00102808 0.0197074)
(-0.000872289 0.000123856 0.00491544)
(-0.000214714 0.000296264 0.00151263)
(0.00255949 0.00445151 0.0223037)
(-0.00817698 -0.000451027 0.0722688)
(-0.000137557 -0.000228269 0.0179876)
(-0.000395935 -0.000233335 0.0299356)
(-0.000426184 0.000295423 0.00479709)
(-0.00087924 0.000129357 0.0128156)
(0.000787315 -0.00185668 0.0273891)
(0.000413733 -0.00155359 0.0373669)
(-0.000522366 -0.00142133 0.0360846)
(-0.0017072 -0.000742758 0.0212701)
(-0.00212758 -0.00143811 0.0262839)
(0.000581416 -0.00559739 0.0263733)
(0.00198489 -0.00127718 0.0209892)
(-0.00265347 -0.00887621 0.0371003)
(-0.00567845 -0.00134841 0.0417045)
(-0.000985429 -0.000728144 0.0601799)
(1.81958e-05 0.000330727 0.00171275)
(-2.57889e-05 0.000224056 0.00810008)
(0.00264375 -0.00154242 0.0391675)
(0.000442764 -8.50993e-05 0.0135885)
(-0.00249694 -0.000186683 0.0244901)
(-0.00017204 0.00160232 0.0230669)
(-0.00111532 0.000453784 0.0122958)
(5.19422e-05 -0.00285712 0.0483839)
(0.00148052 2.82283e-05 0.0305591)
(0.000160857 -0.00220229 0.0429643)
(-0.00156701 -5.21028e-05 0.0245804)
(0.00032084 1.34483e-05 0.0264125)
(0.000762161 0.000955286 0.0175235)
(2.20276e-05 2.22021e-05 0.00239189)
(-0.00190433 0.00207576 0.0340997)
(0.00114289 0.000989591 0.0312314)
(0.000173672 -0.00197805 0.0169555)
(0.00131664 0.000150488 0.0465118)
(0.000107675 -0.00024565 0.0215265)
(0.000611725 -0.00136577 0.0378916)
(-0.000453808 -0.000818426 0.0260307)
(0.00025162 -0.00254893 0.0364728)
(-0.00195568 0.000446259 0.0204396)
(-0.00081054 3.94915e-05 0.0212802)
(0.00260183 -0.000681365 0.0318383)
(0.000424557 -0.00122319 0.00682206)
(0.00219442 -0.00109621 0.0417434)
(-0.000171883 0.000475452 0.0139944)
(0.000553466 0.00263007 0.0347903)
(0.00819988 0.00988243 0.0474946)
(0.000151142 0.000208508 0.00185332)
(0.00411101 -0.000889033 0.0683446)
(0.000502503 0.000797381 0.0312759)
(0.000450908 -0.000852346 0.00380115)
(-0.00159601 -0.00183459 0.0245813)
(-8.63139e-05 -0.0011828 0.0127102)
(0.00332101 -0.00110697 0.0278406)
(0.00364249 -0.00425455 0.0324514)
(0.000396764 -0.000489858 0.00705876)
(-0.000305969 -6.88145e-05 0.021987)
(0.000392377 -0.000316773 0.00497603)
(0.000704385 -0.00254208 0.013333)
(0.00176973 -0.00139645 0.0276434)
(0.000936484 0.000751451 0.0175028)
(0.000161139 0.000862186 0.011492)
(0.00123402 -0.0047469 0.0291466)
(0.00349598 -0.00231081 0.0137827)
(0.00180106 -0.00190002 0.0184772)
(-0.000189965 -0.000231772 0.0240379)
(-9.22077e-05 -0.000319767 0.0191157)
(0.000139064 0.000286841 0.0214748)
(-4.47041e-05 -0.000399785 0.0119229)
(-0.000186614 0.000101061 0.0250038)
(-0.000291954 0.000326947 0.0242621)
(0.000271006 0.000114068 0.00952777)
(0.000205438 -0.000170133 0.0171011)
(0.000140505 -0.000219485 0.00885761)
(0.000289 0.000164729 0.0121883)
(-0.000392933 -0.000562809 0.0275922)
(0.000807826 -0.000938341 0.0102612)
(0.000645399 -0.000362064 0.0175446)
(0.000286942 -2.5476e-05 0.00823391)
(-0.000153398 -0.00100112 0.0176181)
(0.00102102 -0.00237605 0.0427078)
(0.00130351 -0.000338053 0.0240113)
(-0.000393694 0.000678255 0.0287628)
(6.59952e-05 0.000676977 0.0260496)
(-0.000303412 7.24723e-05 0.0212913)
(-0.000245733 -1.11007e-05 0.0285525)
(5.22439e-05 0.000652941 0.0323097)
(-0.00032185 0.000133034 0.020278)
(-0.000542054 1.26908e-05 0.0223688)
(-0.000489248 0.000261628 0.016729)
(7.98717e-05 0.000385639 0.0246042)
(-0.000519854 -0.000162804 0.0348383)
(-8.43628e-05 -0.0012274 0.0251279)
(-0.000181952 -0.000656822 0.022406)
(-0.000110981 -0.000525014 0.0186694)
(-0.00156247 0.000208426 0.027782)
(-0.000889418 -8.83405e-06 0.0373816)
(0.000844376 0.000141086 0.0305725)
(0.000145482 0.00027848 0.00693672)
(0.000655467 0.000631198 0.0063467)
(2.10856e-05 0.000492344 0.00531812)
(-0.000362135 0.00105425 0.00630625)
(0.00013399 0.000539711 0.007188)
(0.000545491 -0.0004856 0.00550443)
(0.000260523 -0.000229744 0.00520978)
(-0.00034698 0.000427852 0.00443889)
(0.000324756 0.00101009 0.00670083)
(-0.000108397 -0.000521371 0.00783821)
(0.000883515 -0.00118987 0.00625571)
(0.000219548 -0.00106887 0.00545772)
(-0.000422548 0.00104461 0.00566373)
(-0.00162324 0.00085423 0.00686759)
(-0.000360818 0.000723013 0.00883121)
(0.000490018 3.18315e-06 0.00744557)
(0.000165072 0.000175729 0.0151595)
(0.000385529 0.000222076 0.0148468)
(0.000209915 0.000102642 0.0143314)
(1.24924e-05 0.000135779 0.0145895)
(0.000131415 0.00016703 0.0150947)
(0.000295207 -0.000187658 0.0145288)
(0.000199604 -0.000178804 0.014209)
(-0.000124737 -2.83209e-05 0.0138939)
(0.00017362 0.000310347 0.0150419)
(3.62387e-05 -0.000211152 0.0155344)
(0.00033074 -0.000529391 0.0147474)
(-4.03105e-06 -0.000540383 0.0143489)
(-0.000175298 0.000466937 0.014464)
(-0.000564287 0.000369419 0.0152354)
(-0.000191371 0.000205467 0.015584)
(-3.02337e-05 -5.80721e-05 0.0151758)
(0.000113642 0.00012565 0.0125153)
(0.00015184 0.000142902 0.0123861)
(5.8905e-05 0.000108874 0.0121368)
(-0.000109275 0.000172915 0.0121308)
(9.00994e-05 9.83955e-05 0.0124688)
(0.000116771 -9.49303e-06 0.0123055)
(6.07062e-05 -1.73987e-05 0.0121218)
(-0.000111872 4.50714e-05 0.0120113)
(7.74941e-05 0.000128445 0.0125171)
(3.11253e-05 -4.05285e-05 0.0126371)
(9.2458e-05 -0.000154869 0.0123589)
(-5.57177e-05 -0.000163392 0.0122219)
(-5.94493e-05 0.000198767 0.0123417)
(-0.000180468 0.000145942 0.0125762)
(-9.03619e-05 5.93281e-05 0.012644)
(-9.3836e-05 -2.45734e-05 0.012543)
(8.02612e-05 7.09434e-05 0.0129517)
(9.15706e-05 6.79679e-05 0.0129039)
(6.44834e-05 3.2266e-05 0.0128059)
(-6.83283e-06 2.77421e-05 0.0127986)
(6.23661e-05 5.59837e-05 0.0129247)
(6.52432e-05 1.57029e-05 0.0128772)
(4.07128e-05 -7.03588e-06 0.0127996)
(-3.77124e-05 -8.021e-06 0.0127659)
(4.29656e-05 6.24911e-05 0.0129426)
(2.64745e-05 9.48958e-07 0.0129705)
(3.11446e-05 -4.91305e-05 0.0128772)
(-3.562e-05 -6.76331e-05 0.0128323)
(-1.11355e-05 9.06415e-05 0.0128807)
(-5.2112e-05 6.12179e-05 0.0129561)
(-3.86486e-05 1.97639e-05 0.0129639)
(-6.69894e-05 -1.05584e-05 0.0129415)
(5.02731e-05 4.1938e-05 0.0129182)
(4.83015e-05 3.94477e-05 0.0128895)
(3.18061e-05 2.2489e-05 0.0128311)
(-7.88399e-06 2.1865e-05 0.0127918)
(4.002e-05 3.67306e-05 0.012914)
(3.47687e-05 2.17576e-05 0.0128923)
(1.85377e-05 7.94716e-06 0.0128501)
(-1.96513e-05 4.67857e-06 0.0128199)
(2.81698e-05 3.6876e-05 0.0129211)
(1.79826e-05 1.36602e-05 0.0129229)
(1.03842e-05 -6.8463e-06 0.0128858)
(-1.99196e-05 -1.64691e-05 0.0128609)
(6.12879e-06 4.41462e-05 0.0128977)
(-1.13407e-05 2.97622e-05 0.0129208)
(-1.56735e-05 1.23699e-05 0.0129167)
(-3.61947e-05 9.84632e-07 0.0129065)
(3.20295e-05 2.45078e-05 0.0129166)
(2.85975e-05 2.28457e-05 0.0128988)
(1.99611e-05 1.36632e-05 0.0128632)
(8.138e-07 1.15928e-05 0.0128263)
(2.66408e-05 2.32249e-05 0.0129232)
(2.14425e-05 1.71372e-05 0.0129106)
(1.17414e-05 9.07882e-06 0.0128857)
(-6.45703e-06 5.62298e-06 0.01286)
(2.05965e-05 2.22422e-05 0.0129268)
(1.37656e-05 1.3429e-05 0.0129227)
(6.45845e-06 4.29895e-06 0.0129045)
(-7.53897e-06 -9.79597e-07 0.0128849)
(1.1847e-05 2.27101e-05 0.0129179)
(2.75044e-06 1.65462e-05 0.012923)
(-3.86608e-06 9.4504e-06 0.0129164)
(-1.55047e-05 4.95076e-06 0.0129052)
(2.10702e-05 1.45948e-05 0.0129196)
(1.81417e-05 1.3708e-05 0.0129059)
(1.31061e-05 8.90752e-06 0.0128785)
(3.48056e-06 7.604e-06 0.012841)
(1.84251e-05 1.44781e-05 0.0129316)
(1.44951e-05 1.19221e-05 0.0129219)
(8.64936e-06 7.72497e-06 0.0129031)
(-3.29883e-07 5.5648e-06 0.012877)
(1.56459e-05 1.35858e-05 0.0129359)
(1.10086e-05 1.01705e-05 0.0129304)
(5.76347e-06 6.11334e-06 0.0129173)
(-1.36409e-06 3.49595e-06 0.0128976)
(1.22172e-05 1.2425e-05 0.0129331)
(6.7707e-06 9.9563e-06 0.0129316)
(1.59376e-06 7.10122e-06 0.0129239)
(-4.93498e-06 5.35974e-06 0.0129095)
(1.4343e-05 8.77311e-06 0.012922)
(1.2267e-05 8.36507e-06 0.0129102)
(9.24671e-06 5.97521e-06 0.0128865)
(4.20771e-06 5.29183e-06 0.0128489)
(1.31409e-05 8.9337e-06 0.0129367)
(1.04983e-05 7.875e-06 0.0129283)
(6.98051e-06 5.84145e-06 0.0129119)
(2.29607e-06 4.6824e-06 0.0128851)
(1.19592e-05 8.30787e-06 0.0129424)
(8.95196e-06 6.98574e-06 0.0129367)
(5.52627e-06 5.22147e-06 0.012925)
(1.60612e-06 3.95994e-06 0.0129045)
(1.06263e-05 7.16294e-06 0.0129424)
(7.30185e-06 6.21778e-06 0.0129387)
(3.79873e-06 5.10762e-06 0.0129301)
(2.04952e-08 4.42557e-06 0.0129136)
(1.00253e-05 5.33627e-06 0.0129234)
(8.64912e-06 5.1837e-06 0.0129127)
(6.78753e-06 4.06911e-06 0.0128906)
(4.018e-06 3.77418e-06 0.0128529)
(9.53663e-06 5.51366e-06 0.0129397)
(7.84633e-06 5.12124e-06 0.012932)
(5.69938e-06 4.20175e-06 0.0129164)
(3.06444e-06 3.64502e-06 0.0128892)
(9.08941e-06 5.10752e-06 0.0129465)
(7.19316e-06 4.63373e-06 0.0129408)
(5.00999e-06 3.8991e-06 0.0129295)
(2.68944e-06 3.33122e-06 0.0129084)
(8.58885e-06 4.32032e-06 0.0129479)
(6.57522e-06 3.97328e-06 0.0129436)
(4.31513e-06 3.56609e-06 0.0129345)
(2.00996e-06 3.30923e-06 0.0129166)
(7.12532e-06 3.28767e-06 0.0129243)
(6.24461e-06 3.2568e-06 0.0129142)
(5.07567e-06 2.77062e-06 0.0128929)
(3.47075e-06 2.68879e-06 0.0128553)
(6.97087e-06 3.42564e-06 0.0129415)
(5.9138e-06 3.32297e-06 0.0129342)
(4.58169e-06 2.9431e-06 0.0129191)
(3.03256e-06 2.70696e-06 0.0128917)
(6.83885e-06 3.17281e-06 0.012949)
(5.66558e-06 3.04118e-06 0.0129436)
(4.27851e-06 2.75922e-06 0.0129323)
(2.84065e-06 2.5217e-06 0.0129109)
(6.66732e-06 2.69703e-06 0.0129512)
(5.45899e-06 2.5866e-06 0.0129468)
(4.01097e-06 2.45134e-06 0.0129375)
(2.55578e-06 2.3613e-06 0.012919)
(5.0919e-06 2.04812e-06 0.0129249)
(4.53702e-06 2.07132e-06 0.0129152)
(3.79645e-06 1.88121e-06 0.0128943)
(2.81938e-06 1.90339e-06 0.0128567)
(5.08145e-06 2.15086e-06 0.0129425)
(4.42572e-06 2.16409e-06 0.0129356)
(3.59002e-06 2.03273e-06 0.0129207)
(2.63563e-06 1.95224e-06 0.0128932)
(5.07648e-06 2.00413e-06 0.0129505)
(4.3531e-06 1.99982e-06 0.0129453)
(3.47096e-06 1.90973e-06 0.0129341)
(2.54746e-06 1.82108e-06 0.0129126)
(5.03576e-06 1.72854e-06 0.0129532)
(4.30273e-06 1.70923e-06 0.0129488)
(3.37655e-06 1.67649e-06 0.0129395)
(2.43372e-06 1.64717e-06 0.0129207)
(3.61574e-06 1.28777e-06 0.0129252)
(3.27217e-06 1.3286e-06 0.0129158)
(2.79629e-06 1.2703e-06 0.0128951)
(2.17939e-06 1.33431e-06 0.0128577)
(3.65693e-06 1.36734e-06 0.0129431)
(3.25169e-06 1.41519e-06 0.0129364)
(2.72656e-06 1.38716e-06 0.0129217)
(2.12228e-06 1.37932e-06 0.0128943)
(3.69513e-06 1.28648e-06 0.0129514)
(3.24691e-06 1.31963e-06 0.0129464)
(2.68683e-06 1.30504e-06 0.0129353)
(2.08332e-06 1.27664e-06 0.0129137)
(3.70203e-06 1.12519e-06 0.0129543)
(3.25014e-06 1.13757e-06 0.0129501)
(2.65913e-06 1.14072e-06 0.0129408)
(2.03997e-06 1.13066e-06 0.0129219)
(2.51411e-06 8.13419e-07 0.0129254)
(2.30357e-06 8.53486e-07 0.0129161)
(1.99949e-06 8.49193e-07 0.0128957)
(1.60711e-06 9.18144e-07 0.0128583)
(2.56464e-06 8.73731e-07 0.0129435)
(2.31693e-06 9.22789e-07 0.012937)
(1.9878e-06 9.32625e-07 0.0129224)
(1.60105e-06 9.51521e-07 0.0128949)
(2.60884e-06 8.33184e-07 0.0129519)
(2.33188e-06 8.68684e-07 0.0129471)
(1.97991e-06 8.77255e-07 0.0129361)
(1.58561e-06 8.72328e-07 0.0129145)
(2.62825e-06 7.36206e-07 0.012955)
(2.34701e-06 7.54562e-07 0.0129509)
(1.9742e-06 7.66943e-07 0.0129417)
(1.56956e-06 7.61463e-07 0.0129228)
(1.67874e-06 5.07401e-07 0.0129255)
(1.55317e-06 5.39351e-07 0.0129164)
(1.36522e-06 5.5223e-07 0.012896)
(1.12064e-06 6.10304e-07 0.0128587)
(1.72165e-06 5.50197e-07 0.0129437)
(1.57349e-06 5.88792e-07 0.0129373)
(1.37291e-06 6.07256e-07 0.0129228)
(1.13315e-06 6.30416e-07 0.0128954)
(1.7578e-06 5.32615e-07 0.0129522)
(1.59012e-06 5.59298e-07 0.0129475)
(1.37564e-06 5.71151e-07 0.0129366)
(1.12619e-06 5.73965e-07 0.012915)
(1.77585e-06 4.73472e-07 0.0129553)
(1.6026e-06 4.88768e-07 0.0129514)
(1.37562e-06 4.99653e-07 0.0129422)
(1.11913e-06 4.97687e-07 0.0129234)
(1.05336e-06 2.91901e-07 0.0129255)
(9.82492e-07 3.15397e-07 0.0129165)
(8.73518e-07 3.31012e-07 0.0128962)
(7.31039e-07 3.72384e-07 0.012859)
(1.08366e-06 3.16413e-07 0.0129438)
(1.00005e-06 3.4345e-07 0.0129375)
(8.84945e-07 3.60429e-07 0.012923)
(7.43689e-07 3.80091e-07 0.0128957)
(1.10794e-06 3.09228e-07 0.0129523)
(1.01373e-06 3.26531e-07 0.0129477)
(8.90484e-07 3.36824e-07 0.0129369)
(7.42083e-07 3.418e-07 0.0129154)
(1.12082e-06 2.75692e-07 0.0129555)
(1.02154e-06 2.85878e-07 0.0129517)
(8.91855e-07 2.9371e-07 0.0129425)
(7.3962e-07 2.93332e-07 0.0129238)
(5.92698e-07 1.22035e-07 0.0129256)
(5.56744e-07 1.42049e-07 0.0129166)
(4.97853e-07 1.59196e-07 0.0128964)
(4.22607e-07 1.89237e-07 0.0128592)
(6.11493e-07 1.28865e-07 0.0129438)
(5.70512e-07 1.47646e-07 0.0129376)
(5.09613e-07 1.63296e-07 0.0129232)
(4.32334e-07 1.81387e-07 0.0128959)
(6.26683e-07 1.23067e-07 0.0129524)
(5.82124e-07 1.3556e-07 0.0129479)
(5.17958e-07 1.46094e-07 0.0129371)
(4.3742e-07 1.55538e-07 0.0129156)
(6.36145e-07 1.05749e-07 0.0129556)
(5.89168e-07 1.12554e-07 0.0129519)
(5.22678e-07 1.1921e-07 0.0129428)
(4.40637e-07 1.23689e-07 0.012924)
(0.00124886 -0.00146259 0.0262838)
(-0.000323653 0.000569417 0.0124608)
(0.000324475 0.0011617 0.0123194)
(0.00273324 -0.000305188 0.0215573)
(0.000521315 7.0655e-05 0.0153839)
(0.00215397 -0.000407351 0.0232667)
(0.000720596 0.00224094 0.0308968)
(0.0010872 -0.00170009 0.019051)
(-0.00110064 0.000953968 0.0184321)
(0.00046136 -0.000497516 0.0109719)
(0.00394963 -0.00192014 0.0236535)
(0.00209724 -0.00361877 0.0251562)
(0.00123804 0.000419518 0.0239822)
(-0.00084608 0.000372004 0.021393)
(0.00120949 -0.00175824 0.0183038)
(0.00066634 -0.000636671 0.00908977)
(-0.0016027 0.00290489 0.0186012)
(0.00255853 -0.000903622 0.0291933)
(0.00140243 -0.00126018 0.0235112)
(0.000194538 -0.00174576 0.0356309)
(-0.00224306 0.00310583 0.0197929)
(-0.000142163 -7.21291e-05 0.0308362)
(0.00126396 -0.000610295 0.0217547)
(0.0014349 -0.00154488 0.0185215)
(0.000409643 0.00102736 0.034945)
(2.6037e-05 0.00104385 0.0207436)
(-0.000510363 -0.000462155 0.0261646)
(0.00129103 0.000908391 0.0225393)
(-0.00402879 -0.000675853 0.0303548)
(1.83313e-05 -0.000175958 0.0122135)
(0.000200281 0.000926551 0.0170289)
(0.00212591 0.00189262 0.0247439)
(-0.00135954 0.0010417 0.0229627)
(0.00153975 -1.91432e-05 0.0316699)
(0.000208163 0.000256527 0.0260634)
(0.00145831 -0.000522455 0.0391281)
(-0.000217338 0.00282628 0.0302508)
(0.00146571 0.000268731 0.0223539)
(0.00106036 0.000220772 0.0375638)
(0.000504195 -0.00140332 0.0372684)
(-0.000781659 0.00120736 0.0232463)
(-2.24985e-05 0.000914991 0.0275909)
(-0.000304939 0.00211347 0.0421117)
(-0.00060429 0.00132101 0.0135881)
(-0.000119285 0.000354953 0.00134864)
(0.0022404 0.00194617 0.0451505)
(-8.19222e-05 0.000832137 0.00550529)
(-0.00284455 3.59995e-05 0.0461692)
(-0.000423352 -7.65528e-05 0.00643469)
(-0.000165555 -0.00119723 0.035367)
(-0.000586304 -0.00124662 0.0228991)
(-0.00145639 -0.00159474 0.0527907)
(-0.000349669 -0.000128707 0.00842005)
(-0.00141606 -0.00237302 0.034865)
(-0.0011609 -0.00140305 0.0369566)
(-9.09442e-05 0.000979299 0.0119627)
(-0.000876673 -0.000547954 0.0429645)
(-0.000759461 -4.67752e-05 0.0266964)
(-0.000259498 0.000955578 0.0213475)
(-0.000986384 0.00174064 0.0242472)
(0.000650814 -0.00292268 0.0218067)
(0.000187778 -0.000192675 0.00596746)
(-0.000363262 0.000937164 0.0441941)
(-0.00186586 -0.000319609 0.0311201)
(0.000170928 0.000965353 0.0211861)
(-0.00153608 -0.000627889 0.0380239)
(-0.00128818 -0.000274137 0.0362033)
(7.5907e-05 0.00360077 0.0362722)
(0.000553345 -0.00100735 0.0311692)
(-0.00227519 -0.000416672 0.0223086)
(-0.000223134 0.000794946 0.0194041)
(-0.000374754 0.00148056 0.0228736)
(0.000625684 -0.0025955 0.0401636)
(-9.43074e-05 -0.000277646 0.0146823)
(-0.00131548 0.000130154 0.0424192)
(0.000288502 -0.000377005 0.025094)
(6.94494e-05 -0.00033018 0.0220501)
(-0.00202641 -0.00163885 0.0473339)
(-0.000350119 -0.00013188 0.00856827)
(0.000689609 0.00137986 0.0520052)
(-0.000175868 -0.000110721 0.000581645)
(-0.00389922 0.00346317 0.0282354)
(0.00019696 0.000515189 0.0119985)
(0.00208398 0.000873279 0.0236554)
(0.00120863 0.00228217 0.0284342)
(-0.00284162 0.0029311 0.0179128)
(-0.00231036 0.00226209 0.02082)
(0.00113199 0.00352368 0.0232302)
(0.000229228 0.00057458 0.0105576)
(-0.00199376 0.000440276 0.0208904)
(-0.00162639 0.00224907 0.0153285)
(-0.000831172 0.000919064 0.0172951)
(0.000918686 -0.0010756 0.0156691)
(-0.000326371 -0.000461493 0.00723354)
(-0.0012217 -0.000881793 0.0199396)
(0.000200155 -6.38173e-05 0.0131609)
(0.000439304 -0.000321271 0.00994677)
(-8.73022e-05 -1.98796e-05 0.0137698)
(-0.00032452 -5.55661e-05 0.0158042)
(-0.000703105 0.000226788 0.0244604)
(-0.0005203 -0.000505886 0.0233635)
(0.000142692 0.000272486 0.0224666)
(-0.000325312 -0.000175132 0.00897746)
(-0.000354941 -0.000426735 0.0083293)
(0.000434261 7.63629e-05 0.021208)
(0.000215844 9.52824e-05 0.0184549)
(5.13179e-05 -0.000223714 0.0214684)
(0.000109716 -0.000549149 0.0270798)
(-4.62566e-05 -0.000642546 0.0206359)
(0.000114855 -0.000598094 0.0182982)
(4.51165e-05 0.000468841 0.0188046)
(-9.67226e-05 -0.000297419 0.0183354)
(0.000319851 -0.000520997 0.0210959)
(0.000296096 -0.000348332 0.0258856)
(-0.000477582 -0.000415283 0.0233308)
(-0.000781467 -0.000267398 0.0305323)
(3.65026e-05 -0.000963168 0.030616)
(0.00071983 -0.000557533 0.0290958)
(0.000153453 -0.000720023 0.0197198)
(-0.000448666 -0.000676209 0.0223263)
(0.000491247 -0.000357759 0.0278716)
(0.000497638 -0.000118273 0.0269761)
(7.81101e-05 -0.000821912 0.0271682)
(-2.31737e-05 -0.000726215 0.0281362)
(2.43709e-05 0.000420576 0.0260766)
(0.000386234 0.00010275 0.0251526)
(-1.88836e-05 -3.55703e-06 0.025705)
(-0.00010452 -0.00034127 0.0279024)
(0.00128609 -0.000376772 0.00563972)
(0.000214031 8.4343e-05 0.0058526)
(-0.000348065 5.6398e-05 0.00514017)
(-0.000877097 0.00010924 0.0069616)
(0.000384284 -0.000270635 0.00714601)
(0.000740442 0.000420714 0.00676181)
(0.000200388 -0.00013601 0.00493508)
(-0.00085326 0.000137259 0.00587512)
(0.000487487 0.0003462 0.00705026)
(0.000315523 0.000616898 0.00674154)
(9.12038e-05 -0.000312048 0.00618336)
(-0.000287923 -1.1774e-05 0.00649108)
(0.000380161 0.000237297 0.00681691)
(0.000328705 0.000532782 0.00640245)
(-0.000144562 0.000428386 0.00614147)
(-0.000359947 0.000432929 0.00647467)
(0.000625624 -0.000158688 0.014569)
(0.000365175 9.76127e-06 0.0149555)
(0.000132318 -3.19824e-05 0.0142636)
(-0.000265023 -0.000119988 0.0151788)
(0.00030316 -0.000152013 0.0151733)
(0.000519796 8.1035e-05 0.0151696)
(0.000341709 -0.000138078 0.0141988)
(-0.000216808 -8.38238e-05 0.014812)
(0.000294337 0.000140063 0.0151652)
(0.000373018 0.000272418 0.0151153)
(0.000313334 -6.38e-05 0.0146457)
(-7.57391e-05 -8.39945e-06 0.0148931)
(0.000242548 0.000145295 0.0150631)
(0.000347898 0.000254014 0.0149056)
(0.000246339 0.000135214 0.0145957)
(-2.10506e-05 5.94471e-05 0.014814)
(0.000267835 1.37609e-05 0.0120094)
(0.000112095 7.61963e-05 0.0120994)
(-1.1101e-05 2.44015e-05 0.0116863)
(-0.000185151 -2.96084e-05 0.0119704)
(0.000164408 4.04044e-05 0.0123542)
(0.000148693 0.00014419 0.0123212)
(2.85707e-05 2.19848e-05 0.0118501)
(-0.00021323 4.92735e-05 0.0120044)
(0.000148282 7.99687e-05 0.0124664)
(0.000124207 0.000161017 0.0123964)
(4.38138e-05 1.16087e-05 0.0120687)
(-0.00015459 7.70315e-05 0.0120752)
(0.000130183 9.41206e-05 0.0124797)
(0.000125515 0.000158413 0.0123746)
(3.63846e-05 9.08101e-05 0.0121353)
(-0.000121598 0.000131783 0.0121012)
(0.000141421 -2.2178e-06 0.0126403)
(9.65968e-05 3.24955e-05 0.0127151)
(6.6993e-05 1.522e-05 0.0125218)
(-4.29915e-05 -2.23499e-05 0.0126784)
(0.000111102 4.79442e-06 0.0127939)
(0.000106914 5.72124e-05 0.0128172)
(8.22074e-05 6.23323e-06 0.0126208)
(-4.29935e-05 3.44519e-06 0.01273)
(9.97701e-05 3.91746e-05 0.0128924)
(9.99367e-05 8.4518e-05 0.012882)
(8.14102e-05 2.1434e-05 0.012739)
(-3.02706e-05 2.94449e-05 0.0127793)
(9.10935e-05 5.80769e-05 0.0129335)
(9.74968e-05 8.67926e-05 0.0129)
(7.59352e-05 4.23957e-05 0.0127956)
(-1.29532e-05 4.01347e-05 0.0128013)
(7.15861e-05 3.20908e-06 0.0125935)
(4.71946e-05 2.16036e-05 0.0126162)
(3.16756e-05 1.2393e-05 0.012481)
(-2.23341e-05 -4.70714e-06 0.0125081)
(6.43244e-05 8.47792e-06 0.0127457)
(5.18856e-05 3.6795e-05 0.0127446)
(3.65164e-05 1.21543e-05 0.0126147)
(-2.42208e-05 1.23922e-05 0.0126129)
(5.97069e-05 2.24112e-05 0.0128449)
(5.21099e-05 4.55021e-05 0.012826)
(3.76088e-05 1.58083e-05 0.0127218)
(-1.69219e-05 2.11819e-05 0.0126917)
(5.57921e-05 3.4604e-05 0.0128958)
(5.17156e-05 4.75285e-05 0.012868)
(3.58467e-05 2.58377e-05 0.0127906)
(-8.69626e-06 2.81433e-05 0.0127468)
(4.00366e-05 2.8043e-06 0.0126007)
(2.91089e-05 1.27443e-05 0.0126074)
(2.31847e-05 9.33003e-06 0.0125298)
(-4.69033e-06 2.09382e-07 0.0125308)
(3.85236e-05 6.33458e-06 0.0127389)
(3.09586e-05 2.06104e-05 0.0127315)
(2.4711e-05 9.15733e-06 0.0126558)
(-4.5879e-06 7.25417e-06 0.0126367)
(3.67335e-05 1.34202e-05 0.0128343)
(3.13901e-05 2.45627e-05 0.0128176)
(2.43933e-05 1.08624e-05 0.0127543)
(-1.99174e-06 1.13906e-05 0.0127196)
(3.49324e-05 2.05607e-05 0.0128895)
(3.09748e-05 2.64143e-05 0.0128699)
(2.29504e-05 1.59944e-05 0.0128215)
(1.10422e-06 1.56319e-05 0.0127798)
(2.36615e-05 2.10699e-06 0.0126037)
(1.84171e-05 7.55509e-06 0.0125989)
(1.49204e-05 6.37293e-06 0.0125463)
(6.95345e-07 2.25731e-06 0.0125279)
(2.375e-05 4.56494e-06 0.0127383)
(1.94273e-05 1.18837e-05 0.0127253)
(1.58135e-05 6.69247e-06 0.0126717)
(1.16245e-06 5.72561e-06 0.0126385)
(2.31914e-05 8.48636e-06 0.0128322)
(1.96964e-05 1.39869e-05 0.0128151)
(1.56042e-05 7.5539e-06 0.0127681)
(2.42188e-06 7.54302e-06 0.0127261)
(2.24593e-05 1.25055e-05 0.0128893)
(1.94698e-05 1.5418e-05 0.0128725)
(1.48251e-05 1.04392e-05 0.0128351)
(3.7276e-06 1.00045e-05 0.0127904)
(1.4804e-05 1.5203e-06 0.0126052)
(1.21411e-05 4.62911e-06 0.0125948)
(1.00317e-05 4.46815e-06 0.0125553)
(2.61366e-06 2.68028e-06 0.01253)
(1.52335e-05 3.17368e-06 0.0127384)
(1.27804e-05 7.05889e-06 0.0127228)
(1.06305e-05 4.8498e-06 0.0126802)
(3.15274e-06 4.37628e-06 0.012642)
(1.51245e-05 5.39634e-06 0.0128317)
(1.29563e-05 8.24954e-06 0.0128146)
(1.05447e-05 5.33607e-06 0.0127755)
(3.78205e-06 5.21665e-06 0.0127311)
(1.49165e-05 7.66441e-06 0.0128897)
(1.28973e-05 9.27872e-06 0.0128745)
(1.01491e-05 7.0564e-06 0.0128422)
(4.3007e-06 6.71281e-06 0.0127968)
(9.67948e-06 1.07732e-06 0.0126056)
(8.2302e-06 2.93861e-06 0.0125927)
(6.86099e-06 3.15659e-06 0.0125598)
(2.89732e-06 2.51789e-06 0.0125312)
(1.00953e-05 2.16457e-06 0.0127382)
(8.68509e-06 4.33272e-06 0.0127216)
(7.32074e-06 3.5182e-06 0.0126843)
(3.37909e-06 3.39453e-06 0.0126439)
(1.01682e-05 3.45143e-06 0.0128313)
(8.83744e-06 5.01852e-06 0.0128145)
(7.34972e-06 3.80157e-06 0.0127792)
(3.7564e-06 3.74896e-06 0.0127337)
(1.02001e-05 4.75121e-06 0.0128899)
(8.88508e-06 5.72564e-06 0.0128756)
(7.19944e-06 4.85986e-06 0.0128458)
(3.98042e-06 4.66311e-06 0.0128001)
(6.5198e-06 7.53435e-07 0.0126056)
(5.71272e-06 1.92238e-06 0.0125917)
(4.79201e-06 2.254e-06 0.0125622)
(2.59767e-06 2.10941e-06 0.0125322)
(6.8705e-06 1.46142e-06 0.012738)
(6.05746e-06 2.735e-06 0.012721)
(5.15303e-06 2.54291e-06 0.0126866)
(2.99577e-06 2.5683e-06 0.0126453)
(6.99883e-06 2.21871e-06 0.0128311)
(6.19557e-06 3.13449e-06 0.0128146)
(5.24152e-06 2.702e-06 0.0127812)
(3.24784e-06 2.70533e-06 0.0127354)
(7.12275e-06 2.97849e-06 0.0128901)
(6.29375e-06 3.60868e-06 0.0128763)
(5.22489e-06 3.36152e-06 0.0128478)
(3.36136e-06 3.27764e-06 0.0128021)
(4.47332e-06 5.25237e-07 0.0126055)
(4.00873e-06 1.28607e-06 0.0125913)
(3.37707e-06 1.61165e-06 0.0125635)
(2.11878e-06 1.6666e-06 0.012533)
(4.74843e-06 9.81913e-07 0.0127378)
(4.27197e-06 1.76714e-06 0.0127209)
(3.65839e-06 1.82541e-06 0.0126879)
(2.43153e-06 1.91614e-06 0.0126463)
(4.88129e-06 1.43115e-06 0.012831)
(4.39496e-06 1.99753e-06 0.0128147)
(3.76856e-06 1.91125e-06 0.0127824)
(2.61329e-06 1.9576e-06 0.0127365)
(5.02271e-06 1.88352e-06 0.0128902)
(4.50729e-06 2.31201e-06 0.0128768)
(3.81771e-06 2.32558e-06 0.012849)
(2.68517e-06 2.31653e-06 0.0128033)
(3.08313e-06 3.63158e-07 0.0126054)
(2.809e-06 8.69424e-07 0.0125911)
(2.37901e-06 1.14572e-06 0.0125642)
(1.63148e-06 1.25897e-06 0.0125336)
(3.2913e-06 6.56405e-07 0.0127377)
(3.00724e-06 1.15832e-06 0.0127208)
(2.59152e-06 1.29608e-06 0.0126886)
(1.86897e-06 1.39611e-06 0.012647)
(3.40685e-06 9.25469e-07 0.0128309)
(3.11081e-06 1.29041e-06 0.0128149)
(2.6966e-06 1.33882e-06 0.0127831)
(2.0022e-06 1.39729e-06 0.0127372)
(3.53346e-06 1.19779e-06 0.0128903)
(3.21495e-06 1.49704e-06 0.0128772)
(2.76619e-06 1.60113e-06 0.0128497)
(2.05316e-06 1.62367e-06 0.0128041)
(2.10067e-06 2.46497e-07 0.0126053)
(1.93645e-06 5.84186e-07 0.0125911)
(1.65014e-06 7.99575e-07 0.0125647)
(1.19636e-06 9.11751e-07 0.012534)
(2.25094e-06 4.33482e-07 0.0127375)
(2.08115e-06 7.59247e-07 0.0127208)
(1.80407e-06 9.00959e-07 0.012689)
(1.36898e-06 9.86512e-07 0.0126475)
(2.34108e-06 5.96425e-07 0.0128308)
(2.16229e-06 8.35452e-07 0.012815)
(1.89104e-06 9.19274e-07 0.0127835)
(1.46434e-06 9.72709e-07 0.0127377)
(2.44126e-06 7.62439e-07 0.0128903)
(2.24667e-06 9.69487e-07 0.0128774)
(1.95653e-06 1.08426e-06 0.0128502)
(1.50266e-06 1.11591e-06 0.0128046)
(1.38697e-06 1.61636e-07 0.0126052)
(1.28961e-06 3.826e-07 0.0125911)
(1.10651e-06 5.38262e-07 0.0125649)
(8.3133e-07 6.28594e-07 0.0125343)
(1.48853e-06 2.77986e-07 0.0127375)
(1.38852e-06 4.86389e-07 0.0127209)
(1.21092e-06 6.02051e-07 0.0126893)
(9.4932e-07 6.673e-07 0.0126478)
(1.55173e-06 3.75828e-07 0.0128308)
(1.44662e-06 5.29817e-07 0.0128151)
(1.27492e-06 6.08021e-07 0.0127838)
(1.01514e-06 6.50629e-07 0.0127381)
(1.62332e-06 4.76656e-07 0.0128903)
(1.50817e-06 6.13934e-07 0.0128775)
(1.32588e-06 7.07678e-07 0.0128505)
(1.04372e-06 7.38398e-07 0.012805)
(8.7134e-07 9.97457e-08 0.0126052)
(8.16089e-07 2.38951e-07 0.0125911)
(7.05776e-07 3.43538e-07 0.0125651)
(5.44244e-07 4.08811e-07 0.0125345)
(9.29673e-07 1.63744e-07 0.0127374)
(8.74354e-07 2.9179e-07 0.0127209)
(7.68733e-07 3.74121e-07 0.0126895)
(6.17126e-07 4.21327e-07 0.012648)
(9.69544e-07 2.1692e-07 0.0128307)
(9.11828e-07 3.11955e-07 0.0128151)
(8.101e-07 3.72018e-07 0.012784)
(6.5986e-07 4.03518e-07 0.0127383)
(1.0147e-06 2.73837e-07 0.0128903)
(9.52521e-07 3.57123e-07 0.0128776)
(8.45099e-07 4.21756e-07 0.0128506)
(6.81899e-07 4.47427e-07 0.0128052)
(5.0637e-07 5.52319e-08 0.0126051)
(4.7423e-07 1.38261e-07 0.0125911)
(4.09113e-07 2.0157e-07 0.0125652)
(3.20811e-07 2.42451e-07 0.0125347)
(5.28376e-07 7.74925e-08 0.0127374)
(4.96914e-07 1.50234e-07 0.012721)
(4.35878e-07 2.0254e-07 0.0126896)
(3.55735e-07 2.36126e-07 0.0126482)
(5.46831e-07 9.49814e-08 0.0128307)
(5.15721e-07 1.49134e-07 0.0128152)
(4.57701e-07 1.8985e-07 0.0127841)
(3.81695e-07 2.17113e-07 0.0127385)
(5.70073e-07 1.14524e-07 0.0128903)
(5.38628e-07 1.57914e-07 0.0128777)
(4.79093e-07 1.94668e-07 0.0128508)
(3.99923e-07 2.22145e-07 0.0128054)
(0.00474362 1.80968e-05 0.0263679)
(0.00238674 -0.00286321 0.0222311)
(0.00212956 -0.00151616 0.0160147)
(0.00394345 0.000117983 0.028885)
(-0.000213322 0.000370378 0.0261738)
(0.00084952 0.000536571 0.0123182)
(0.00105593 5.20604e-05 0.00306469)
(0.00324175 -0.00127526 0.016547)
(0.00092916 -0.00028162 0.0167316)
(0.00333021 0.000623711 0.0172256)
(0.00201518 0.00127973 0.0252281)
(4.49129e-05 -0.000848604 0.0170709)
(-0.000788022 -9.54466e-05 0.00784508)
(0.003136 -0.000699319 0.0209232)
(0.0018595 -0.00047494 0.0240348)
(-6.37114e-06 0.00121842 0.0232069)
(0.000311321 -0.000138877 0.00462518)
(-0.000507369 0.00377728 0.0363604)
(-0.000760948 0.00174585 0.0136418)
(9.5784e-05 0.00170306 0.0183087)
(0.00121075 9.46554e-05 0.0150377)
(0.00206513 2.53035e-06 0.0179086)
(0.000989579 0.00148865 0.040321)
(0.000773782 0.00274905 0.0439508)
(0.00161652 0.00193336 0.0128786)
(0.000837819 -0.0024644 0.0448653)
(0.000555745 -0.0011624 0.0207343)
(0.000524156 0.00208511 0.0330482)
(-5.95173e-06 -0.000824998 0.0210812)
(-0.000465444 -0.000422391 0.00655284)
(0.00362616 0.000714005 0.0229274)
(0.0010589 0.000518441 0.00902396)
(-0.00175619 7.02581e-05 0.0563143)
(0.000135409 3.08898e-05 0.0350013)
(0.000796366 -0.000534035 0.0146972)
(0.000307034 -0.00237445 0.0363072)
(0.000303782 0.000233874 0.0297519)
(4.86561e-05 -0.000831018 0.03706)
(-0.000829409 0.000496813 0.0161193)
(-0.00174136 0.00296885 0.0319352)
(4.33924e-05 0.00111933 0.0311404)
(-0.000109945 0.00057878 0.015474)