/*--------------------------------*- C++ -*----------------------------------*\
| =========                 |                                                 |
| \\      /  F ield         | OpenFOAM: The Open Source CFD Toolbox           |
|  \\    /   O peration     | Version:  2506                                  |
|   \\  /    A nd           | Website:  www.openfoam.com                      |
|    \\/     M anipulation  |                                                 |
\*---------------------------------------------------------------------------*/
FoamFile
{
    version     2.0;
    format      ascii;
    arch        "LSB;label=32;scalar=64";
    class       volVectorField;
    location    "0.06";
    object      Us;
}
// * * * * * * * * * * * * * * * * * * * * * * * * * * * * * * * * * * * * * //

dimensions      [0 1 -1 0 0 0 0];

internalField   nonuniform List<vector> 
1152
(
(-8.48667e-05 0.000313485 -4.11092e-05)
(0.000171698 7.01445e-05 -2.16046e-05)
(-3.12985e-05 0.000832464 -3.34257e-05)
(0.000148294 0.000685907 6.13544e-06)
(-0.000183578 0.000435249 0.000239136)
(0.000225801 0.000149305 -3.05878e-05)
(4.94749e-06 0.000767837 -0.000102168)
(-0.000369375 0.000834105 5.65251e-05)
(-0.000133944 0.000238368 0.000154285)
(-5.00926e-05 9.8372e-05 -0.000242683)
(-0.000449345 0.00103983 -0.000295234)
(0.000271439 0.000541485 -9.93987e-05)
(0.000286217 0.000340432 -0.00021332)
(0.000270067 9.10562e-05 -5.1953e-05)
(-0.000355405 0.000963494 -0.000326118)
(-0.000294499 -0.000204616 0.000141713)
(-0.000310296 0.000126117 0.000450959)
(-0.000774987 0.000688342 0.000239322)
(-0.000270285 0.0010683 6.74722e-05)
(0.000118061 0.000618164 0.000122369)
(-0.000365334 0.00104794 0.00117634)
(0.00024859 0.00117761 0.00048353)
(0.000231629 0.000737141 0.000345352)
(2.04348e-05 0.000446443 0.00121294)
(-0.000465923 0.000611057 0.00144216)
(-0.000587382 0.000739256 0.000576494)
(-0.00044344 0.000711853 0.000507508)
(0.000299775 6.6272e-05 0.000814371)
(-0.000283973 0.00020621 0.00116239)
(-0.000771387 -2.63805e-05 0.000257519)
(-0.000219331 0.000302903 0.00140892)
(-0.000287459 0.000428766 0.00092604)
(-0.000213734 0.000307617 0.00146807)
(0.000226275 0.000135966 0.00165928)
(0.000126591 0.000735 0.000603432)
(-0.000529474 0.000365199 0.000707137)
(-0.000295402 0.000288637 0.00148007)
(-8.7351e-05 5.88436e-05 0.00106065)
(-0.000410625 0.000721184 0.000680285)
(-0.000156478 -0.00037185 0.00132159)
(-0.000139337 0.000435941 0.00140165)
(-0.000518931 -0.000180012 0.00181244)
(-0.000115335 0.000602005 0.0015437)
(-5.34039e-05 8.12497e-05 0.00106002)
(-7.87781e-05 -0.000183024 0.00151544)
(-0.000388293 5.85233e-05 0.00220396)
(-0.0011387 -0.000430513 0.0020295)
(-0.000169166 0.000337473 0.000972372)
(-0.000117862 0.000201253 0.00138251)
(-0.000134913 5.38797e-06 0.000864824)
(0.00017728 0.000534619 0.00137969)
(0.000121963 0.00039084 0.000574144)
(-6.68549e-05 0.000309517 0.00113239)
(-0.00014663 0.000363247 0.000772512)
(2.99658e-05 0.000218379 0.000776686)
(0.000463463 7.61469e-05 0.001451)
(-0.000148631 0.000147947 0.00114297)
(-0.000430312 0.000196342 0.00114487)
(3.92546e-05 4.77393e-05 0.00112179)
(-3.68949e-05 9.37863e-05 0.000818895)
(-1.15402e-05 0.000131101 0.00120083)
(-0.000867036 -8.1549e-06 0.00129943)
(-0.000530806 -0.000156527 0.00143612)
(-0.000208691 4.16241e-05 0.000880971)
(0.000342838 -4.11134e-05 0.00126788)
(0.000316974 6.3458e-05 0.000739499)
(0.000208581 -1.74449e-05 0.00169623)
(-0.000133432 -0.000104986 0.000926203)
(0.000128263 -1.06211e-05 0.000876601)
(-0.000106207 0.000116453 0.00117549)
(7.91129e-05 0.000151826 0.00125629)
(9.18597e-05 -7.11874e-05 0.00081609)
(7.16586e-05 -0.001058 0.00301715)
(4.66595e-05 0.00014676 0.00117193)
(0.000151935 -5.21704e-05 0.00107506)
(0.000333274 -0.000101456 0.000734956)
(1.2662e-05 -4.67405e-05 0.00110347)
(0.000156764 0.000212757 0.00139303)
(0.000124808 -0.000204072 0.00130556)
(-6.90343e-05 -0.000184462 0.00091518)
(0.000214848 -0.00037138 0.00117179)
(0.000126542 -0.000235976 0.00100946)
(0.000168704 -0.000311568 0.00117085)
(0.00042075 -0.000540358 0.000926929)
(-1.92419e-05 -0.00048755 0.000946242)
(0.000115457 -0.000110887 0.00104245)
(0.00034183 -0.000353255 0.00101135)
(0.000357061 -0.000296685 0.000728543)
(1.95006e-05 -0.000770448 0.0013031)
(0.000214268 -0.000198788 0.00135244)
(0.000347988 -0.000310463 0.00132068)
(0.000204889 -6.3087e-05 0.000953571)
(0.000197687 -0.000347133 0.00119766)
(0.000169656 -0.000147852 0.00114218)
(0.000166027 -0.000512199 0.00164369)
(-6.62197e-05 -0.00013114 0.000930783)
(0.000167161 -8.97528e-05 0.000981454)
(1.50196e-05 -0.000247079 0.00107114)
(0.00012089 -0.000479419 0.00102343)
(-5.10065e-05 -0.000557577 0.000733271)
(-0.000171823 -3.31123e-05 0.00114925)
(0.000219675 0.000154639 0.000801644)
(0.000351902 -0.000276787 0.000980998)
(0.000234181 -0.000338924 0.000742997)
(0.000207367 -0.000124462 0.00126713)
(-0.000280326 -0.00044066 0.000955503)
(0.000744645 -0.000781222 0.00118528)
(0.000842581 0.000136016 0.00116076)
(0.000306523 -1.72191e-05 0.00115815)
(0.00035823 -0.00093809 0.00184671)
(0.00200435 -0.00248916 0.00393144)
(0.000707238 -0.000112091 0.000947914)
(0 0 0)
(0 0 0)
(0 0 0)
(0 0 0)
(0 0 0)
(0 0 0)
(0 0 0)
(0 0 0)
(0 0 0)
(0 0 0)
(0 0 0)
(0 0 0)
(0.00105212 -0.000210779 0.000749983)
(0 0 0)
(0 0 0)
(0 0 0)
(0 0 0)
(0 0 0)
(0 0 0)
(0 0 0)
(0 0 0)
(0 0 0)
(0 0 0)
(0 0 0)
(0 0 0)
(0 0 0)
(0 0 0)
(0 0 0)
(0 0 0)
(0 0 0)
(0 0 0)
(0 0 0)
(0 0 0)
(0 0 0)
(0 0 0)
(0 0 0)
(0 0 0)
(0 0 0)
(0 0 0)
(0 0 0)
(0 0 0)
(0 0 0)
(0 0 0)
(0 0 0)
(0 0 0)
(0 0 0)
(0 0 0)
(0 0 0)
(0 0 0)
(0 0 0)
(0 0 0)
(0 0 0)
(0 0 0)
(0 0 0)
(0 0 0)
(0 0 0)
(0 0 0)
(0 0 0)
(0 0 0)
(0 0 0)
(0 0 0)
(0 0 0)
(0 0 0)
(0 0 0)
(0 0 0)
(0 0 0)
(0 0 0)
(0 0 0)
(0 0 0)
(0 0 0)
(0 0 0)
(0 0 0)
(0 0 0)
(0 0 0)
(0 0 0)
(0 0 0)
(0 0 0)
(0 0 0)
(0 0 0)
(0 0 0)
(0 0 0)
(0 0 0)
(0 0 0)
(0 0 0)
(0 0 0)
(0 0 0)
(0 0 0)
(0 0 0)
(0 0 0)
(0 0 0)
(0 0 0)
(0 0 0)
(0 0 0)
(0 0 0)
(0 0 0)
(0 0 0)
(0 0 0)
(0 0 0)
(0 0 0)
(0 0 0)
(0 0 0)
(0 0 0)
(0 0 0)
(0 0 0)
(0 0 0)
(0 0 0)
(0 0 0)
(0 0 0)
(0 0 0)
(0 0 0)
(0 0 0)
(0 0 0)
(0 0 0)
(0 0 0)
(0 0 0)
(0 0 0)
(0 0 0)
(0 0 0)
(0 0 0)
(0 0 0)
(0 0 0)
(0 0 0)
(0 0 0)
(0 0 0)
(0 0 0)
(0 0 0)
(0 0 0)
(0 0 0)
(0 0 0)
(0 0 0)
(0 0 0)
(0 0 0)
(0 0 0)
(0 0 0)
(0 0 0)
(0 0 0)
(0 0 0)
(0 0 0)
(0 0 0)
(0 0 0)
(0 0 0)
(0 0 0)
(0 0 0)
(0 0 0)
(0 0 0)
(0 0 0)
(0 0 0)
(0 0 0)
(0 0 0)
(0 0 0)
(0 0 0)
(0 0 0)
(0 0 0)
(0 0 0)
(0 0 0)
(0 0 0)
(0 0 0)
(0 0 0)
(0 0 0)
(0 0 0)
(0 0 0)
(0 0 0)
(0 0 0)
(0 0 0)
(0 0 0)
(0 0 0)
(0 0 0)
(0 0 0)
(0 0 0)
(0 0 0)
(0 0 0)
(0 0 0)
(0 0 0)
(0 0 0)
(0 0 0)
(0 0 0)
(0 0 0)
(0 0 0)
(0 0 0)
(0 0 0)
(0 0 0)
(0 0 0)
(0 0 0)
(0 0 0)
(0 0 0)
(0 0 0)
(0 0 0)
(0 0 0)
(0 0 0)
(0 0 0)
(0 0 0)
(0 0 0)
(0 0 0)
(0 0 0)
(0 0 0)
(0 0 0)
(0 0 0)
(0 0 0)
(0 0 0)
(0 0 0)
(0 0 0)
(0 0 0)
(0 0 0)
(0 0 0)
(0 0 0)
(0 0 0)
(0 0 0)
(0 0 0)
(0 0 0)
(0 0 0)
(0 0 0)
(0 0 0)
(0 0 0)
(0 0 0)
(0 0 0)
(0 0 0)
(0 0 0)
(0 0 0)
(0 0 0)
(0 0 0)
(0 0 0)
(0 0 0)
(0 0 0)
(0 0 0)
(0 0 0)
(0 0 0)
(0 0 0)
(0 0 0)
(0 0 0)
(0 0 0)
(0 0 0)
(0 0 0)
(0 0 0)
(0 0 0)
(0 0 0)
(0 0 0)
(0 0 0)
(0 0 0)
(0 0 0)
(0 0 0)
(0 0 0)
(0 0 0)
(0 0 0)
(0 0 0)
(0 0 0)
(0 0 0)
(0 0 0)
(0 0 0)
(0 0 0)
(0 0 0)
(0 0 0)
(0 0 0)
(0 0 0)
(0 0 0)
(0 0 0)
(0 0 0)
(0 0 0)
(0 0 0)
(0 0 0)
(0 0 0)
(0 0 0)
(0 0 0)
(0 0 0)
(0 0 0)
(0 0 0)
(0 0 0)
(0 0 0)
(0 0 0)
(0 0 0)
(0 0 0)
(0 0 0)
(0 0 0)
(2.07148e-06 6.99316e-05 8.51207e-05)
(-9.64907e-05 -0.000104015 -0.000308099)
(-0.000429071 -0.000273938 0.000287411)
(-7.69352e-05 -0.000227361 8.78746e-05)
(0.000127124 0.000345805 9.47301e-05)
(0.000167817 0.000232081 0.000154055)
(5.61082e-06 6.96428e-05 -0.000498407)
(-6.55873e-05 -0.000136731 -1.53612e-05)
(-5.82711e-05 0.000702458 0.000115101)
(-9.68388e-05 0.000286348 8.32924e-05)
(9.05583e-05 0.000530785 -0.000311541)
(0.000494771 0.000368174 -0.000108652)
(0.000155883 0.000651562 -4.91464e-05)
(-0.000187368 0.000122243 1.20611e-05)
(-0.000115617 0.000493785 -0.000104371)
(4.93997e-05 0.000788932 0.000119164)
(-0.00037882 0.000895605 0.000304779)
(-0.000395239 4.24487e-05 0.000225018)
(0.000379727 0.000230352 0.00077986)
(-3.62745e-06 -0.000153394 0.00176735)
(-0.00087498 0.00142584 0.00113315)
(0.000249166 0.000547154 0.000261212)
(8.70326e-05 0.000186807 0.000356771)
(-0.000178411 -7.81716e-05 0.000602214)
(-0.000397213 0.00174965 0.00128479)
(-3.04108e-06 0.0010622 0.000452757)
(0.000314385 0.000421517 0.000100158)
(0.000286303 0.000366775 0.000806313)
(-0.000912674 -2.32639e-05 0.001016)
(0.000163045 0.0010202 0.000438261)
(-0.000458899 0.000970609 -0.000265773)
(-1.72627e-05 0.000194974 -2.09639e-05)
(-0.000325816 0.000358429 0.00169244)
(-0.000263228 4.0229e-05 0.000126275)
(-0.000181463 -0.000100297 0.000775489)
(0.000291282 0.000234332 0.00224392)
(0.000398676 0.000314791 0.00170951)
(0.000582903 -5.2073e-05 0.000903318)
(0.000543995 0.00025504 0.00248849)
(-2.84603e-05 0.000263934 0.000922667)
(-2.74125e-05 0.000253093 0.000254767)
(0.000298518 0.00062303 3.79693e-05)
(5.98479e-05 0.000751467 0.000953588)
(-0.000543154 0.00128513 0.00188923)
(-0.000106713 0.000363776 0.000541761)
(0.000364796 0.000697768 0.00151062)
(-0.000116677 0.000893727 0.00142997)
(-0.00097013 0.000492331 0.000885794)
(-0.000351097 -0.000114174 0.000583068)
(-2.14413e-05 -9.31986e-05 0.00074266)
(-1.91182e-05 1.66937e-05 0.000780719)
(-0.0001622 -3.96044e-05 0.00102112)
(-0.000301451 -0.000199239 0.000542329)
(-0.000371861 -0.000432359 0.0016923)
(-0.000290547 -0.000200935 0.000968346)
(0.000163764 0.000496374 0.000916722)
(2.38668e-05 -0.000167054 0.00062151)
(0.000255871 -8.29146e-05 0.000565927)
(-0.000299582 0.000241677 0.00156036)
(-0.000114347 0.000470377 0.00110525)
(0.000300009 -0.000903039 0.00215538)
(0.000353478 -0.000238851 0.000690871)
(0.000191473 0.000441617 0.0012803)
(-0.000200959 0.000563448 0.00129258)
(-0.000155231 -0.000234012 0.000389202)
(0.000172038 -1.99806e-05 0.00163317)
(0.000381141 3.4971e-05 0.000876718)
(-5.41117e-05 -0.000153109 0.000625868)
(-0.000127816 -0.00010091 0.000540893)
(-0.000264759 -0.000210218 0.000329128)
(0.000184645 0.000209777 0.000790078)
(-1.47135e-05 -0.000220939 0.000556189)
(0.000238692 -0.000135784 0.000928731)
(8.20722e-05 -0.000245903 0.00109085)
(-0.000156399 -5.98888e-05 0.0005132)
(3.41285e-05 6.25336e-05 0.000562214)
(0.000505849 -0.000340278 0.00229225)
(0.00022877 -0.000125252 0.000824314)
(-0.000163202 -0.000115615 0.000779556)
(-0.00031268 0.000201234 0.00107793)
(-0.000179009 -0.000116188 0.000242988)
(-8.86333e-05 -0.000132029 -5.07128e-05)
(-0.000146659 -0.000105103 0.000325108)
(-3.63494e-05 6.12207e-05 0.000401699)
(0.000164651 -0.000207291 0.000654961)
(-0.000179789 -0.000273806 0.000149472)
(-0.000166573 -8.89093e-05 0.000222629)
(-0.000114066 -8.47485e-05 0.000254003)
(0.000507201 -0.000233226 0.000862075)
(2.0036e-05 -0.000246595 0.000407627)
(-0.000206849 -0.000381461 0.000213145)
(-0.000116369 -0.000340539 0.000568817)
(6.88552e-05 -0.000392236 0.00145561)
(9.92172e-05 -0.000251349 0.000962309)
(0.000178746 -0.000394207 0.00086814)
(0.000242687 -0.00025562 0.000976424)
(0.000390934 -0.000116238 7.69576e-05)
(1.95206e-05 -4.37643e-05 -0.000146108)
(-0.000246072 -0.000168147 -0.000116616)
(-0.000144967 -0.000322894 0.000335575)
(-0.000231734 -0.000211963 0.000248565)
(-2.82449e-05 -4.77124e-05 0.000183456)
(-0.000415344 -0.00014497 0.00017468)
(-0.000271818 -0.000443036 0.000325367)
(0.000445576 -0.000386846 0.00083409)
(0.000477603 -0.000261288 0.000273031)
(0.000166123 0.000217817 0.000167116)
(-0.000318673 -7.63863e-05 0.000153726)
(-0.000470052 -0.000935909 0.000942974)
(0.000301205 -0.000717331 0.000512124)
(0.000386013 0.000115433 0.000152013)
(-6.51232e-05 -0.000395831 0.000606652)
(0 0 0)
(0 0 0)
(0 0 0)
(0 0 0)
(0 0 0)
(0 0 0)
(0 0 0)
(0 0 0)
(0 0 0)
(0 0 0)
(0 0 0)
(0 0 0)
(0 0 0)
(0 0 0)
(0 0 0)
(0 0 0)
(0 0 0)
(0 0 0)
(0 0 0)
(0 0 0)
(0 0 0)
(0 0 0)
(0 0 0)
(0 0 0)
(0 0 0)
(0 0 0)
(0 0 0)
(0 0 0)
(0 0 0)
(0 0 0)
(0 0 0)
(0 0 0)
(0 0 0)
(0 0 0)
(0 0 0)
(0 0 0)
(0 0 0)
(0 0 0)
(0 0 0)
(0 0 0)
(0 0 0)
(0 0 0)
(0 0 0)
(0 0 0)
(0 0 0)
(0 0 0)
(0 0 0)
(0 0 0)
(0 0 0)
(0 0 0)
(0 0 0)
(0 0 0)
(0 0 0)
(0 0 0)
(0 0 0)
(0 0 0)
(0 0 0)
(0 0 0)
(0 0 0)
(0 0 0)
(0 0 0)
(0 0 0)
(0 0 0)
(0 0 0)
(0 0 0)
(0 0 0)
(0 0 0)
(0 0 0)
(0 0 0)
(0 0 0)
(0 0 0)
(0 0 0)
(0 0 0)
(0 0 0)
(0 0 0)
(0 0 0)
(0 0 0)
(0 0 0)
(0 0 0)
(0 0 0)
(0 0 0)
(0 0 0)
(0 0 0)
(0 0 0)
(0 0 0)
(0 0 0)
(0 0 0)
(0 0 0)
(0 0 0)
(0 0 0)
(0 0 0)
(0 0 0)
(0 0 0)
(0 0 0)
(0 0 0)
(0 0 0)
(0 0 0)
(0 0 0)
(0 0 0)
(0 0 0)
(0 0 0)
(0 0 0)
(0 0 0)
(0 0 0)
(0 0 0)
(0 0 0)
(0 0 0)
(0 0 0)
(0 0 0)
(0 0 0)
(0 0 0)
(0 0 0)
(0 0 0)
(0 0 0)
(0 0 0)
(0 0 0)
(0 0 0)
(0 0 0)
(0 0 0)
(0 0 0)
(0 0 0)
(0 0 0)
(0 0 0)
(0 0 0)
(0 0 0)
(0 0 0)
(0 0 0)
(0 0 0)
(0 0 0)
(0 0 0)
(0 0 0)
(0 0 0)
(0 0 0)
(0 0 0)
(0 0 0)
(0 0 0)
(0 0 0)
(0 0 0)
(0 0 0)
(0 0 0)
(0 0 0)
(0 0 0)
(0 0 0)
(0 0 0)
(0 0 0)
(0 0 0)
(0 0 0)
(0 0 0)
(0 0 0)
(0 0 0)
(0 0 0)
(0 0 0)
(0 0 0)
(0 0 0)
(0 0 0)
(0 0 0)
(0 0 0)
(0 0 0)
(0 0 0)
(0 0 0)
(0 0 0)
(0 0 0)
(0 0 0)
(0 0 0)
(0 0 0)
(0 0 0)
(0 0 0)
(0 0 0)
(0 0 0)
(0 0 0)
(0 0 0)
(0 0 0)
(0 0 0)
(0 0 0)
(0 0 0)
(0 0 0)
(0 0 0)
(0 0 0)
(0 0 0)
(0 0 0)
(0 0 0)
(0 0 0)
(0 0 0)
(0 0 0)
(0 0 0)
(0 0 0)
(0 0 0)
(0 0 0)
(0 0 0)
(0 0 0)
(0 0 0)
(0 0 0)
(0 0 0)
(0 0 0)
(0 0 0)
(0 0 0)
(0 0 0)
(0 0 0)
(0 0 0)
(0 0 0)
(0 0 0)
(0 0 0)
(0 0 0)
(0 0 0)
(0 0 0)
(0 0 0)
(0 0 0)
(0 0 0)
(0 0 0)
(0 0 0)
(0 0 0)
(0 0 0)
(0 0 0)
(0 0 0)
(0 0 0)
(0 0 0)
(0 0 0)
(0 0 0)
(0 0 0)
(0 0 0)
(0 0 0)
(0 0 0)
(0 0 0)
(0 0 0)
(0 0 0)
(0 0 0)
(0 0 0)
(0 0 0)
(0 0 0)
(0 0 0)
(0 0 0)
(0 0 0)
(0 0 0)
(0 0 0)
(0 0 0)
(0 0 0)
(0 0 0)
(0 0 0)
(0 0 0)
(0 0 0)
(0 0 0)
(0 0 0)
(0 0 0)
(0 0 0)
(0 0 0)
(0 0 0)
(0 0 0)
(0 0 0)
(0 0 0)
(0 0 0)
(0 0 0)
(0 0 0)
(0 0 0)
(0 0 0)
(0 0 0)
(0 0 0)
(0 0 0)
(0 0 0)
(0 0 0)
(0 0 0)
(0 0 0)
(0 0 0)
(0 0 0)
(0 0 0)
(0 0 0)
(0 0 0)
(0 0 0)
(0 0 0)
(0 0 0)
(0 0 0)
(0 0 0)
(0 0 0)
(5.08983e-05 0.000226018 0.000114335)
(0.00057611 -0.000340736 1.77764e-05)
(8.64946e-05 4.71994e-05 9.89377e-05)
(-6.64998e-05 -1.61564e-05 2.14341e-05)
(0.000624198 -2.71813e-05 -5.89833e-05)
(5.67569e-05 0.000204088 -9.72057e-05)
(0.000213459 0.000212728 -5.95996e-05)
(-1.01526e-06 9.18415e-05 -7.56338e-05)
(0.000523397 8.2174e-05 0.000182629)
(0.000356572 -5.54691e-05 0.000276295)
(0.000189268 0.000340466 -0.000107594)
(0.000140449 0.000332284 0.000157221)
(-0.000114709 -0.000205613 -0.000192393)
(0.000247182 -1.27395e-05 -4.75529e-05)
(0.000170376 -0.000449465 4.73705e-05)
(0.000135861 4.57186e-05 5.94386e-05)
(3.72152e-05 -2.39163e-05 3.59126e-05)
(3.75803e-05 0.000193138 0.000356563)
(-0.000333092 0.000558535 0.000501165)
(0.000319996 0.000814937 0.000433546)
(0.00030307 0.000250085 0.000566726)
(-9.83945e-05 0.00027106 0.000380709)
(-0.000105555 0.00014757 0.000412676)
(0.000119595 0.000202066 0.000379718)
(0.000532989 0.000518508 0.000633134)
(0.00072368 -1.05502e-05 0.00126213)
(0.000208316 -0.000233305 0.000805902)
(-3.9772e-05 0.000109312 0.00127967)
(1.67323e-05 0.000107198 0.000584035)
(3.0685e-05 -0.000128673 0.000364558)
(-0.000161495 -7.12788e-05 0.000400932)
(-0.00016548 7.87639e-05 0.000447587)
(-0.00024626 9.94955e-05 0.000584884)
(0.000560348 -0.00016876 0.00119222)
(0.000137062 -0.000258763 0.00053401)
(7.45577e-05 0.000117474 0.00341499)
(-2.89843e-05 -0.000333957 0.00177696)
(-0.000255844 -0.000227566 0.00202093)
(-5.25525e-05 -0.000405703 0.00133532)
(0.00022813 0.000199505 0.00120162)
(-0.000149352 1.92094e-05 0.00129704)
(-0.000470557 -8.61853e-05 0.00139204)
(-0.000550345 -3.88966e-05 0.000803905)
(-0.000276574 -0.000118198 0.000727607)
(-0.000230906 -0.000101942 0.000907361)
(-0.000270784 -0.000437126 0.000802174)
(0.00030756 -0.000134258 0.00170159)
(-0.000130122 0.000431811 0.0017122)
(-3.24311e-05 3.47481e-05 0.000432323)
(0.000253155 7.70158e-05 0.000490237)
(1.77029e-05 5.20119e-05 0.000507655)
(-0.000614677 -0.000339244 0.00162108)
(0.000175658 -0.000273465 0.00222986)
(-0.00047534 -8.95605e-05 0.000898202)
(-0.000210657 0.000333403 0.0021887)
(0.00030844 0.000515732 0.00224983)
(-0.000156048 -0.000254513 0.0010297)
(-0.000182494 -8.42549e-06 0.00121384)
(-0.000314946 -2.90873e-05 0.00122239)
(-0.000380799 0.000135024 0.00157179)
(5.10707e-05 -0.000154526 0.000930931)
(-1.16291e-05 -0.00012303 0.00101663)
(0.000172707 -0.000144975 0.00180191)
(-2.22644e-05 -0.000234038 0.00209863)
(4.97207e-05 -0.000328182 0.000425774)
(0.000278822 -0.000108992 0.00034298)
(0.000223539 -0.000113879 0.000473579)
(5.18002e-05 -6.32906e-05 0.000458335)
(9.87786e-05 -0.000254948 0.000885608)
(0.000315124 -5.15449e-05 0.00107334)
(7.24775e-05 7.06633e-05 0.000825249)
(-5.58786e-05 5.14952e-05 0.000741852)
(0.000184566 -0.000169123 0.0008802)
(0.000294127 -0.000111649 0.00107666)
(0.000782097 -0.000457212 0.00230879)
(-0.000152714 -8.71892e-05 0.00082201)
(8.10079e-05 -0.000167015 0.00113289)
(0.000254529 -0.000389951 0.000996565)
(0.000140906 -0.000332867 0.00130024)
(-0.000580801 0.000128001 0.00175835)
(0.000330049 -0.000469571 0.000578069)
(0.000289853 -0.000253616 0.000253973)
(-3.42759e-06 -0.000100014 0.000297507)
(5.71066e-05 0.000108309 0.000430025)
(0.000295317 -0.000502423 0.000783928)
(0.000429272 -0.000101469 0.000735094)
(0.000261268 2.73005e-05 0.000761952)
(5.84327e-05 0.000115885 0.000415009)
(0.000230715 -0.00026193 0.000742328)
(0.000251691 -0.000146534 0.000843415)
(7.1519e-05 -7.72008e-05 0.00077847)
(0.000106233 -0.00017215 0.000165798)
(7.58345e-05 -0.000190539 0.000991013)
(0.000106579 -0.000258521 0.000911824)
(7.27052e-05 -0.000391934 0.000932136)
(4.3199e-05 -0.000127818 0.000709872)
(-0.000273113 -0.00050733 0.000467453)
(-4.5778e-05 -0.000426065 0.000515096)
(-0.00021183 -0.000182533 0.000183854)
(-0.000157298 -0.000152381 0.000129992)
(6.01408e-05 -0.000538225 0.000567158)
(0.000274447 -0.000535345 0.000703432)
(6.83605e-05 0.000107647 0.000852275)
(-0.000148477 -6.80249e-06 0.000688993)
(0.00191378 -0.000506067 0.000513218)
(5.72124e-05 -0.000513094 0.000835472)
(0.000218468 -7.01727e-05 0.000742882)
(0.00117874 8.35849e-06 -0.000155937)
(0.00305545 -0.00068987 0.000409026)
(-0.000201469 -0.000223779 0.000936312)
(-0.000296599 -0.000819475 0.000886954)
(0.00372566 -0.00163517 0.00215523)
(0 0 0)
(0 0 0)
(0 0 0)
(0 0 0)
(0 0 0)
(0 0 0)
(0 0 0)
(0 0 0)
(0 0 0)
(0 0 0)
(0 0 0)
(0 0 0)
(0 0 0)
(0 0 0)
(0 0 0)
(0 0 0)
(0 0 0)
(0 0 0)
(0 0 0)
(0 0 0)
(0 0 0)
(0 0 0)
(0 0 0)
(0 0 0)
(0 0 0)
(0 0 0)
(0 0 0)
(0 0 0)
(0 0 0)
(0 0 0)
(0 0 0)
(0 0 0)
(0 0 0)
(0 0 0)
(0 0 0)
(0 0 0)
(0 0 0)
(0 0 0)
(0 0 0)
(0 0 0)
(0 0 0)
(0 0 0)
(0 0 0)
(0 0 0)
(0 0 0)
(0 0 0)
(0 0 0)
(0 0 0)
(0 0 0)
(0 0 0)
(0 0 0)
(0 0 0)
(0 0 0)
(0 0 0)
(0 0 0)
(0 0 0)
(0 0 0)
(0 0 0)
(0 0 0)
(0 0 0)
(0 0 0)
(0 0 0)
(0 0 0)
(0 0 0)
(0 0 0)
(0 0 0)
(0 0 0)
(0 0 0)
(0 0 0)
(0 0 0)
(0 0 0)
(0 0 0)
(0 0 0)
(0 0 0)
(0 0 0)
(0 0 0)
(0 0 0)
(0 0 0)
(0 0 0)
(0 0 0)
(0 0 0)
(0 0 0)
(0 0 0)
(0 0 0)
(0 0 0)
(0 0 0)
(0 0 0)
(0 0 0)
(0 0 0)
(0 0 0)
(0 0 0)
(0 0 0)
(0 0 0)
(0 0 0)
(0 0 0)
(0 0 0)
(0 0 0)
(0 0 0)
(0 0 0)
(0 0 0)
(0 0 0)
(0 0 0)
(0 0 0)
(0 0 0)
(0 0 0)
(0 0 0)
(0 0 0)
(0 0 0)
(0 0 0)
(0 0 0)
(0 0 0)
(0 0 0)
(0 0 0)
(0 0 0)
(0 0 0)
(0 0 0)
(0 0 0)
(0 0 0)
(0 0 0)
(0 0 0)
(0 0 0)
(0 0 0)
(0 0 0)
(0 0 0)
(0 0 0)
(0 0 0)
(0 0 0)
(0 0 0)
(0 0 0)
(0 0 0)
(0 0 0)
(0 0 0)
(0 0 0)
(0 0 0)
(0 0 0)
(0 0 0)
(0 0 0)
(0 0 0)
(0 0 0)
(0 0 0)
(0 0 0)
(0 0 0)
(0 0 0)
(0 0 0)
(0 0 0)
(0 0 0)
(0 0 0)
(0 0 0)
(0 0 0)
(0 0 0)
(0 0 0)
(0 0 0)
(0 0 0)
(0 0 0)
(0 0 0)
(0 0 0)
(0 0 0)
(0 0 0)
(0 0 0)
(0 0 0)
(0 0 0)
(0 0 0)
(0 0 0)
(0 0 0)
(0 0 0)
(0 0 0)
(0 0 0)
(0 0 0)
(0 0 0)
(0 0 0)
(0 0 0)
(0 0 0)
(0 0 0)
(0 0 0)
(0 0 0)
(0 0 0)
(0 0 0)
(0 0 0)
(0 0 0)
(0 0 0)
(0 0 0)
(0 0 0)
(0 0 0)
(0 0 0)
(0 0 0)
(0 0 0)
(0 0 0)
(0 0 0)
(0 0 0)
(0 0 0)
(0 0 0)
(0 0 0)
(0 0 0)
(0 0 0)
(0 0 0)
(0 0 0)
(0 0 0)
(0 0 0)
(0 0 0)
(0 0 0)
(0 0 0)
(0 0 0)
(0 0 0)
(0 0 0)
(0 0 0)
(0 0 0)
(0 0 0)
(0 0 0)
(0 0 0)
(0 0 0)
(0 0 0)
(0 0 0)
(0 0 0)
(0 0 0)
(0 0 0)
(0 0 0)
(0 0 0)
(0 0 0)
(0 0 0)
(0 0 0)
(0 0 0)
(0 0 0)
(0 0 0)
(0 0 0)
(0 0 0)
(0 0 0)
(0 0 0)
(0 0 0)
(0 0 0)
(0 0 0)
(0 0 0)
(0 0 0)
(0 0 0)
(0 0 0)
(0 0 0)
(0 0 0)
(0 0 0)
(0 0 0)
(0 0 0)
(0 0 0)
(0 0 0)
(0 0 0)
(0 0 0)
(0 0 0)
(0 0 0)
(0 0 0)
(0 0 0)
(0 0 0)
(0 0 0)
(0 0 0)
(0 0 0)
(0 0 0)
(0 0 0)
(0 0 0)
(0 0 0)
(0 0 0)
(0 0 0)
(0 0 0)
(0 0 0)
(0 0 0)
(0 0 0)
(0 0 0)
(0 0 0)
(0 0 0)
(0 0 0)
(0 0 0)
(0 0 0)
(0 0 0)
(0 0 0)
(0 0 0)
(0 0 0)
(0 0 0)
)
;

boundaryField
{
    inlet
    {
        type            zeroGradient;
    }
    outlet
    {
        type            zeroGradient;
    }
    wall
    {
        type            zeroGradient;
    }
    procBoundary1to0
    {
        type            processor;
        value           nonuniform List<vector> 
192
(
(0.00010222 0.000237536 -8.3723e-05)
(-2.11357e-05 0.000552641 -2.40752e-05)
(3.69092e-05 0.000628179 1.23795e-05)
(0.000237791 0.00048227 -8.48749e-05)
(0.000140417 0.000598084 0.000145779)
(-0.000486952 0.000477345 0.000482792)
(4.38019e-05 0.000472675 0.00103823)
(-0.000181266 4.7452e-05 0.00106794)
(4.49565e-05 0.000285251 0.00102176)
(0.000219976 0.000424395 0.00122229)
(1.95305e-05 0.000303887 0.00146557)
(-6.51861e-05 -0.000236871 0.00191855)
(-8.48341e-05 0.00023398 0.00144603)
(0.000471478 0.000176618 0.00234271)
(1.8338e-05 0.000294257 0.00122426)
(5.39082e-05 0.000185043 0.00149849)
(0.000226423 4.82234e-05 0.00145949)
(8.93534e-05 0.000114196 0.00139992)
(0.000127531 1.64325e-05 0.00126095)
(-0.000129728 2.82088e-05 0.00122566)
(0.000138699 9.00032e-05 0.00133286)
(-3.07287e-05 -3.83336e-05 0.00118069)
(-0.00028398 -5.06519e-05 0.0014725)
(-0.000164491 -3.6615e-05 0.00147269)
(1.41715e-05 -0.00043619 0.00104332)
(-0.000134672 -0.0002447 0.00120649)
(8.94406e-05 -0.000224799 0.0014495)
(0.000535867 0.000237726 0.000996141)
(0 0 0)
(0 0 0)
(0 0 0)
(0 0 0)
(0 0 0)
(0 0 0)
(0 0 0)
(0 0 0)
(0 0 0)
(0 0 0)
(0 0 0)
(0 0 0)
(0 0 0)
(0 0 0)
(0 0 0)
(0 0 0)
(0 0 0)
(0 0 0)
(0 0 0)
(0 0 0)
(0 0 0)
(0 0 0)
(0 0 0)
(0 0 0)
(0 0 0)
(0 0 0)
(0 0 0)
(0 0 0)
(0 0 0)
(0 0 0)
(0 0 0)
(0 0 0)
(0 0 0)
(0 0 0)
(0 0 0)
(0 0 0)
(0 0 0)
(0 0 0)
(0 0 0)
(0 0 0)
(0 0 0)
(0 0 0)
(0 0 0)
(0 0 0)
(0 0 0)
(0 0 0)
(0 0 0)
(0 0 0)
(0 0 0)
(0 0 0)
(0 0 0)
(0 0 0)
(0 0 0)
(0 0 0)
(0 0 0)
(0 0 0)
(0 0 0)
(0 0 0)
(0 0 0)
(0 0 0)
(0 0 0)
(0 0 0)
(0 0 0)
(0 0 0)
(0 0 0)
(0 0 0)
(0 0 0)
(0 0 0)
(0.000203887 -1.37009e-05 9.30346e-05)
(0.000149769 0.000150544 0.000176893)
(-2.9672e-05 -7.36291e-05 -8.23607e-05)
(-3.3004e-05 0.000168075 -5.26615e-05)
(-0.000420707 0.000107635 0.00169404)
(-0.00075282 -9.56322e-05 0.0020786)
(-0.000438642 0.00019019 0.000391683)
(0.000195483 0.000212043 0.000755635)
(-0.000411299 -0.000255036 0.0016889)
(-0.000424211 0.00021027 0.00177966)
(-0.000198208 8.314e-05 0.000927963)
(-9.68129e-05 1.38759e-05 0.000901068)
(0.000325116 -0.000580157 0.00281763)
(-0.000150264 0.000484305 0.00229801)
(0.000178403 -0.000598829 0.00248013)
(0.000171924 -0.000267015 0.00220478)
(0.000288464 -0.0001362 0.00205083)
(0.000311027 0.000315622 0.00180344)
(0.000164165 -1.71448e-06 0.00177207)
(-7.37528e-05 -0.000194091 0.00297944)
(-0.000159184 0.000474309 0.00109428)
(0.000241133 0.000151624 0.00118389)
(0.000440854 -8.81029e-05 0.00172214)
(0.000123761 9.83782e-05 0.00138259)
(0.000296321 -0.000113877 0.000686951)
(0.000521125 0.000128583 0.000946369)
(0.000726978 -0.000167064 0.00155086)
(0.000287414 -0.000360809 0.00125177)
(0 0 0)
(0 0 0)
(0 0 0)
(0 0 0)
(0 0 0)
(0 0 0)
(0 0 0)
(0 0 0)
(0 0 0)
(0 0 0)
(0 0 0)
(0 0 0)
(0 0 0)
(0 0 0)
(0 0 0)
(0 0 0)
(0 0 0)
(0 0 0)
(0 0 0)
(0 0 0)
(0 0 0)
(0 0 0)
(0 0 0)
(0 0 0)
(0 0 0)
(0 0 0)
(0 0 0)
(0 0 0)
(0 0 0)
(0 0 0)
(0 0 0)
(0 0 0)
(0 0 0)
(0 0 0)
(0 0 0)
(0 0 0)
(0 0 0)
(0 0 0)
(0 0 0)
(0 0 0)
(0 0 0)
(0 0 0)
(0 0 0)
(0 0 0)
(0 0 0)
(0 0 0)
(0 0 0)
(0 0 0)
(0 0 0)
(0 0 0)
(0 0 0)
(0 0 0)
(0 0 0)
(0 0 0)
(0 0 0)
(0 0 0)
(0 0 0)
(0 0 0)
(0 0 0)
(0 0 0)
(0 0 0)
(0 0 0)
(0 0 0)
(0 0 0)
(0 0 0)
(0 0 0)
(0 0 0)
(0 0 0)
)
;
    }
    procBoundary1to3
    {
        type            processor;
        value           nonuniform List<vector> 
192
(
(-0.000138959 0.00023176 0.000425174)
(-0.000465317 0.000304936 0.000159712)
(0.000239037 -0.000112843 0.0001455)
(-8.55419e-05 -0.000111131 -4.15697e-05)
(-0.00091744 -0.000679914 0.00232898)
(-0.000294548 -0.00055542 0.00120805)
(0.000502438 -0.000226427 0.00204113)
(-0.000155375 0.000276116 0.000811587)
(0.000335839 -7.51787e-05 0.00263084)
(-0.000316429 -0.000580649 0.00154237)
(-0.00069255 -7.01954e-05 0.00156815)
(1.41434e-05 -0.000302266 0.00126314)
(0.000156163 -3.05866e-05 0.00117582)
(-5.97093e-05 2.85307e-05 0.00130565)
(-3.1589e-05 -0.0004113 0.000981812)
(-2.42131e-05 -0.000277486 0.00146988)
(-0.000121027 -8.30631e-05 0.000979159)
(4.6448e-05 1.27616e-05 0.00106175)
(0.000344935 -0.000523669 0.00151402)
(0.000277203 -0.000129963 0.00161021)
(5.8635e-06 0.000237885 0.00101671)
(0.0003495 0.00025358 0.000866118)
(0.000321314 -0.000432352 0.00112223)
(-3.45504e-05 -0.000104492 0.000935327)
(0.000569919 0.000542954 0.000927234)
(0.00165195 -0.000670601 0.000326297)
(-4.98734e-05 -0.000221115 8.61051e-05)
(-0.000320329 -0.000190916 0.00093529)
(0 0 0)
(0 0 0)
(0 0 0)
(0 0 0)
(0 0 0)
(0 0 0)
(0 0 0)
(0 0 0)
(0 0 0)
(0 0 0)
(0 0 0)
(0 0 0)
(0 0 0)
(0 0 0)
(0 0 0)
(0 0 0)
(0 0 0)
(0 0 0)
(0 0 0)
(0 0 0)
(0 0 0)
(0 0 0)
(0 0 0)
(0 0 0)
(0 0 0)
(0 0 0)
(0 0 0)
(0 0 0)
(0 0 0)
(0 0 0)
(0 0 0)
(0 0 0)
(0 0 0)
(0 0 0)
(0 0 0)
(0 0 0)
(0 0 0)
(0 0 0)
(0 0 0)
(0 0 0)
(0 0 0)
(0 0 0)
(0 0 0)
(0 0 0)
(0 0 0)
(0 0 0)
(0 0 0)
(0 0 0)
(0 0 0)
(0 0 0)
(0 0 0)
(0 0 0)
(0 0 0)
(0 0 0)
(0 0 0)
(0 0 0)
(0 0 0)
(0 0 0)
(0 0 0)
(0 0 0)
(0 0 0)
(0 0 0)
(0 0 0)
(0 0 0)
(0 0 0)
(0 0 0)
(0 0 0)
(0 0 0)
(-4.9532e-05 4.67025e-05 -9.28947e-05)
(0.000147796 -0.000181126 -0.000103357)
(0.000234337 6.15268e-06 1.45844e-05)
(-5.3495e-05 -0.000264432 -0.000103406)
(-0.000138486 -0.000390057 0.000495399)
(1.22504e-05 -0.000322114 0.00027156)
(0.000549828 5.52145e-05 0.000906541)
(0.000688236 -0.000807079 0.00189256)
(0.000289133 -0.000492513 0.000598464)
(6.04477e-05 -0.00084062 0.00140648)
(0.000302585 -0.00012479 0.00126297)
(-0.000190233 -0.00046568 0.00107122)
(5.72484e-05 -0.000590768 0.00201753)
(-0.000178333 -0.000507561 0.00127346)
(9.13001e-05 -7.85518e-05 0.00129514)
(-3.06782e-05 -0.000904417 0.00112969)
(-2.53001e-05 -0.000290916 0.00131664)
(1.42906e-05 -0.000289171 0.000998309)
(-0.000504756 2.57892e-05 0.00162807)
(-1.34456e-05 -0.000165967 0.000982777)
(6.79179e-06 -9.2237e-05 0.00120329)
(0.00011337 -0.000276624 0.00100456)
(0.0002655 -0.000369111 0.000872269)
(1.16686e-05 -0.000267408 0.000888528)
(-2.80739e-05 -0.000105801 0.00103353)
(9.49836e-06 -1.68738e-05 0.000977746)
(-9.94982e-05 -9.45193e-05 0.000903139)
(-0.000267857 4.69948e-05 0.00119682)
(0 0 0)
(0 0 0)
(0 0 0)
(0 0 0)
(0 0 0)
(0 0 0)
(0 0 0)
(0 0 0)
(0 0 0)
(0 0 0)
(0 0 0)
(0 0 0)
(0 0 0)
(0 0 0)
(0 0 0)
(0 0 0)
(0 0 0)
(0 0 0)
(0 0 0)
(0 0 0)
(0 0 0)
(0 0 0)
(0 0 0)
(0 0 0)
(0 0 0)
(0 0 0)
(0 0 0)
(0 0 0)
(0 0 0)
(0 0 0)
(0 0 0)
(0 0 0)
(0 0 0)
(0 0 0)
(0 0 0)
(0 0 0)
(0 0 0)
(0 0 0)
(0 0 0)
(0 0 0)
(0 0 0)
(0 0 0)
(0 0 0)
(0 0 0)
(0 0 0)
(0 0 0)
(0 0 0)
(0 0 0)
(0 0 0)
(0 0 0)
(0 0 0)
(0 0 0)
(0 0 0)
(0 0 0)
(0 0 0)
(0 0 0)
(0 0 0)
(0 0 0)
(0 0 0)
(0 0 0)
(0 0 0)
(0 0 0)
(0 0 0)
(0 0 0)
(0 0 0)
(0 0 0)
(0 0 0)
(0 0 0)
)
;
    }
}


// ************************************************************************* //
