/*--------------------------------*- C++ -*----------------------------------*\
| =========                 |                                                 |
| \\      /  F ield         | OpenFOAM: The Open Source CFD Toolbox           |
|  \\    /   O peration     | Version:  2506                                  |
|   \\  /    A nd           | Website:  www.openfoam.com                      |
|    \\/     M anipulation  |                                                 |
\*---------------------------------------------------------------------------*/
FoamFile
{
    version     2.0;
    format      ascii;
    arch        "LSB;label=32;scalar=64";
    class       volVectorField;
    location    "0.07";
    object      U;
}
// * * * * * * * * * * * * * * * * * * * * * * * * * * * * * * * * * * * * * //

dimensions      [0 1 -1 0 0 0 0];

internalField   nonuniform List<vector> 
1152
(
(-0.000776959 -0.00213405 0.0208274)
(7.67606e-05 -0.00256192 0.0115646)
(0.0010049 0.000368352 0.00730053)
(0.00122496 -0.000978161 0.0165082)
(3.87478e-05 0.000252312 0.0119251)
(0.00119178 0.000142975 0.0147884)
(-0.000262351 0.000979348 0.0190777)
(-0.000390347 0.000129494 0.0125501)
(-0.00199449 0.000809564 0.0194026)
(6.87033e-05 0.00100016 0.014215)
(-0.00187624 0.000855546 0.015797)
(-0.00117937 0.00151115 0.00541)
(-0.00268566 0.000670175 0.0113601)
(0.000775705 0.00198631 0.0109512)
(0.000627133 0.00130982 0.00990639)
(9.70469e-05 0.00233531 0.0190534)
(0.0016213 0.000107472 0.022777)
(0.00242814 0.0021333 0.0213877)
(-0.00324929 0.00170641 0.0437953)
(-0.00219701 0.000378735 0.039782)
(-0.00081316 0.00304153 0.0268306)
(0.000170616 -0.00118692 0.0272408)
(-0.000284757 9.02479e-06 0.034782)
(0.00104096 0.00113638 0.0344317)
(-8.47519e-05 0.00198632 0.0219726)
(0.000202174 0.00299931 0.0391957)
(0.00040285 0.00241968 0.0394374)
(-0.00231629 0.00191922 0.0365527)
(0.000444883 0.000676376 0.0271477)
(0.000666404 0.000806079 0.028975)
(-0.00181539 0.00279718 0.0490011)
(0.00161397 0.00287906 0.0155929)
(0.00110761 0.000265312 0.0171341)
(-0.00262109 0.00205228 0.0563863)
(-0.000434761 0.00102126 0.0354371)
(-3.03807e-05 0.000506019 0.0307941)
(0.000851519 -0.00101119 0.0283131)
(-0.00108662 -0.000839865 0.0252559)
(-0.000353933 -0.000665754 0.0357348)
(0.001143 0.000723064 0.0148222)
(0.000278841 -0.00180482 0.0338184)
(-0.00084799 -0.00111679 0.0320677)
(0.00128247 -0.00063345 0.0216892)
(0.00146592 0.00160373 0.0252128)
(0.000649668 -0.001018 0.0314744)
(-0.00173551 -0.00270405 0.0459031)
(0.00168216 0.00274019 0.0327163)
(0.00228837 0.000508457 0.027563)
(-0.000348873 0.00226339 0.0397579)
(0.00101427 5.05488e-05 0.028548)
(0.00197018 0.00175686 0.0400071)
(0.00177665 0.0052328 0.0474543)
(0.000921688 0.00307595 0.0411041)
(0.000699337 0.000761979 0.028483)
(0.00135007 0.000166552 0.0274997)
(-0.000501433 0.000643788 0.0258382)
(0.000953091 -0.000764676 0.0276502)
(-0.00104211 -0.00178287 0.0296368)
(0.00150621 -0.00243914 0.0366009)
(0.000420994 -0.00177652 0.0417322)
(0.00135391 -0.00371217 0.0381553)
(-0.000626257 0.0010388 0.0301593)
(0.00224531 -0.00072791 0.0303042)
(0.000581608 -0.00165074 0.0153295)
(0.000650974 0.00113065 0.0265157)
(-0.000476447 -0.00156869 0.0390342)
(-0.000288969 -0.00305603 0.0514208)
(0.000237965 -0.00184911 0.0216286)
(0.000461984 0.00135681 0.0321531)
(-0.000117269 0.000749419 0.0224339)
(-8.72147e-05 0.0010927 0.0466028)
(8.05776e-05 0.000821207 0.0338887)
(0.00386707 0.000512032 0.0702464)
(-0.000539424 0.000148882 0.0241203)
(-0.000844495 -0.000411266 0.0336582)
(-3.97519e-05 0.000123377 0.0259886)
(0.00177615 0.000115595 0.036095)
(-0.0003258 -0.000798271 0.0221105)
(0.000389033 -0.0012945 0.026415)
(0.00372393 -0.00146509 0.0361573)
(0.00201989 -0.00274185 0.0311322)
(-0.000655437 -0.000274902 0.0140067)
(-0.00134999 -0.000502248 0.0210236)
(-0.00102447 0.000248034 0.0231147)
(0.00080251 0.000690049 0.0239512)
(-0.000735383 0.000690067 0.0183308)
(-0.0011864 -0.00036465 0.0144829)
(-0.00074585 0.000567301 0.0170738)
(0.000790175 -0.000529693 0.0374615)
(-0.00149328 -0.000680688 0.0188824)
(-0.00181396 5.34909e-05 0.0288205)
(0.00117727 0.00295267 0.0239348)
(0.000331049 -0.00242297 0.0210891)
(2.03098e-06 -0.0016407 0.022752)
(0.000699872 -0.0006733 0.0160022)
(-0.000551807 -0.000246986 0.0108531)
(-0.000520107 0.00011357 0.0217669)
(-0.000422561 0.000147219 0.0152062)
(-0.000368087 -0.000402065 0.0234045)
(-0.000349167 -9.91551e-05 0.018343)
(-0.000410266 -0.000601495 0.0167015)
(-0.000538987 -0.000467668 0.0147031)
(-0.000438269 0.000188581 0.0195515)
(-0.000306455 -0.000263368 0.0166521)
(-0.000782334 -0.000347582 0.0469281)
(0.000984061 -0.00042813 0.0178762)
(-0.000392987 -6.12612e-05 0.0158969)
(-0.000570547 -0.000334811 0.0192885)
(-0.000184283 -0.000224577 0.0203079)
(0.00154669 -0.000636276 0.0169407)
(-0.000548561 -0.000304349 0.0139638)
(-0.000989207 0.000278292 0.012546)
(-0.00135604 4.60314e-05 0.0259896)
(-0.000941336 0.000337873 0.0216588)
(-0.00089349 4.0118e-05 0.0264778)
(-0.000991973 0.000308822 0.0214659)
(-0.0012667 -0.000939669 0.0250924)
(-0.000777845 -0.000151653 0.0207541)
(-0.000691707 0.000120235 0.0218231)
(-0.00065511 0.000290898 0.0185554)
(-0.00130678 0.000386819 0.0398399)
(0.000370169 0.000442078 0.027293)
(-0.000452078 0.000464028 0.0184831)
(-0.000469495 0.000252455 0.0232602)
(-0.00111276 0.00173317 0.0283229)
(-0.000606221 0.000726442 0.024988)
(-0.000992271 0.000845537 0.0183208)
(-0.00078917 0.000862695 0.025341)
(-0.000145995 -0.000271009 0.00960342)
(0.000204873 0.000173402 0.00919154)
(0.00013534 -9.19144e-05 0.00982012)
(-2.16288e-05 -0.000390368 0.00948772)
(0.000141875 -0.0012211 0.00994174)
(0.00061582 -0.000694524 0.00903367)
(0.000190454 -8.35648e-05 0.00891909)
(-0.000260235 -0.000444063 0.00881529)
(2.24586e-05 -0.000436014 0.0128096)
(0.00134085 -0.000591443 0.0103872)
(0.000361224 -0.000376933 0.0088662)
(-0.000524849 -0.000754853 0.00935205)
(1.06278e-05 0.000519927 0.0105748)
(0.000639097 -0.000502932 0.00978123)
(-3.95358e-05 -0.000599952 0.00867662)
(-0.000914144 -0.000392594 0.00961707)
(9.028e-05 -0.00017505 0.0153514)
(0.000224234 -3.61863e-05 0.0149442)
(0.000142771 -0.00013924 0.014924)
(7.63722e-07 -0.000312278 0.0146424)
(0.000145587 -0.000498948 0.0155979)
(0.000343629 -0.000379836 0.014966)
(0.000118963 -0.000211854 0.0146524)
(-0.000169751 -0.000377158 0.0145274)
(-7.02009e-07 -0.000142351 0.0166152)
(0.00049651 -0.000320611 0.0156167)
(0.000126595 -0.00032828 0.0148707)
(-0.000328941 -0.000522624 0.0149203)
(-0.000204423 0.000320206 0.0160318)
(0.000138821 -0.000200547 0.0155554)
(-0.000109334 -0.000364512 0.0149696)
(-0.000556087 -0.000401934 0.015199)
(0.000132974 -0.000100455 0.0142199)
(0.000179508 -7.52483e-05 0.0140329)
(0.000119934 -0.000119847 0.0139489)
(1.57242e-05 -0.00020602 0.0138425)
(0.000132508 -0.000231843 0.0143291)
(0.000193054 -0.000219482 0.0140753)
(8.19509e-05 -0.000203545 0.0139142)
(-8.22358e-05 -0.000279925 0.0138616)
(7.78926e-05 -0.000150619 0.0146336)
(0.000202829 -0.000224279 0.0143172)
(5.14032e-05 -0.000258619 0.0140526)
(-0.000169221 -0.000345355 0.014057)
(3.77722e-06 -3.11661e-05 0.0144199)
(7.90053e-05 -0.000183185 0.0142999)
(-4.83582e-05 -0.000251969 0.0141211)
(-0.0002771 -0.000296396 0.0142082)
(9.90446e-05 -4.49736e-05 0.0143798)
(0.000107657 -5.20044e-05 0.0142878)
(6.73854e-05 -8.04437e-05 0.0142177)
(-1.54619e-06 -0.00012764 0.0141684)
(7.93131e-05 -9.85158e-05 0.0144356)
(9.09684e-05 -0.000119085 0.0143265)
(3.36348e-05 -0.000139845 0.0142426)
(-5.68798e-05 -0.00018514 0.0142137)
(3.93678e-05 -7.95121e-05 0.0145452)
(6.49307e-05 -0.000131038 0.0144288)
(-1.36323e-06 -0.000169705 0.0143271)
(-0.000107913 -0.000218977 0.0143195)
(-1.67733e-05 -4.19728e-05 0.014519)
(1.3827e-07 -0.000115967 0.0144575)
(-5.67277e-05 -0.000164209 0.0143869)
(-0.000164351 -0.000201198 0.014411)
(5.35666e-05 -1.84474e-05 0.0144315)
(5.19072e-05 -2.95121e-05 0.0143868)
(2.71168e-05 -4.84544e-05 0.0143482)
(-1.42202e-05 -7.54014e-05 0.0143263)
(3.71638e-05 -4.7193e-05 0.0144544)
(3.48927e-05 -6.59911e-05 0.0144097)
(3.90509e-06 -8.58649e-05 0.014373)
(-4.49523e-05 -0.00011307 0.0143619)
(1.37611e-05 -5.00188e-05 0.0144918)
(1.28549e-05 -7.84077e-05 0.0144531)
(-2.07049e-05 -0.000104128 0.0144195)
(-7.40323e-05 -0.000132005 0.0144198)
(-1.57011e-05 -4.18338e-05 0.0144915)
(-1.96446e-05 -7.52876e-05 0.0144761)
(-5.03986e-05 -0.000102312 0.0144587)
(-0.000103352 -0.000124959 0.0144742)
(2.34955e-05 -7.17949e-06 0.014463)
(1.95687e-05 -1.62207e-05 0.0144414)
(4.67607e-06 -2.87961e-05 0.0144227)
(-1.85254e-05 -4.48687e-05 0.0144137)
(1.25227e-05 -2.4501e-05 0.014473)
(7.26302e-06 -3.73249e-05 0.0144542)
(-1.017e-05 -5.12736e-05 0.0144391)
(-3.61384e-05 -6.75205e-05 0.0144365)
(-1.10613e-06 -3.11385e-05 0.014489)
(-7.34001e-06 -4.70851e-05 0.0144755)
(-2.57154e-05 -6.27592e-05 0.0144651)
(-5.27702e-05 -7.86778e-05 0.0144693)
(-1.69825e-05 -3.13135e-05 0.0144951)
(-2.46096e-05 -4.79433e-05 0.0144918)
(-4.20139e-05 -6.28545e-05 0.0144898)
(-6.84485e-05 -7.59342e-05 0.0145015)
(7.55632e-06 -3.15844e-06 0.0144858)
(3.71142e-06 -9.49905e-06 0.014476)
(-5.28943e-06 -1.76586e-05 0.014468)
(-1.78545e-05 -2.75209e-05 0.0144654)
(6.7111e-07 -1.39536e-05 0.0144902)
(-4.30644e-06 -2.20275e-05 0.0144828)
(-1.44714e-05 -3.08824e-05 0.0144778)
(-2.82743e-05 -4.05378e-05 0.014479)
(-7.32175e-06 -1.98654e-05 0.0144977)
(-1.32878e-05 -2.89072e-05 0.014494)
(-2.3858e-05 -3.81496e-05 0.0144924)
(-3.79241e-05 -4.727e-05 0.0144976)
(-1.59878e-05 -2.18564e-05 0.0145033)
(-2.27491e-05 -3.06041e-05 0.0145044)
(-3.2957e-05 -3.8899e-05 0.0145073)
(-4.65196e-05 -4.63384e-05 0.0145166)
(6.62135e-08 -1.98352e-06 0.0145015)
(-3.04597e-06 -6.15396e-06 0.0144975)
(-8.53498e-06 -1.1346e-05 0.0144947)
(-1.52758e-05 -1.74611e-05 0.0144948)
(-4.15273e-06 -8.73166e-06 0.0145035)
(-8.05504e-06 -1.36556e-05 0.0145011)
(-1.41354e-05 -1.90662e-05 0.0145003)
(-2.15253e-05 -2.47916e-05 0.0145028)
(-8.85635e-06 -1.30594e-05 0.0145074)
(-1.34257e-05 -1.82261e-05 0.0145073)
(-1.96963e-05 -2.3602e-05 0.0145087)
(-2.7173e-05 -2.88358e-05 0.0145136)
(-1.36669e-05 -1.49906e-05 0.0145114)
(-1.87074e-05 -1.97273e-05 0.0145138)
(-2.48241e-05 -2.43661e-05 0.0145177)
(-3.19664e-05 -2.85736e-05 0.0145248)
(-2.93271e-06 -1.72987e-06 0.0145119)
(-5.231e-06 -4.39273e-06 0.0145106)
(-8.58974e-06 -7.6499e-06 0.0145102)
(-1.22976e-05 -1.14277e-05 0.0145115)
(-5.51743e-06 -5.90946e-06 0.0145129)
(-8.32072e-06 -8.88303e-06 0.0145127)
(-1.20108e-05 -1.21583e-05 0.0145135)
(-1.60525e-05 -1.55787e-05 0.0145162)
(-8.2863e-06 -8.82883e-06 0.0145152)
(-1.15118e-05 -1.18045e-05 0.0145163)
(-1.53019e-05 -1.49302e-05 0.0145184)
(-1.93678e-05 -1.79538e-05 0.0145225)
(-1.09938e-05 -1.02663e-05 0.0145178)
(-1.45023e-05 -1.28834e-05 0.0145203)
(-1.82177e-05 -1.5491e-05 0.0145239)
(-2.2067e-05 -1.78699e-05 0.0145292)
(-3.72542e-06 -1.65794e-06 0.0145189)
(-5.34384e-06 -3.34578e-06 0.0145188)
(-7.40834e-06 -5.37786e-06 0.0145193)
(-9.54965e-06 -7.69671e-06 0.0145208)
(-5.32225e-06 -4.22642e-06 0.0145194)
(-7.2583e-06 -6.02755e-06 0.01452)
(-9.52267e-06 -8.02247e-06 0.0145213)
(-1.18019e-05 -1.00934e-05 0.0145236)
(-6.96576e-06 -6.10976e-06 0.0145208)
(-9.16428e-06 -7.84238e-06 0.0145222)
(-1.14873e-05 -9.67131e-06 0.0145243)
(-1.37486e-05 -1.14361e-05 0.0145274)
(-8.51078e-06 -7.06699e-06 0.0145226)
(-1.08809e-05 -8.53574e-06 0.0145248)
(-1.31599e-05 -1.00088e-05 0.0145277)
(-1.52731e-05 -1.13552e-05 0.0145315)
(-3.53592e-06 -1.55714e-06 0.0145234)
(-4.66021e-06 -2.62694e-06 0.0145238)
(-5.95456e-06 -3.89138e-06 0.0145246)
(-7.24159e-06 -5.30247e-06 0.014526)
(-4.5329e-06 -3.12739e-06 0.0145238)
(-5.85846e-06 -4.23237e-06 0.0145246)
(-7.26672e-06 -5.45349e-06 0.0145259)
(-8.58403e-06 -6.71228e-06 0.0145278)
(-5.51934e-06 -4.30676e-06 0.0145247)
(-7.00592e-06 -5.3276e-06 0.014526)
(-8.44552e-06 -6.4009e-06 0.0145278)
(-9.72231e-06 -7.43405e-06 0.0145301)
(-6.41439e-06 -4.90349e-06 0.0145258)
(-8.00011e-06 -5.73364e-06 0.0145276)
(-9.40629e-06 -6.5639e-06 0.0145299)
(-1.05776e-05 -7.32087e-06 0.0145327)
(-2.97933e-06 -1.3794e-06 0.0145263)
(-3.7702e-06 -2.05366e-06 0.0145269)
(-4.59916e-06 -2.83103e-06 0.0145277)
(-5.37189e-06 -3.67712e-06 0.0145288)
(-3.59974e-06 -2.34347e-06 0.0145266)
(-4.51384e-06 -3.02281e-06 0.0145274)
(-5.39698e-06 -3.75932e-06 0.0145286)
(-6.15916e-06 -4.51013e-06 0.01453)
(-4.19551e-06 -3.05922e-06 0.0145272)
(-5.20201e-06 -3.66212e-06 0.0145283)
(-6.09569e-06 -4.28462e-06 0.0145298)
(-6.81547e-06 -4.88057e-06 0.0145316)
(-4.72228e-06 -3.41112e-06 0.014528)
(-5.77597e-06 -3.8782e-06 0.0145294)
(-6.64017e-06 -4.33902e-06 0.0145312)
(-7.2862e-06 -4.75609e-06 0.0145332)
(-2.33012e-06 -1.12665e-06 0.0145281)
(-2.88571e-06 -1.53826e-06 0.0145286)
(-3.413e-06 -2.00354e-06 0.0145294)
(-3.85504e-06 -2.49772e-06 0.0145303)
(-2.70483e-06 -1.71771e-06 0.0145283)
(-3.32932e-06 -2.12374e-06 0.0145291)
(-3.87681e-06 -2.55127e-06 0.0145301)
(-4.3051e-06 -2.98045e-06 0.0145312)
(-3.06083e-06 -2.13823e-06 0.0145288)
(-3.73192e-06 -2.48847e-06 0.0145297)
(-4.27708e-06 -2.83888e-06 0.0145309)
(-4.67369e-06 -3.17054e-06 0.0145323)
(-3.37278e-06 -2.33544e-06 0.0145293)
(-4.05755e-06 -2.5948e-06 0.0145305)
(-4.57684e-06 -2.84371e-06 0.0145319)
(-4.92469e-06 -3.06624e-06 0.0145334)
(-1.68961e-06 -8.25389e-07 0.0145291)
(-2.06017e-06 -1.06387e-06 0.0145296)
(-2.38017e-06 -1.33035e-06 0.0145303)
(-2.61353e-06 -1.60654e-06 0.0145312)
(-1.90257e-06 -1.1783e-06 0.0145293)
(-2.30808e-06 -1.40659e-06 0.01453)
(-2.63402e-06 -1.64137e-06 0.0145309)
(-2.86218e-06 -1.87235e-06 0.0145319)
(-2.10689e-06 -1.41848e-06 0.0145297)
(-2.53269e-06 -1.61432e-06 0.0145305)
(-2.85145e-06 -1.80265e-06 0.0145315)
(-3.06102e-06 -1.97732e-06 0.0145326)
(-2.28794e-06 -1.52475e-06 0.0145301)
(-2.71189e-06 -1.66643e-06 0.0145311)
(-3.00955e-06 -1.79626e-06 0.0145322)
(-3.18901e-06 -1.90962e-06 0.0145334)
(-1.10205e-06 -5.30315e-07 0.0145297)
(-1.32556e-06 -6.57707e-07 0.0145302)
(-1.50234e-06 -8.0109e-07 0.0145309)
(-1.61559e-06 -9.45842e-07 0.0145316)
(-1.21361e-06 -7.24585e-07 0.0145299)
(-1.45421e-06 -8.4298e-07 0.0145306)
(-1.63275e-06 -9.64354e-07 0.0145313)
(-1.74584e-06 -1.08039e-06 0.0145322)
(-1.32281e-06 -8.54416e-07 0.0145302)
(-1.57188e-06 -9.57517e-07 0.0145309)
(-1.74366e-06 -1.05316e-06 0.0145318)
(-1.84688e-06 -1.13911e-06 0.0145327)
(-1.42136e-06 -9.10893e-07 0.0145305)
(-1.66589e-06 -9.86277e-07 0.0145314)
(-1.82288e-06 -1.05028e-06 0.0145323)
(-1.90847e-06 -1.10372e-06 0.0145333)
(-6.32071e-07 -3.08793e-07 0.0145301)
(-7.50998e-07 -3.76729e-07 0.0145306)
(-8.41206e-07 -4.52157e-07 0.0145312)
(-8.99045e-07 -5.27613e-07 0.0145319)
(-6.90553e-07 -4.09856e-07 0.0145303)
(-8.18696e-07 -4.70158e-07 0.0145309)
(-9.09847e-07 -5.32948e-07 0.0145316)
(-9.66392e-07 -5.92728e-07 0.0145323)
(-7.45347e-07 -4.79914e-07 0.0145305)
(-8.78576e-07 -5.29875e-07 0.0145312)
(-9.66709e-07 -5.77427e-07 0.014532)
(-1.01709e-06 -6.19852e-07 0.0145328)
(-7.90931e-07 -5.13496e-07 0.0145308)
(-9.2469e-07 -5.49295e-07 0.0145315)
(-1.00649e-06 -5.77968e-07 0.0145324)
(-1.04707e-06 -6.00419e-07 0.0145333)
(0.000219716 0.00166866 0.0191186)
(-0.000773704 0.00163189 0.0121508)
(-0.00118896 0.000915737 0.014742)
(1.34043e-05 0.00141249 0.0228786)
(-0.00152286 0.000336141 0.0088852)
(0.000486014 -0.000678606 0.0186267)
(-0.00140552 0.00236959 0.0185204)
(-0.00138465 0.00109513 0.0153257)
(-0.00282176 0.00186621 0.0198264)
(0.000680759 -7.53216e-05 0.0172474)
(0.000184994 0.0012655 0.017451)
(-0.0037871 0.00276534 0.0201493)
(-0.00219678 -0.000797753 0.0134796)
(0.000579769 -0.000764946 0.0166689)
(0.00113541 0.000548745 0.0133617)
(-0.00351391 0.00201423 0.0193188)
(0.00010366 -0.00158942 0.0260304)
(0.0032018 -0.00307263 0.0647168)
(0.00156703 0.000954329 0.0226687)
(0.000194032 0.00424046 0.029805)
(-0.000385068 -0.00104534 0.0290725)
(0.000957537 -0.000666576 0.020198)
(0.00354671 0.00154226 0.0383352)
(0.000776791 -0.000766371 0.0248492)
(1.12678e-05 -0.000259016 0.0236985)
(0.00224377 0.000220466 0.0339993)
(0.000690062 0.0021414 0.0385012)
(0.00038681 -0.00185948 0.0354665)
(-0.000833851 -0.000766908 0.0449024)
(0.00287872 3.23768e-05 0.0226956)
(0.00103244 0.00176307 0.041021)
(0.000721673 8.16699e-05 0.0402772)
(-0.000355862 -0.00340514 0.0314107)
(0.00116197 0.000477985 0.0233705)
(0.00279351 0.001578 0.029609)
(0.000348097 0.00130591 0.0566232)
(0.00243465 -0.00141448 0.0206168)
(0.00123601 0.00183567 0.0289984)
(0.00186902 -0.00062328 0.0339676)
(0.00014122 0.00508794 0.0478616)
(0.00330587 -0.00176607 0.0422846)
(0.00129489 -5.1791e-05 0.0364607)
(0.00547283 -0.00011081 0.0404063)
(0.0014912 0.000957069 0.0269344)
(0.00286209 0.000656647 0.0273751)
(0.000778348 0.0013018 0.0259895)
(0.00276605 -0.000376091 0.0454398)
(0.00242602 -0.0011456 0.0266097)
(0.0038452 0.00257284 0.0534477)
(0.00026814 0.00179202 0.0283709)
(-0.00563436 -0.000725619 0.0537344)
(0.00112622 -0.0018975 0.0244783)
(0.00224255 -0.00105966 0.0182407)
(0.00198651 -0.00121414 0.0367447)
(-0.000104699 -0.00174088 0.024915)
(0.00238478 0.00143267 0.0273871)
(0.00094838 -0.000298723 0.0273678)
(0.000947326 -0.00112695 0.0229105)
(0.00151863 -0.00230415 0.0361959)
(0.00677965 0.00552696 0.0680261)
(-0.000945632 0.000715742 0.031216)
(-0.00104167 -0.000897936 0.0347938)
(0.0010884 -0.000289756 0.0287814)
(0.0027752 0.00174876 0.0476412)
(0.000819444 -4.42214e-05 0.0393654)
(-0.00232734 -0.00268939 0.0444944)
(-0.000978387 -0.000996322 0.0406914)
(0.00102817 -0.00164003 0.022795)
(0.00167676 -0.00209601 0.0261421)
(-0.00117122 -0.000395948 0.0432821)
(-0.000189452 -0.00193749 0.0396873)
(0.00160185 -0.00535868 0.0313414)
(0.00208091 -0.00137903 0.0250151)
(-0.000317308 -0.00110949 0.0334852)
(-0.00350551 0.000227981 0.0268837)
(0.00186522 -0.00135386 0.0235459)
(0.00144467 -0.000166651 0.0397197)
(0.00163488 -0.000393367 0.0231973)
(-0.00216763 0.00222873 0.030781)
(-0.00336637 0.00330648 0.0382388)
(0.00218393 -0.00374179 0.0556123)
(0.000397193 -0.00121823 0.0168111)
(0.000556566 -0.00236254 0.0333883)
(0.000431036 -0.0015074 0.0138431)
(-2.70275e-05 -8.39472e-05 0.0202708)
(-0.000459226 -0.000233914 0.0178671)
(0.000515523 0.00114646 0.0215069)
(0.00137529 -0.00135022 0.0222529)
(0.00128161 0.000835112 0.017394)
(0.000237166 0.000263897 0.023179)
(0.000203088 -0.00106724 0.0148967)
(-0.000401815 -0.00253044 0.0171112)
(0.0012755 0.000507026 0.0156016)
(-0.00143607 -0.00177492 0.0181769)
(-0.00510912 -0.00638102 0.0354499)
(0.00383589 -0.00670809 0.0361519)
(-7.74105e-05 -0.000369868 0.019021)
(0.00110993 -0.000247056 0.0267895)
(0.000506529 -0.000537674 0.0222257)
(-0.000266323 -2.21048e-05 0.0126566)
(0.000340381 -1.96255e-05 0.0145564)
(-0.000433784 0.000532343 0.017851)
(-0.000387523 0.000171199 0.0169639)
(-0.000669022 -0.000638057 0.018018)
(0.000332799 -0.000358624 0.0160759)
(-0.000852062 -8.11298e-05 0.0260764)
(-0.000177869 -3.25273e-05 0.0203829)
(0.00370685 -0.00196722 0.0208407)
(0.000176469 -0.000139908 0.0196197)
(-0.000677159 0.000205254 0.0152337)
(0.000653275 -0.000243445 0.0162585)
(0.000247893 5.98822e-05 0.0133043)
(-0.00105033 0.000873091 0.0262888)
(-0.000792231 0.000784523 0.0318565)
(-0.00054606 0.00114966 0.0271835)
(-0.000556568 0.00113587 0.0211208)
(-0.000654274 0.000625984 0.0210742)
(-0.000663205 0.000743202 0.0263258)
(-0.000749346 0.00125954 0.0218953)
(-0.000590468 0.00100091 0.0248043)
(-0.000563765 0.00010174 0.0229003)
(-0.000490283 0.000681719 0.0305)
(-0.000341023 0.000954906 0.0278735)
(0.000175041 0.000594784 0.0304915)
(-0.000242701 -3.50079e-05 0.0261209)
(-0.000186616 0.000632096 0.0267075)
(-0.000654408 0.000246533 0.0296466)
(-0.000468187 0.000168687 0.0201557)
(-0.000459454 0.000356407 0.00970896)
(0.000131148 -0.000119821 0.010592)
(0.0003309 -0.000165032 0.00966911)
(-0.000677011 -0.000147274 0.00915001)
(-0.000422542 0.000386708 0.00866715)
(-4.76829e-05 0.000103138 0.00973586)
(0.000106617 -8.93575e-05 0.00892352)
(-0.00085184 -0.000334226 0.00928464)
(-0.000442459 -0.000131577 0.00843595)
(-0.000332222 -3.3143e-05 0.0101535)
(0.000182976 -0.000216771 0.00949486)
(-0.000733255 0.000471029 0.00940791)
(-0.000267457 -0.000229437 0.00857887)
(-0.000322144 0.0001036 0.00939095)
(0.000452799 0.000120361 0.0092789)
(-0.000204759 0.000670449 0.00722461)
(-0.000387947 0.000171655 0.015868)
(-0.00016669 -0.000166761 0.016)
(-9.00167e-05 -0.000267335 0.015503)
(-0.000554778 -0.000284389 0.0153343)
(-0.000404753 8.34588e-05 0.0155609)
(-0.000301078 -0.000151125 0.0158562)
(-0.000142496 -0.000241031 0.0154427)
(-0.00063148 -0.000255819 0.015448)
(-0.000403491 -0.000126951 0.0154234)
(-0.00042694 -0.000193188 0.0160163)
(-8.54978e-05 -0.000188591 0.0157882)
(-0.000593345 0.000144039 0.0155614)
(-0.000329358 -0.000215983 0.0154061)
(-0.000424324 -0.000147521 0.015816)
(8.9216e-05 1.14541e-05 0.0157488)
(-0.000364393 0.000239713 0.0146381)
(-9.19368e-05 -6.24372e-06 0.0143052)
(-1.61822e-05 -0.00012202 0.0144164)
(-5.87262e-05 -0.000181715 0.0143042)
(-0.000309532 -0.000200099 0.0143231)
(-0.000138404 2.40887e-05 0.0141799)
(-8.72368e-05 -6.25861e-05 0.0143959)
(-6.79481e-05 -0.000118714 0.0143387)
(-0.000344393 -0.000110971 0.0143777)
(-0.000155084 -1.77926e-05 0.0141045)
(-0.000149369 -4.88569e-05 0.0144445)
(-4.77585e-05 -5.11942e-05 0.0144648)
(-0.000336232 6.32312e-05 0.0143998)
(-0.000125957 -6.55346e-05 0.0140688)
(-0.000149198 -4.92449e-05 0.0143923)
(2.72025e-05 1.71706e-05 0.0144473)
(-0.000260821 8.38833e-05 0.0140727)
(-6.02803e-05 -3.40008e-05 0.0145145)
(-4.94713e-05 -9.52562e-05 0.0145172)
(-8.00367e-05 -0.000132853 0.0144663)
(-0.0001948 -0.000149842 0.0144803)
(-8.33102e-05 -2.27951e-05 0.0144813)
(-8.25005e-05 -6.7761e-05 0.0145237)
(-8.55406e-05 -9.22861e-05 0.0144916)
(-0.000214398 -8.54786e-05 0.0144983)
(-9.12426e-05 -3.3509e-05 0.0144467)
(-0.000106341 -5.43368e-05 0.0145277)
(-7.61865e-05 -4.89014e-05 0.0145213)
(-0.000214739 -3.24502e-06 0.0144832)
(-8.18163e-05 -5.04415e-05 0.014422)
(-0.000108283 -5.04385e-05 0.014504)
(-4.74894e-05 -1.43767e-05 0.0145005)
(-0.000190963 1.44754e-05 0.0143589)
(-3.7297e-05 -3.60433e-05 0.0144923)
(-4.31797e-05 -6.49079e-05 0.0145029)
(-6.65193e-05 -8.55652e-05 0.0144984)
(-0.000122437 -9.75673e-05 0.0145178)
(-4.8384e-05 -2.70618e-05 0.0144816)
(-5.82789e-05 -4.8716e-05 0.0145113)
(-7.14087e-05 -6.12751e-05 0.0145179)
(-0.000133698 -5.98761e-05 0.0145354)
(-5.25291e-05 -2.78598e-05 0.0144696)
(-6.85714e-05 -3.9534e-05 0.0145143)
(-6.89256e-05 -3.76676e-05 0.0145308)
(-0.000136134 -1.92009e-05 0.0145317)
(-4.91963e-05 -3.33529e-05 0.0144604)
(-7.00485e-05 -3.54566e-05 0.0145093)
(-5.91166e-05 -1.96045e-05 0.0145265)
(-0.000129866 -4.41027e-06 0.0144935)
(-2.76993e-05 -2.88741e-05 0.0144998)
(-3.62962e-05 -4.3125e-05 0.0145069)
(-5.16246e-05 -5.42225e-05 0.0145119)
(-7.92702e-05 -6.14879e-05 0.0145281)
(-3.23957e-05 -2.35045e-05 0.0144973)
(-4.28651e-05 -3.40375e-05 0.0145128)
(-5.50186e-05 -4.0413e-05 0.014524)
(-8.55335e-05 -4.05856e-05 0.0145413)
(-3.41082e-05 -2.26287e-05 0.0144933)
(-4.69711e-05 -2.84297e-05 0.014515)
(-5.46979e-05 -2.75465e-05 0.0145308)
(-8.75058e-05 -1.93845e-05 0.0145429)
(-3.26729e-05 -2.38886e-05 0.0144899)
(-4.77878e-05 -2.50409e-05 0.0145145)
(-5.16759e-05 -1.73187e-05 0.0145311)
(-8.60326e-05 -8.01483e-06 0.0145319)
(-2.14011e-05 -2.13181e-05 0.0145074)
(-2.87415e-05 -2.87098e-05 0.0145133)
(-3.84789e-05 -3.46484e-05 0.0145202)
(-5.24841e-05 -3.87812e-05 0.0145325)
(-2.32267e-05 -1.82743e-05 0.0145071)
(-3.16323e-05 -2.36981e-05 0.0145171)
(-4.06128e-05 -2.69425e-05 0.0145275)
(-5.58589e-05 -2.72718e-05 0.0145417)
(-2.37316e-05 -1.74495e-05 0.0145059)
(-3.32469e-05 -2.04072e-05 0.0145188)
(-4.08627e-05 -1.97626e-05 0.0145316)
(-5.70373e-05 -1.55249e-05 0.0145448)
(-2.29025e-05 -1.74492e-05 0.014505)
(-3.35821e-05 -1.78664e-05 0.0145195)
(-4.00577e-05 -1.34907e-05 0.014533)
(-5.67332e-05 -7.19559e-06 0.0145427)
(-1.64549e-05 -1.52026e-05 0.0145144)
(-2.18561e-05 -1.91566e-05 0.0145192)
(-2.79437e-05 -2.23171e-05 0.0145254)
(-3.52225e-05 -2.4559e-05 0.0145345)
(-1.70541e-05 -1.34819e-05 0.0145146)
(-2.31243e-05 -1.63675e-05 0.0145216)
(-2.91921e-05 -1.79725e-05 0.01453)
(-3.69886e-05 -1.80979e-05 0.0145407)
(-1.70319e-05 -1.29674e-05 0.0145144)
(-2.37101e-05 -1.44586e-05 0.0145229)
(-2.94533e-05 -1.38396e-05 0.0145328)
(-3.75767e-05 -1.12642e-05 0.0145438)
(-1.64094e-05 -1.2722e-05 0.0145142)
(-2.37769e-05 -1.26987e-05 0.0145237)
(-2.92569e-05 -9.85201e-06 0.0145342)
(-3.74848e-05 -5.44434e-06 0.0145444)
(-1.24408e-05 -1.06895e-05 0.0145199)
(-1.61798e-05 -1.2836e-05 0.0145237)
(-1.99618e-05 -1.4494e-05 0.0145286)
(-2.3836e-05 -1.56495e-05 0.0145352)
(-1.25421e-05 -9.69884e-06 0.01452)
(-1.67149e-05 -1.12412e-05 0.0145251)
(-2.06485e-05 -1.19755e-05 0.0145315)
(-2.47288e-05 -1.18995e-05 0.0145393)
(-1.23274e-05 -9.42386e-06 0.0145201)
(-1.68718e-05 -1.01273e-05 0.0145261)
(-2.08e-05 -9.52154e-06 0.0145334)
(-2.49639e-05 -7.77883e-06 0.0145417)
(-1.18163e-05 -9.20891e-06 0.0145201)
(-1.68071e-05 -8.95957e-06 0.0145268)
(-2.07444e-05 -6.95744e-06 0.0145345)
(-2.48754e-05 -3.8447e-06 0.0145428)
(-9.25962e-06 -7.49147e-06 0.0145239)
(-1.17797e-05 -8.66171e-06 0.0145268)
(-1.41257e-05 -9.50536e-06 0.0145306)
(-1.62262e-05 -1.00571e-05 0.0145352)
(-9.17207e-06 -6.90693e-06 0.014524)
(-1.19784e-05 -7.71917e-06 0.0145277)
(-1.44768e-05 -7.996e-06 0.0145324)
(-1.6652e-05 -7.80168e-06 0.0145379)
(-8.91416e-06 -6.77284e-06 0.014524)
(-1.196e-05 -7.05768e-06 0.0145284)
(-1.45279e-05 -6.49679e-06 0.0145337)
(-1.66988e-05 -5.24956e-06 0.0145397)
(-8.49731e-06 -6.62525e-06 0.0145241)
(-1.1844e-05 -6.2909e-06 0.0145288)
(-1.44847e-05 -4.83184e-06 0.0145345)
(-1.6591e-05 -2.63435e-06 0.0145406)
(-6.79695e-06 -5.26113e-06 0.0145267)
(-8.47597e-06 -5.89115e-06 0.0145289)
(-9.93055e-06 -6.29233e-06 0.0145317)
(-1.10798e-05 -6.51765e-06 0.014535)
(-6.64953e-06 -4.90247e-06 0.0145267)
(-8.51937e-06 -5.31372e-06 0.0145295)
(-1.00883e-05 -5.3571e-06 0.0145329)
(-1.12597e-05 -5.11737e-06 0.0145368)
(-6.40839e-06 -4.83941e-06 0.0145267)
(-8.4348e-06 -4.90968e-06 0.0145299)
(-1.00736e-05 -4.418e-06 0.0145337)
(-1.12175e-05 -3.50529e-06 0.014538)
(-6.07832e-06 -4.73813e-06 0.0145268)
(-8.30859e-06 -4.39917e-06 0.0145302)
(-1.0019e-05 -3.3252e-06 0.0145343)
(-1.11036e-05 -1.77963e-06 0.0145387)
(-4.91059e-06 -3.6912e-06 0.0145285)
(-6.01922e-06 -4.01856e-06 0.0145303)
(-6.91472e-06 -4.18345e-06 0.0145324)
(-7.53961e-06 -4.2421e-06 0.0145348)
(-4.75796e-06 -3.46217e-06 0.0145285)
(-5.99455e-06 -3.65605e-06 0.0145306)
(-6.96772e-06 -3.59095e-06 0.0145331)
(-7.59569e-06 -3.35554e-06 0.0145359)
(-4.55498e-06 -3.43245e-06 0.0145285)
(-5.8927e-06 -3.40302e-06 0.0145309)
(-6.91951e-06 -2.99283e-06 0.0145337)
(-7.52113e-06 -2.32578e-06 0.0145368)
(-4.3026e-06 -3.35683e-06 0.0145285)
(-5.77689e-06 -3.05491e-06 0.0145311)
(-6.85787e-06 -2.26885e-06 0.0145341)
(-7.41551e-06 -1.19154e-06 0.0145373)
(-3.45679e-06 -2.54681e-06 0.0145297)
(-4.17562e-06 -2.70789e-06 0.0145311)
(-4.71428e-06 -2.75541e-06 0.0145327)
(-5.04512e-06 -2.74153e-06 0.0145344)
(-3.32374e-06 -2.40074e-06 0.0145297)
(-4.12831e-06 -2.48203e-06 0.0145313)
(-4.71856e-06 -2.38166e-06 0.0145332)
(-5.04702e-06 -2.18201e-06 0.0145352)
(-3.16469e-06 -2.38763e-06 0.0145296)
(-4.03338e-06 -2.32434e-06 0.0145315)
(-4.66193e-06 -2.00204e-06 0.0145336)
(-4.97192e-06 -1.52651e-06 0.0145358)
(-2.97956e-06 -2.32894e-06 0.0145296)
(-3.93828e-06 -2.08506e-06 0.0145316)
(-4.60376e-06 -1.52315e-06 0.0145339)
(-4.88443e-06 -7.87224e-07 0.0145362)
(-2.31822e-06 -1.67723e-06 0.0145304)
(-2.76661e-06 -1.75226e-06 0.0145315)
(-3.07553e-06 -1.75117e-06 0.0145328)
(-3.24247e-06 -1.71682e-06 0.0145342)
(-2.21569e-06 -1.59138e-06 0.0145303)
(-2.72105e-06 -1.61955e-06 0.0145316)
(-3.06409e-06 -1.52561e-06 0.0145332)
(-3.22778e-06 -1.37645e-06 0.0145347)
(-2.09982e-06 -1.58776e-06 0.0145303)
(-2.64563e-06 -1.527e-06 0.0145318)
(-3.01533e-06 -1.29331e-06 0.0145335)
(-3.16834e-06 -9.71506e-07 0.0145352)
(-1.97176e-06 -1.54467e-06 0.0145303)
(-2.57575e-06 -1.36826e-06 0.0145319)
(-2.96912e-06 -9.85729e-07 0.0145337)
(-3.10415e-06 -5.03566e-07 0.0145355)
(-1.42894e-06 -1.0082e-06 0.0145308)
(-1.6908e-06 -1.04314e-06 0.0145317)
(-1.85331e-06 -1.02964e-06 0.0145328)
(-1.93049e-06 -9.99536e-07 0.0145339)
(-1.36005e-06 -9.68774e-07 0.0145307)
(-1.65791e-06 -9.76441e-07 0.0145318)
(-1.84217e-06 -9.07237e-07 0.0145331)
(-1.91646e-06 -8.09566e-07 0.0145344)
(-1.28416e-06 -9.7211e-07 0.0145307)
(-1.60673e-06 -9.29574e-07 0.0145319)
(-1.8093e-06 -7.7722e-07 0.0145333)
(-1.87857e-06 -5.77351e-07 0.0145347)
(-1.2056e-06 -9.47013e-07 0.0145306)
(-1.56323e-06 -8.35333e-07 0.014532)
(-1.78011e-06 -5.95173e-07 0.0145335)
(-1.83951e-06 -3.01419e-07 0.0145349)
(-7.96298e-07 -5.47813e-07 0.014531)
(-9.36668e-07 -5.64298e-07 0.0145318)
(-1.02152e-06 -5.57565e-07 0.0145328)
(-1.05721e-06 -5.4251e-07 0.0145337)
(-7.60348e-07 -5.36833e-07 0.0145309)
(-9.2044e-07 -5.36884e-07 0.0145319)
(-1.018e-06 -4.97931e-07 0.014533)
(-1.05204e-06 -4.43839e-07 0.0145341)
(-7.19448e-07 -5.41906e-07 0.0145309)
(-8.95483e-07 -5.15109e-07 0.014532)
(-1.00574e-06 -4.30195e-07 0.0145332)
(-1.03777e-06 -3.19746e-07 0.0145344)
(-6.78942e-07 -5.35089e-07 0.0145309)
(-8.76376e-07 -4.7115e-07 0.0145321)
(-9.9809e-07 -3.36081e-07 0.0145334)
(-1.02635e-06 -1.69693e-07 0.0145346)
(0.00089549 -0.000430919 0.0132669)
(0.00138038 0.00298828 0.0211472)
(-0.00430729 0.00582124 0.0191603)
(-0.00320246 0.000204246 0.0114245)
(0.000785278 0.00308353 0.0195248)
(0.000909377 0.00137314 0.0141906)
(-0.00314012 0.000373163 0.0145932)
(-0.00411885 0.00230594 0.0129623)
(1.50086e-05 0.00203689 0.0108249)
(-0.00452601 0.00300688 0.0219433)
(-0.00554959 -0.000627732 0.0187314)
(-0.00466754 0.00116274 0.0169266)
(-0.00369657 0.000510697 0.0154479)
(-0.00328553 5.06448e-05 0.012685)
(-0.00569946 -0.00115781 0.0198112)
(-0.00450166 -0.000438007 0.0107389)
(-0.00230056 9.50876e-05 0.0326201)
(-0.00374329 -0.000248121 0.0384462)
(-0.000953766 -0.00224441 0.0534394)
(-0.00194827 -0.000440003 0.0215884)