/*--------------------------------*- C++ -*----------------------------------*\
| =========                 |                                                 |
| \\      /  F ield         | OpenFOAM: The Open Source CFD Toolbox           |
|  \\    /   O peration     | Version:  2506                                  |
|   \\  /    A nd           | Website:  www.openfoam.com                      |
|    \\/     M anipulation  |                                                 |
\*---------------------------------------------------------------------------*/
FoamFile
{
    version     2.0;
    format      ascii;
    arch        "LSB;label=32;scalar=64";
    class       surfaceScalarField;
    location    "0.07";
    object      phi;
}
// * * * * * * * * * * * * * * * * * * * * * * * * * * * * * * * * * * * * * //

dimensions      [0 3 -1 0 0 0 0];

oriented        oriented;

internalField   nonuniform List<scalar> 
3120
(
4.72382e-09
4.35437e-10
3.84584e-08
3.15607e-09
-4.6825e-09
-5.31589e-09
6.33988e-08
-3.19541e-09
2.97131e-09
1.10906e-09
3.39936e-08
2.44099e-09
3.94445e-10
3.55012e-08
2.65353e-09
6.14628e-09
-2.76559e-09
-3.57556e-09
5.32002e-08
1.20685e-09
-1.60758e-09
3.64692e-08
4.42331e-10
-1.37006e-09
4.63576e-08
1.62933e-09
3.59778e-08
5.14483e-09
3.30672e-11
3.48067e-09
3.37284e-08
2.42075e-09
-9.58595e-10
3.99171e-08
4.23644e-09
3.48777e-09
3.56979e-08
-7.87928e-10
5.23498e-08
-2.41691e-09
-2.88686e-09
3.53859e-08
3.88695e-09
2.52417e-08
9.86494e-10
3.77244e-08
3.6978e-08
5.76264e-09
3.32916e-09
-3.98454e-12
3.00804e-08
1.07337e-09
3.6307e-09
4.58419e-09
5.75361e-08
9.76925e-10
2.08187e-09
-2.30606e-09
3.65479e-08
1.30056e-09
-6.06135e-10
3.5999e-08
6.6082e-10
1.52938e-09
7.69575e-09
3.79157e-09
3.80053e-08
-3.55707e-10
-6.93692e-10
4.97984e-08
2.79796e-09
2.07867e-09
3.8819e-08
-1.77238e-11
3.53749e-08
2.81241e-09
9.37497e-10
3.2955e-09
2.99228e-08
4.89486e-09
4.24008e-10
3.4842e-08
1.44666e-09
1.122e-09
4.01027e-08
6.30098e-09
4.0417e-08
7.06066e-09
1.47186e-09
4.3757e-08
5.90891e-09
2.44763e-08
3.82136e-09
4.87342e-08
4.41936e-08
-2.41295e-10
-3.78101e-09
-3.47036e-10
3.1832e-08
-2.28016e-09
4.99678e-10
4.67187e-09
4.8233e-08
3.50404e-10
1.04053e-09
1.64118e-09
3.33601e-08
1.0057e-09
1.66488e-09
4.11756e-08
-2.48036e-09
-3.32064e-09
4.4868e-10
8.76718e-10
3.7558e-08
1.07118e-09
3.17615e-09
5.06716e-08
4.69662e-10
-1.3967e-09
4.24583e-08
4.56892e-10
3.76148e-08
-5.62338e-10
1.38379e-09
3.31208e-11
3.2634e-08
-2.71888e-09
2.19102e-09
3.99297e-08
2.08334e-09
1.06084e-09
3.28429e-08
4.99104e-10
4.03893e-08
2.06871e-09
5.44087e-09
4.87872e-08
-3.79155e-09
4.07317e-08
8.37562e-10
4.49814e-08
3.51159e-08
3.44544e-09
-2.30622e-09
-5.49088e-10
2.87783e-08
1.9004e-09
2.78062e-09
1.34995e-09
3.67373e-08
5.05886e-09
8.61753e-10
1.26066e-09
3.5903e-08
-1.88475e-09
3.03346e-09
3.94338e-08
-2.1335e-09
1.70354e-09
-2.13962e-09
2.46502e-09
2.90164e-08
3.25336e-09
5.76755e-09
4.08609e-08
2.96275e-09
2.7604e-09
4.12491e-08
3.65791e-10
4.16518e-08
1.59351e-09
6.16622e-10
-3.06137e-09
4.25282e-08
2.41423e-10
4.56381e-09
4.15086e-08
5.94367e-11
-7.65191e-10
3.65504e-08
3.30201e-09
3.94796e-08
-1.9671e-09
9.78046e-09
3.25123e-08
-5.60821e-09
6.57764e-08
3.82038e-09
3.48752e-08
5.32787e-08
-3.77484e-09
-3.66929e-09
-2.16161e-09
4.3271e-08
3.67518e-10
-6.24084e-11
-3.30641e-09
3.43174e-08
2.11949e-09
2.03526e-11
-1.51117e-09
3.6819e-08
5.12358e-10
1.75563e-09
3.56835e-08
-1.65236e-09
3.66744e-09
-3.13132e-09
-1.46472e-09
3.45941e-08
1.91072e-09
4.07524e-09
2.84372e-08
3.20015e-09
1.33017e-09
3.71183e-08
-3.05913e-10
3.92166e-08
7.69685e-09
-1.07501e-10
-1.05455e-09
3.90632e-08
-1.36794e-09
-1.22697e-09
4.80712e-08
2.28038e-09
1.01142e-09
3.32208e-08
4.54134e-09
3.5197e-08
1.71568e-09
3.71859e-10
2.25863e-08
1.03251e-09
5.43136e-08
5.32697e-09
2.8295e-08
7.05892e-08
-3.31905e-09
-3.92896e-10
-1.10865e-08
5.07803e-08
2.64128e-09
-1.14082e-09
-4.81386e-09
4.01861e-08
-3.06944e-10
2.49037e-09
-4.65852e-09
3.01647e-08
7.68157e-09
-3.17383e-09
4.8519e-08
4.47847e-10
-7.61914e-09
4.3376e-10
-1.07033e-09
2.49564e-08
-2.35841e-10
-1.52785e-09
2.58208e-08
4.36337e-09
-2.93852e-09
3.07991e-08
-4.32551e-10
3.96869e-08
1.15169e-09
-9.93771e-11
4.20202e-10
3.46629e-08
-2.29344e-09
-2.37039e-09
5.11077e-08
4.12522e-09
2.24284e-09
2.16207e-08
1.68923e-09
3.19694e-08
5.23104e-09
-1.92128e-09
1.74934e-08
2.73554e-09
3.991e-08
6.07338e-09
2.31141e-08
6.78748e-08
1.32188e-09
7.43512e-10
1.80951e-09
4.82377e-08
-3.49217e-10
3.41182e-10
9.92415e-10
3.73274e-08
2.2682e-09
-2.96047e-09
-7.56533e-10
3.51232e-08
-8.9979e-10
5.59686e-10
4.39402e-08
1.65637e-09
-5.97735e-10
-1.8937e-09
-4.198e-10
3.30592e-08
-1.24469e-09
-2.1173e-09
2.82823e-08
-1.48078e-09
1.32571e-09
2.89528e-08
5.65862e-10
4.01921e-08
-1.99195e-09
-1.47627e-09
1.00125e-09
3.45147e-08
3.14933e-09
1.59362e-09
4.27714e-08
-3.22619e-09
-7.13815e-10
3.00366e-08
-2.87959e-09
3.69004e-08
-4.71155e-09
-1.22847e-09
2.5283e-08
1.14313e-09
3.99991e-08
-7.40193e-09
3.49157e-08
5.27942e-08
2.28529e-09
2.33766e-10
-3.44424e-09
4.74887e-08
2.8432e-09
6.63263e-10
-6.22215e-09
3.75146e-08
5.60514e-09
3.17202e-09
-6.98355e-09
3.51818e-08
4.41622e-09
-5.90309e-09
4.33078e-08
5.19042e-09
4.51689e-09
-2.00954e-09
-3.16401e-09
3.27342e-08
-4.76473e-10
-6.7489e-09
2.72749e-08
3.34963e-09
-7.96176e-09
2.6105e-08
-5.95982e-09
4.11224e-08
2.47485e-09
-5.29925e-09
-1.72756e-09
3.42744e-08
-3.74053e-09
-3.35956e-09
3.78228e-08
4.84006e-09
-1.10359e-09
1.45961e-08
-3.43265e-09
3.64597e-08
2.75301e-09
-6.63894e-09
2.51809e-08
-2.10977e-09
2.7563e-08
4.54442e-09
2.17729e-08
4.84815e-08
4.65527e-09
3.95022e-09
6.25101e-09
4.38354e-08
-4.21863e-09
8.59495e-10
4.84586e-09
3.99495e-08
-4.1894e-09
-2.98093e-09
6.04259e-09
3.90033e-08
-6.02337e-09
2.00128e-09
4.20395e-08
-1.69255e-09
-2.02151e-09
3.45698e-09
2.53967e-09
3.78864e-08
-2.97135e-10
6.52482e-10
3.52218e-08
-6.92023e-09
3.71461e-09
3.50558e-08
5.53921e-10
4.12198e-08
-5.57025e-09
1.93424e-09
8.55536e-11
3.76753e-08
2.63901e-09
-3.22784e-10
3.80927e-08
-7.82832e-09
-3.08327e-09
3.18611e-08
-3.72328e-09
3.98466e-08
-6.93891e-09
1.08506e-09
3.46577e-08
-1.78477e-09
3.54849e-08
-8.78626e-09
3.39289e-08
4.34473e-08
-3.93625e-09
2.02005e-09
3.52494e-09
4.26961e-08
-2.9303e-09
6.27882e-10
2.81721e-09
4.13328e-08
-2.80815e-09
-1.03326e-09
2.68705e-09
4.10286e-08
-3.05057e-09
4.50413e-10
4.21299e-08
-4.86009e-10
-1.08794e-09
1.62048e-09
1.55923e-09
4.04699e-08
-2.96825e-10
5.16794e-10
3.94397e-08
-3.05849e-09
1.10915e-09
3.93949e-08
-3.9362e-10
4.16807e-08
-2.67578e-09
7.25176e-10
-3.59965e-11
3.99452e-08
5.17752e-11
-5.15705e-10
3.97987e-08
-3.85435e-09
-1.73903e-09
3.86155e-08
-2.12148e-09
4.1382e-08
-3.66231e-09
7.6667e-11
3.92008e-08
-1.36247e-09
3.93334e-08
-4.4095e-09
3.93003e-08
4.23088e-08
-2.91913e-09
7.4445e-10
1.80176e-09
4.26448e-08
-1.66595e-09
-3.67651e-12
1.52427e-09
4.21719e-08
-1.61498e-09
-7.79056e-10
1.37753e-09
4.21173e-08
-1.69068e-09
5.60213e-10
4.25428e-08
-7.31465e-10
-1.02085e-09
5.51373e-10
9.34643e-10
4.17287e-08
-3.57543e-10
4.92661e-10
4.13803e-08
-1.44679e-09
4.37407e-10
4.14242e-08
-1.02743e-10
4.22869e-08
-1.39048e-09
1.79081e-10
-2.61428e-11
4.13699e-08
-4.5279e-10
-3.36088e-10
4.12595e-08
-1.79796e-09
-7.83248e-10
4.1181e-08
-9.62345e-10
4.22136e-08
-1.77035e-09
-2.1988e-10
4.11879e-08
-9.67068e-10
4.12239e-08
-2.02856e-09
4.14311e-08
4.25206e-08
-1.68069e-09
3.08244e-10
9.59908e-10
4.28126e-08
-9.93293e-10
-4.62723e-11
7.96913e-10
4.2643e-08
-9.12808e-10
-3.69945e-10
6.42302e-10
4.26476e-08
-8.48117e-10
2.45352e-10
4.28137e-08
-3.77282e-10
-5.08392e-10
1.65409e-10
5.26891e-10
4.24062e-08
-2.57617e-10
3.07778e-10
4.22929e-08
-6.89172e-10
1.45878e-10
4.23525e-08
-1.38296e-10
4.2682e-08
-7.00601e-10
-3.30783e-11
-1.65722e-11
4.22103e-08
-4.26691e-10
-2.22718e-10
4.21837e-08
-9.19691e-10
-4.37901e-10
4.22581e-08
-5.79126e-10
4.26706e-08
-9.35887e-10
-2.5475e-10
4.21607e-08
-6.57402e-10
4.22023e-08
-1.06884e-09
4.23708e-08
4.28146e-08
-1.0032e-09
1.17712e-10
4.99278e-10
4.29711e-08
-5.54833e-10
-5.95866e-11
4.00413e-10
4.29075e-08
-4.8687e-10
-2.0422e-10
2.93596e-10
4.29198e-08
-4.20305e-10
1.05013e-10
4.29892e-08
-2.0255e-10
-2.81777e-10
2.30088e-11
2.71875e-10
4.27816e-08
-1.80334e-10
1.50487e-10
4.27466e-08
-3.58279e-10
3.46245e-11
4.27899e-08
-1.16359e-10
4.29236e-08
-3.78313e-10
-9.31098e-11
-2.1646e-11
4.26804e-08
-2.9874e-10
-1.43982e-10
4.26839e-08
-4.93779e-10
-2.63867e-10
4.2752e-08
-3.59608e-10
4.2929e-08
-5.08643e-10
-2.15939e-10
4.26655e-08
-4.20644e-10
4.27039e-08
-5.88969e-10
4.28104e-08
4.30089e-08
-5.74898e-10
3.96859e-11
2.52244e-10
4.3079e-08
-2.96432e-10
-4.81599e-11
1.9138e-10
4.30535e-08
-2.49059e-10
-1.14931e-10
1.24203e-10
4.30627e-08
-1.9972e-10
2.82369e-11
4.30938e-08
-9.28642e-11
-1.54529e-10
-2.05929e-11
1.30505e-10
4.2987e-08
-1.19577e-10
5.96755e-11
4.29775e-08
-1.96498e-10
-1.26464e-11
4.30043e-08
-9.5974e-11
4.30638e-08
-2.12081e-10
-8.9586e-11
-2.73582e-11
4.2936e-08
-1.92902e-10
-9.93874e-11
4.29459e-08
-2.74653e-10
-1.69035e-10
4.29905e-08
-2.29909e-10
4.30731e-08
-2.84415e-10
-1.6058e-10
4.2932e-08
-2.62553e-10
4.29609e-08
-3.34028e-10
4.30244e-08
4.31212e-08
-3.30083e-10
6.61199e-12
1.23893e-10
4.31452e-08
-1.5389e-10
-3.75103e-11
8.65269e-11
4.31347e-08
-1.23257e-10
-6.98463e-11
4.55131e-11
4.31405e-08
-9.04607e-11
-5.69295e-12
4.31559e-08
-3.57724e-11
-9.00287e-11
-3.07301e-11
5.70424e-11
4.30996e-08
-8.00138e-11
1.51388e-11
4.30984e-08
-1.15422e-10
-2.85164e-11
4.31145e-08
-7.53462e-11
4.31438e-08
-1.25044e-10
-7.2127e-11
-2.91224e-11
4.30745e-08
-1.24085e-10
-7.15616e-11
4.30841e-08
-1.60309e-10
-1.12606e-10
4.31111e-08
-1.49681e-10
4.3153e-08
-1.6546e-10
-1.13979e-10
4.30747e-08
-1.64974e-10
4.30949e-08
-1.96327e-10
4.31324e-08
4.31832e-08
-1.93784e-10
-7.40074e-12
5.79182e-11
4.31845e-08
-7.72033e-11
-2.98375e-11
3.50504e-11
4.31805e-08
-5.79614e-11
-4.599e-11
1.02837e-11
4.31843e-08
-3.71966e-11
-1.80653e-11
4.31926e-08
-7.77628e-12
-5.62388e-11
-3.03534e-11
2.04928e-11
4.31619e-08
-5.52475e-11
-4.5777e-12
4.31634e-08
-7.21977e-11
-3.06339e-11
4.31732e-08
-5.73228e-11
4.3189e-08
-7.73381e-11
-5.52933e-11
-2.72397e-11
4.31501e-08
-8.14906e-11
-5.24662e-11
4.31577e-08
-9.80695e-11
-7.67993e-11
4.31741e-08
-9.88909e-11
4.31969e-08
-1.00039e-10
-8.02677e-11
4.3152e-08
-1.05725e-10
4.31657e-08
-1.19536e-10
4.31881e-08
4.32163e-08
-1.16821e-10
-1.26577e-11
2.46886e-11
4.32078e-08
-3.68254e-11
-2.41655e-11
1.0636e-11
4.32066e-08
-2.48105e-11
-3.23915e-11
-4.30419e-12
4.32093e-08
-1.18693e-11
-2.03811e-11
4.32143e-08
4.28217e-12
-3.73254e-11
-2.67831e-11
3.39894e-12
4.31968e-08
-3.94391e-11
-1.17842e-11
4.31989e-08
-4.76309e-11
-2.73714e-11
4.32053e-08
-4.27572e-11
4.32144e-08
-4.99257e-11
-4.19329e-11
-2.33122e-11
4.31917e-08
-5.51033e-11
-3.85397e-11
4.31974e-08
-6.2641e-11
-5.30944e-11
4.32077e-08
-6.61704e-11
4.32208e-08
-6.27443e-11
-5.70621e-11
4.3194e-08
-6.96013e-11
4.32034e-08
-7.5362e-11
4.32172e-08
4.32336e-08
-7.24866e-11
-1.36905e-11
8.54481e-12
4.32215e-08
-1.61645e-11
-1.95827e-11
-1.48717e-13
4.32216e-08
-8.62928e-12
-2.38801e-11
-9.34269e-12
4.32236e-08
-2.29565e-13
-1.85349e-11
4.3227e-08
8.36826e-12
-2.59161e-11
-2.25043e-11
-3.75562e-12
4.32164e-08
-2.88675e-11
-1.3105e-11
4.32186e-08
-3.2765e-11
-2.2533e-11
4.32228e-08
-3.1495e-11
4.32286e-08
-3.34096e-11
-3.18461e-11
-1.88466e-11
4.32145e-08
-3.83207e-11
-2.81923e-11
4.32189e-08
-4.15304e-11
-3.70141e-11
4.32256e-08
-4.47694e-11
4.32336e-08
-4.06792e-11
-4.11531e-11
4.32168e-08
-4.71078e-11
4.32234e-08
-4.90834e-11
4.32322e-08
4.32422e-08
-4.62795e-11
-1.27823e-11
1.20916e-12
4.32294e-08
-6.0131e-12
-1.57961e-11
-4.3098e-12
4.32302e-08
-1.15589e-12
-1.78231e-11
-9.90632e-12
4.32319e-08
3.84465e-12
-1.53256e-11
4.32343e-08
8.9735e-12
-1.8502e-11
-1.83287e-11
-6.09545e-12
4.32272e-08
-2.14359e-11
-1.1922e-11
4.32293e-08
-2.3111e-11
-1.76548e-11
4.32325e-08
-2.29263e-11
4.32363e-08
-2.29188e-11
-2.41518e-11
-1.46989e-11
4.32269e-08
-2.7166e-11
-2.04928e-11
4.32304e-08
-2.82707e-11
-2.58793e-11
4.3235e-08
-3.0482e-11
4.32403e-08
-2.70397e-11
-2.99281e-11
4.3229e-08
-3.25291e-11
4.32338e-08
-3.27559e-11
4.32398e-08
4.32463e-08
-3.02284e-11
-1.09036e-11
-1.7695e-12
4.3234e-08
-1.31291e-12
-1.23633e-11
-5.24709e-12
4.32351e-08
1.74699e-12
-1.32283e-11
-8.68824e-12
4.32365e-08
4.87806e-12
-1.19107e-11
4.32384e-08
7.94814e-12
-1.32754e-11
-1.43936e-11
-6.17003e-12
4.32332e-08
-1.58098e-11
-9.7967e-12
4.32352e-08
-1.63782e-11
-1.32787e-11
4.32377e-08
-1.63793e-11
4.32404e-08
-1.58458e-11
-1.80138e-11
-1.11141e-11
4.32337e-08
-1.92795e-11
-1.46886e-11
4.32366e-08
-1.94093e-11
-1.7951e-11
4.324e-08
-2.06556e-11
4.32437e-08
-1.8167e-11
-2.15804e-11
4.32354e-08
-2.25263e-11
4.32392e-08
-2.20451e-11
4.32435e-08
4.32479e-08
-1.99586e-11
-8.53084e-12
-2.58572e-12
4.32367e-08
5.99125e-13
-9.21225e-12
-4.73746e-12
4.32379e-08
2.525e-12
-9.50864e-12
-6.8246e-12
4.32392e-08
4.47183e-12
-8.72564e-12
4.32406e-08
6.30039e-12
-9.30849e-12
-1.0683e-11
-5.21345e-12
4.32367e-08
-1.12887e-11
-7.43388e-12
4.32385e-08
-1.13628e-11
-9.51355e-12
4.32404e-08
-1.13143e-11
4.32425e-08
-1.07912e-11
-1.28961e-11
-8.05421e-12
4.32374e-08
-1.33551e-11
-1.02089e-11
4.32398e-08
-1.31174e-11
-1.21288e-11
4.32425e-08
-1.36812e-11
4.32452e-08
-1.2086e-11
-1.5048e-11
4.32389e-08
-1.52654e-11
4.32419e-08
-1.46293e-11
4.32451e-08
4.32483e-08
-1.30755e-11
-6.05871e-12
-2.365e-12
4.32384e-08
1.13781e-12
-6.37671e-12
-3.63421e-12
4.32395e-08
2.3228e-12
-6.42981e-12
-4.8506e-12
4.32406e-08
3.49037e-12
-5.94161e-12
4.32418e-08
4.54119e-12
-6.18373e-12
-7.32229e-12
-3.86388e-12
4.32387e-08
-7.57945e-12
-5.17064e-12
4.32403e-08
-7.48962e-12
-6.36739e-12
4.32419e-08
-7.38504e-12
4.32435e-08
-7.03396e-12
-8.6214e-12
-5.46127e-12
4.32395e-08
-8.76464e-12
-6.70184e-12
4.32416e-08
-8.47596e-12
-7.77943e-12
4.32436e-08
-8.63823e-12
4.32457e-08
-7.74609e-12
-9.86141e-12
4.32408e-08
-9.83624e-12
4.32433e-08
-9.31034e-12
4.32458e-08
4.32482e-08
-8.28037e-12
-3.86278e-12
-1.71281e-12
4.32394e-08
1.04465e-12
-3.9933e-12
-2.4066e-12
4.32404e-08
1.71695e-12
-3.95946e-12
-3.07134e-12
4.32413e-08
2.3661e-12
-3.66726e-12
4.32423e-08
2.92813e-12
-3.76111e-12
-4.55079e-12
-2.50746e-12
4.32398e-08
-4.64722e-12
-3.22438e-12
4.32412e-08
-4.53673e-12
-3.87352e-12
4.32426e-08
-4.42316e-12
4.32439e-08
-4.23935e-12
-5.26143e-12
-3.34276e-12
4.32407e-08
-5.28706e-12
-4.00392e-12
4.32424e-08
-5.06539e-12
-4.57133e-12
4.32441e-08
-5.02411e-12
4.32458e-08
-4.61681e-12
-5.92181e-12
4.32418e-08
-5.8498e-12
4.32438e-08
-5.50188e-12
4.32459e-08
4.32478e-08
-4.89538e-12
-2.24823e-12
-1.07118e-12
7.3219e-13
-2.29819e-12
-1.43448e-12
1.08066e-12
-2.26046e-12
-1.78114e-12
1.41478e-12
-2.08703e-12
1.69783e-12
-2.133e-12
-2.60689e-12
-1.47649e-12
-2.63728e-12
-1.8482e-12
-2.55734e-12
-2.18469e-12
-2.46846e-12
-2.37611e-12
-2.97443e-12
-1.8892e-12
-2.96623e-12
-2.22865e-12
-2.82622e-12
-2.52053e-12
-2.75292e-12
-2.56448e-12
-3.31152e-12
-3.25305e-12
-3.04512e-12
-2.70083e-12
-3.01979e-10
-8.3943e-09
7.34541e-08
6.77312e-09
-5.56694e-10
5.19385e-08
-1.46058e-09
-1.35328e-08
7.55932e-08
-1.98582e-09
3.93886e-08
2.80218e-09
2.90495e-09
5.34723e-09
3.73217e-08
1.1913e-09
-1.48909e-09
5.67528e-08
9.83613e-10
-7.96595e-10
3.46738e-08
7.91273e-09
2.68087e-08
1.3515e-09
8.44418e-10
-2.90946e-09
5.95346e-08
1.58796e-09
-2.97242e-09
4.91938e-08
4.88469e-09
-6.32406e-09
4.35097e-08
-1.15998e-08
5.77411e-08
-1.23195e-09
-7.88491e-10
5.14832e-08
3.02826e-10
3.48432e-08
1.12737e-09
3.09212e-08
1.71666e-08
7.10527e-10
-2.2549e-09
1.32442e-09
7.14054e-08
-4.65228e-09
-9.08372e-10
5.48868e-08
2.86092e-09
2.57645e-09
6.71389e-08
-6.71919e-09
5.00946e-08
-3.03131e-09
-3.18794e-09
-1.32572e-08
6.00604e-08
-3.95337e-09
-5.11076e-09
6.17206e-08
1.22659e-09
1.51677e-09
3.05534e-08
-5.4993e-09
2.71371e-08
-3.21818e-10
3.35638e-09
-1.00479e-08
5.28759e-08
2.63415e-10
-5.60417e-09
5.27802e-08
-4.85798e-10
-3.92663e-09
4.97023e-08
-5.42172e-10
5.4076e-08
-1.77816e-09
3.43064e-09
3.37195e-08
2.14333e-09
3.15032e-08
1.92349e-09
2.8515e-08
1.94055e-08
-1.96901e-10
-1.30901e-09
7.6938e-10
7.34312e-08
-1.99633e-09
-3.7685e-09
5.89261e-08
5.0799e-09
2.68791e-09
5.62179e-08
-9.28635e-09
6.60373e-08
-3.63848e-09
-3.91227e-09
-2.40495e-09
6.51029e-08
2.94889e-11
6.51954e-09
4.74908e-08
1.2551e-10
-2.9161e-09
3.60613e-08
-1.15275e-08
2.98694e-08
-3.65619e-10
6.38724e-10
-1.65522e-09
5.06988e-08
-3.76918e-09
-3.04899e-10
6.40125e-08
-3.81127e-09
2.63608e-09
4.41921e-08
8.37791e-09
2.86746e-08
1.68451e-09
-4.75052e-10
2.5924e-08
-2.08604e-10
3.12822e-08
4.53289e-11
3.1903e-08
2.55997e-08
-2.51676e-10
1.00509e-09
-1.7516e-09
7.52139e-08
4.48781e-09
-2.21915e-09
5.74067e-08
-4.93739e-09
-1.58168e-09
6.74339e-08
-1.9952e-09
6.19302e-08
1.60479e-09
-3.59626e-10
9.01332e-09
5.5222e-08
3.26737e-09
7.04772e-09
3.45969e-08
-2.46788e-09
-5.10949e-09
4.53243e-08
-3.28717e-09
2.76617e-08
1.03188e-09
-4.96783e-09
2.94112e-09
6.56982e-08
-8.64761e-10
3.95049e-09
6.30066e-08
-1.22296e-09
-1.69607e-09
4.11369e-08
2.21769e-09
2.06953e-08
1.25144e-09
-1.66043e-09
3.60498e-08
-3.38191e-09
4.20131e-08
8.95874e-10
2.40445e-08
2.4877e-08
1.70247e-09
1.61412e-09
3.16765e-10
7.14803e-08
-5.25565e-09
-2.54299e-09
6.72286e-08
-5.44224e-09
4.9137e-09
6.26784e-08
8.63786e-09
4.32225e-08
2.97658e-09
-1.01772e-09
2.44718e-09
5.78237e-08
-2.67096e-10
-2.09781e-09
3.34011e-08
-8.175e-10
-9.04112e-10
5.16925e-08
1.4125e-09
3.38451e-08
2.24387e-10
-3.24277e-09
9.45124e-09
6.31994e-08
1.91528e-09
5.86e-09
4.98908e-08
-2.30224e-10
1.88802e-09
4.04902e-08
1.41142e-09
2.07062e-08
-2.40012e-10
-4.69425e-09
5.93367e-08
-5.16652e-11
4.53499e-08
-8.83439e-10
2.72767e-08
2.16751e-08
2.07741e-09
1.12145e-09
4.83815e-09
6.20872e-08
-2.22679e-09
6.79267e-09
6.4325e-08
-3.12015e-09
7.8522e-10
6.33649e-08
1.12329e-08
2.57631e-08
2.57167e-09
1.25372e-09
5.57053e-10
5.78085e-08
-4.52302e-09
2.67363e-09
4.32969e-08
-1.34604e-09
1.29223e-08
3.63784e-08
1.0962e-08
3.19932e-08
7.76658e-10
3.40373e-09
-9.24427e-10
5.89597e-08
-1.5676e-11
-7.37466e-09
6.33585e-08
-2.03817e-09
2.71462e-09
5.27203e-08
5.85641e-09
2.36347e-08
1.38828e-10
-3.09729e-09
6.06069e-08
6.0325e-09
2.85386e-08
-2.76088e-09
4.64663e-08
2.87344e-08
-3.51607e-09
-3.3407e-10
-3.10598e-09
6.1868e-08
1.13726e-09
5.18435e-11
6.11848e-08
2.82401e-09
6.75975e-10
6.08072e-08
-2.7523e-09
2.88803e-08
3.48212e-10
1.88224e-09
-2.31595e-09
5.73633e-08
1.14851e-09
-4.88515e-09
4.89677e-08
6.71573e-11
-4.46403e-09
4.25996e-08
-2.30341e-09
2.97221e-08
1.88972e-09
8.83243e-10
-2.43313e-09
5.8623e-08
1.71768e-09
9.87241e-10
5.66515e-08
2.23048e-09
1.03467e-09
4.67087e-08
-3.48525e-09
2.70811e-08
-3.40257e-11
-1.80022e-09
5.86252e-08
-6.57365e-09
3.65679e-08
-2.39545e-10
4.02664e-08
2.6989e-08
-3.23278e-10
1.68707e-09
-4.33194e-09
6.57004e-08
1.68133e-09
-4.13135e-09
6.53219e-08
8.04704e-10
-3.9136e-09
6.55977e-08
-4.67667e-09
3.50242e-08
-6.63148e-10
2.43036e-09
-5.1663e-09
5.78673e-08
2.01208e-09
-6.80151e-09
5.20568e-08
4.81122e-10
-8.52803e-09
4.8744e-08
-6.14124e-09
3.18041e-08
-1.35734e-10
5.1017e-10
-5.06299e-09
5.8075e-08
1.26391e-09
-3.2921e-09
5.23889e-08
1.4456e-09
-6.04957e-09
4.40482e-08
-6.38664e-09
2.88909e-08
-1.1944e-10
2.40749e-10
5.5729e-08
-1.30109e-09
4.04236e-08
8.35749e-10
3.64956e-08
2.68782e-08
-2.49886e-10
-7.79522e-10
-4.56936e-10
6.63727e-08
-7.48607e-11
1.59592e-09
6.30224e-08
2.51865e-09
4.44607e-09
5.85585e-08
-1.34474e-09
3.88642e-08
2.07972e-11
5.14984e-10
-1.51072e-09
5.90028e-08
4.76564e-11
1.74254e-10
5.39466e-08
1.84063e-09
2.86692e-09
4.85315e-08
-1.67764e-09
3.41678e-08
-1.91702e-10
5.6663e-10
4.35675e-10
5.46537e-08
6.89806e-10
3.00478e-09
4.94366e-08
1.57952e-09
4.02011e-09
4.20061e-08
-7.25818e-10
2.95495e-08
-3.17109e-11
2.94203e-09
4.90817e-08
9.51855e-10
4.12296e-08
5.3945e-10
3.49059e-08
2.50113e-08
-1.19165e-11
3.63833e-10
7.97219e-10
6.52727e-08
8.82172e-10
1.40625e-09
6.10991e-08
2.05612e-09
2.52774e-09
5.48583e-08
-2.20883e-10
4.10258e-08
1.16927e-10
9.87191e-10
6.92149e-10
5.86358e-08
9.4731e-10
1.20026e-09
5.41931e-08
1.75101e-09
2.50921e-09
4.77473e-08
-1.83688e-10
3.59281e-08
-4.63132e-11
1.23983e-09
1.62015e-09
5.26919e-08
1.21769e-09
2.42082e-09
4.82389e-08
1.47594e-09
2.86234e-09
4.13954e-08
1.16445e-10
3.08638e-08
-1.38855e-10
2.00274e-09
4.62929e-08
1.28676e-09
4.15586e-08
9.33435e-10
3.50712e-08
2.57198e-08
-1.44683e-10
3.11842e-10
4.75369e-10
6.47364e-08
3.49281e-10
6.18944e-10
6.04433e-08
7.29689e-10
1.0356e-09
5.34428e-08
-4.00459e-12
4.16557e-08
1.04154e-10
5.026e-10
7.33318e-10
5.83046e-08
3.51143e-10
8.46928e-10
5.41174e-08
5.98108e-10
1.32028e-09
4.72162e-08
1.38349e-10
3.63481e-08
3.58335e-11
6.16346e-10
1.20901e-09
5.19973e-08
3.89862e-10
1.33099e-09
4.7982e-08
4.1901e-10
1.53642e-09
4.11506e-08
4.13187e-10
3.10398e-08
-3.20385e-11
8.35229e-10
4.55464e-08
4.23515e-10
4.1687e-08
2.10815e-10
3.51303e-08
2.56804e-08
-6.74768e-11
3.36964e-10
3.98117e-10
6.42704e-08
2.97782e-10
4.06595e-10
6.00766e-08
4.227e-10
5.32968e-10
5.27858e-08
9.09542e-11
4.19329e-08
5.51135e-11
3.88594e-10
6.61532e-10
5.79825e-08
2.90886e-10
6.39648e-10
5.3983e-08
3.6424e-10
7.65492e-10
4.69112e-08
2.05289e-10
3.65709e-08
2.74787e-11
4.2105e-10
8.83517e-10
5.16982e-08
2.85236e-10
8.43157e-10
4.79152e-08
2.69945e-10
8.64168e-10
4.10679e-08
3.18991e-10
3.12018e-08
-5.54393e-12
4.54376e-10
4.53703e-08
2.63669e-10
4.18088e-08
1.56817e-10
3.52538e-08
2.58107e-08
-3.08181e-11
2.45056e-10
2.60994e-10
6.3973e-08
1.91083e-10
2.33917e-10
5.98976e-08
2.03734e-10
2.57247e-10
5.25168e-08
5.99856e-11
4.20577e-08
1.95232e-11
2.51576e-10
4.35746e-10
5.77828e-08
1.78365e-10
3.83545e-10
5.39074e-08
1.73697e-10
3.90446e-10
4.67834e-08
1.26896e-10
3.66717e-08
6.47168e-12
2.47609e-10
5.41231e-10
5.15755e-08
1.59077e-10
4.77582e-10
4.79106e-08
1.23836e-10
4.4038e-10
4.10539e-08
1.83149e-10
3.12805e-08
-1.09473e-11
2.32365e-10
4.53554e-08
1.28816e-10
4.19038e-08
6.55538e-11
3.53377e-08
2.58802e-08
-2.24114e-11
1.5228e-10
1.5188e-10
6.38053e-08
1.10974e-10
1.26448e-10
5.98132e-08
9.4461e-11
1.22224e-10
5.24118e-08
3.24398e-11
4.21207e-08
-4.02285e-13
1.47717e-10
2.54511e-10
5.76719e-08
1.00457e-10
2.11426e-10
5.38704e-08
7.88424e-11
1.9117e-10
4.67369e-08
6.67806e-11
3.67249e-08
-8.17848e-12
1.35965e-10
3.05113e-10
5.15248e-08
8.38859e-11
2.55457e-10
4.79193e-08
5.34942e-11
2.15297e-10
4.10608e-08
9.08778e-11
3.13262e-08
-1.60264e-11
1.14461e-10
4.53746e-08
5.9515e-11
4.19659e-08
2.29323e-11
3.53906e-08
2.59238e-08
-2.16812e-11
8.60115e-11
8.46227e-11
6.37142e-08
5.9136e-11
6.67586e-11
5.97738e-08
3.986e-11
5.74006e-11
5.23742e-08
1.57546e-11
4.21561e-08
-1.07146e-11
8.01399e-11
1.41042e-10
5.76134e-08
5.15222e-11
1.11879e-10
5.38543e-08
3.12926e-11
9.10311e-11
4.67242e-08
3.10829e-11
3.67557e-08
-1.42072e-11
6.93811e-11
1.64822e-10
5.15042e-08
3.96877e-11
1.31858e-10
4.79296e-08
1.79234e-11
1.01474e-10
4.10728e-08
3.95366e-11
3.13539e-08
-1.79562e-11
5.2074e-11
4.53948e-08
2.27231e-11
4.20046e-08
1.12304e-12
3.5424e-08
2.59507e-08
-2.10752e-11
4.43292e-11
4.55315e-11
6.36664e-08
2.80169e-11
3.41876e-11
5.97562e-08
1.31791e-11
2.61092e-11
5.23633e-08
6.27815e-12
4.21769e-08
-1.33932e-11
3.95012e-11
7.51246e-11
5.75838e-08
2.2731e-11
5.68796e-11
5.38488e-08
8.13432e-12
4.141e-11
4.67241e-08
1.18141e-11
3.67743e-08
-1.53684e-11
3.14952e-11
8.57792e-11
5.14968e-08
1.47426e-11
6.52406e-11
4.79385e-08
5.28504e-13
4.49801e-11
4.1084e-08
1.30191e-11
3.13711e-08
-1.74375e-11
1.94182e-11
4.54101e-08
3.58801e-12
4.20285e-08
-8.91857e-12
3.54451e-08
2.59673e-08
-1.93724e-11
2.00694e-11
2.35753e-11
6.36423e-08
1.04646e-11
1.67578e-11
5.97492e-08
5.55833e-13
1.11562e-11
5.23625e-08
1.30125e-12
4.21894e-08
-1.2861e-11
1.6561e-11
3.84658e-11
5.75699e-08
6.86468e-12
2.74889e-11
5.38481e-08
-2.51543e-12
1.73662e-11
4.67278e-08
2.12935e-12
3.67857e-08
-1.42117e-11
1.10331e-11
4.28169e-11
5.1495e-08
1.63354e-12
3.03297e-11
4.79455e-08
-6.88816e-12
1.75828e-11
4.10928e-08
5.74399e-13
3.13817e-08
-1.55693e-11
2.99983e-12
4.54207e-08
-5.62174e-12
4.20433e-08
-1.23949e-11
3.54583e-08
2.59775e-08
-1.68982e-11
6.94087e-12
1.17302e-11
6.36309e-08
1.38062e-12
7.75402e-12
5.97472e-08
-4.53509e-12
4.09045e-12
5.23646e-08
-8.03788e-13
4.21972e-08
-1.11863e-11
4.50249e-12
1.88657e-11
5.75639e-08
-8.95026e-13
1.22827e-11
5.38493e-08
-6.60227e-12
6.09092e-12
4.6732e-08
-1.94159e-12
3.67928e-08
-1.21747e-11
7.287e-13
2.0302e-11
5.14956e-08
-4.55977e-12
1.26749e-11
4.79507e-08
-9.18903e-12
4.73056e-12
4.10991e-08
-4.25542e-12
3.13883e-08
-1.3136e-11
-4.59233e-12
4.54278e-08
-9.34995e-12
4.20524e-08
-1.26979e-11
3.54665e-08
2.59837e-08
-1.41309e-11
3.856e-13
5.55528e-12
6.3626e-08
-2.78093e-12
3.20869e-12
5.97473e-08
-6.09744e-12
1.03548e-12
5.23671e-08
-1.5243e-12
4.2202e-08
-9.17494e-12
-1.39047e-12
8.76279e-12
5.75617e-08
-4.49211e-12
4.80242e-12
5.3851e-08
-7.49896e-12
1.00839e-12
4.67352e-08
-3.24374e-12
3.67972e-08
-9.91034e-12
-3.8893e-12
8.90662e-12
5.14969e-08
-6.81319e-12
4.19049e-12
4.79543e-08
-9.2358e-12
-6.17609e-13
4.11032e-08
-5.63459e-12
3.13923e-08
-1.0622e-11
-7.46102e-12
4.54323e-08
-9.94171e-12
4.20579e-08
-1.14724e-11
3.54715e-08
2.59874e-08
-1.13958e-11
-2.45199e-12
2.44803e-12
6.36241e-08
-4.23443e-12
1.045e-12
5.97481e-08
-5.95724e-12
-2.33862e-13
5.23692e-08
-1.56666e-12
4.22049e-08
-7.17319e-12
-3.64553e-12
3.66429e-12
5.75613e-08
-5.40633e-12
1.30365e-12
5.38525e-08
-6.92566e-12
-9.77032e-13
4.67376e-08
-3.26303e-12
3.67998e-08
-7.72176e-12
-5.3715e-12
3.30016e-12
5.14981e-08
-6.94511e-12
4.13337e-13
4.79568e-08
-8.05525e-12
-2.51734e-12
4.11059e-08
-5.32836e-12
3.13947e-08
-8.24734e-12
-7.73031e-12
4.54352e-08
-8.96619e-12
4.20612e-08
-9.50611e-12
3.54744e-08
2.59895e-08
-8.82051e-12
-3.20639e-12
8.88683e-13
6.36236e-08
-4.18854e-12
1.1968e-13
5.9749e-08
-4.99697e-12
-6.46668e-13
5.23707e-08
-1.30998e-12
4.22066e-08
-5.32235e-12
-4.01886e-12
1.17268e-12
5.75614e-08
-4.96154e-12
-1.97788e-13
5.38538e-08
-5.64917e-12
-1.52263e-12
4.67392e-08
-2.7279e-12
3.68014e-08
-5.72124e-12
-5.14951e-12
6.72108e-13
5.14991e-08
-5.96607e-12
-1.06953e-12
4.79584e-08
-6.37329e-12
-2.79121e-12
4.11076e-08
-4.35577e-12
3.13961e-08
-6.09621e-12
-6.64858e-12
4.5437e-08
-7.25509e-12
4.20633e-08
-7.30525e-12
3.54762e-08
2.59908e-08
-6.49329e-12
-2.89204e-12
2.10614e-13
6.36237e-08
-3.3959e-12
-2.41034e-13
5.97498e-08
-3.72562e-12
-6.29308e-13
5.23717e-08
-9.37552e-13
4.22076e-08
-3.68754e-12
-3.38896e-12
6.71614e-14
5.75619e-08
-3.88964e-12
-6.75255e-13
5.38547e-08
-4.14167e-12
-1.39413e-12
4.67401e-08
-2.00204e-12
3.68022e-08
-3.96315e-12
-4.09033e-12
-4.08208e-13
5.15e-08
-4.50748e-12
-1.37001e-12
4.79595e-08
-4.58893e-12
-2.33734e-12
4.11086e-08
-3.18444e-12
3.13968e-08
-4.21381e-12
-4.9872e-12
4.54383e-08
-5.28949e-12
4.20646e-08
-5.16436e-12
3.54772e-08
2.59914e-08
-4.46487e-12
-2.11447e-12
-7.06433e-14
6.36239e-08
-2.34715e-12
-2.67206e-13
5.97503e-08
-2.4447e-12
-4.5209e-13
5.23722e-08
-5.80598e-13
4.2208e-08
-2.32272e-12
-2.40099e-12
-2.80629e-13
5.75623e-08
-2.63188e-12
-6.39798e-13
5.38552e-08
-2.68679e-12
-9.93224e-13
4.67407e-08
-1.27889e-12
3.68026e-08
-2.49203e-12
-2.79602e-12
-6.23981e-13
5.15006e-08
-2.98316e-12
-1.11154e-12
4.79602e-08
-2.94359e-12
-1.61638e-12
4.11092e-08
-2.05116e-12
3.13971e-08
-2.64245e-12
-3.29303e-12
4.54391e-08
-3.42571e-12
4.20653e-08
-3.27471e-12
3.54777e-08
2.59917e-08
-2.78705e-12
-1.33868e-12
-1.23322e-13
-1.44623e-12
-2.18793e-13
-1.46886e-12
-3.06231e-13
-3.62452e-13
-1.36218e-12
-1.48442e-12
-2.82007e-13
-1.59078e-12
-4.5835e-13
-1.59089e-12
-6.30344e-13
-7.63542e-13
-1.44314e-12
-1.69726e-12
-4.86574e-13
-1.77967e-12
-7.37654e-13
-1.72871e-12
-9.93868e-13
-1.21021e-12
-1.52073e-12
-1.96658e-12
-2.01516e-12
-1.89794e-12
-1.59671e-12
6.22043e-09
2.56436e-10
2.65111e-08
2.75089e-09
-4.27048e-09
3.82224e-08
1.54765e-08
-3.57157e-09
2.8963e-08
-4.12012e-09
6.45795e-08
-4.77317e-09
-5.38995e-09
5.06984e-08
3.53702e-09
5.54511e-10
2.76939e-08
1.34799e-08
6.69392e-10
3.48813e-08
-3.47018e-09
6.34212e-08
2.43741e-09
2.94943e-09
2.94216e-08
5.32432e-09
4.74847e-10
4.66396e-08
5.87704e-09
7.02152e-09
4.78237e-08
4.13484e-09
5.87367e-08
4.84205e-10
5.74141e-08
1.6055e-08
3.34868e-08
5.98169e-09
7.37823e-08
7.8517e-08
2.77635e-09
6.15066e-10
2.44521e-08
-4.66339e-10
1.86185e-09
3.78247e-08
6.96818e-09
1.46429e-09
1.97422e-08
-3.5807e-09
7.18864e-08
6.42811e-09
8.46823e-09
3.92294e-08
2.27631e-09
3.20238e-09
3.05049e-08
-5.95559e-09
4.39172e-11
4.45334e-08
-8.09891e-10
5.8438e-08
2.52676e-10
-8.00215e-10
4.5498e-08
-2.94526e-09
3.32506e-09
4.97148e-08
1.11253e-09
5.73168e-10
4.32366e-08
-1.56693e-09
5.99416e-08
4.82915e-09
5.18257e-08
-7.91534e-09
5.35417e-08
-2.78118e-09
5.98965e-08
6.47201e-08
-2.62326e-09
2.02505e-09
2.14781e-08
1.68986e-09
6.80296e-09
2.83931e-08
-8.79772e-09
4.34926e-09
2.55148e-08
5.87331e-09
5.51723e-08
6.6043e-09
5.6268e-09
2.8461e-08
1.42068e-09
2.48352e-09
4.00079e-08
-7.61091e-09
4.02583e-09
5.38883e-08
6.04629e-09
5.11702e-08
4.30256e-09
4.21901e-09
4.46719e-08
6.43985e-09
1.00203e-09
4.90589e-08
3.11067e-09
1.05234e-09
4.95392e-08
-3.25015e-09
7.15778e-08
-8.56731e-11
5.75327e-08
6.12953e-09
5.11744e-08
-7.34467e-09
7.97161e-08
5.31399e-08
-1.88487e-09
2.14272e-09
2.46263e-08
4.75309e-09
9.60488e-10
2.20462e-08
1.88597e-09
-1.33675e-09
3.07505e-08
-1.94368e-09
5.99434e-08
-5.2366e-09
-2.96059e-09
4.03944e-08
-4.33394e-10
1.45643e-09
3.47087e-08
-2.93456e-10
1.94242e-09
5.04692e-08
1.76775e-09
4.76805e-08
2.76123e-09
5.20679e-09
3.17762e-08
4.68245e-10
1.51708e-09
5.12912e-08
-2.17036e-09
2.5799e-09
5.15403e-08
6.07422e-09
6.5169e-08
-2.29668e-09
6.02142e-08
-4.13533e-09
5.31694e-08
2.83884e-09
7.30865e-08
6.14344e-08
-6.60714e-09
5.07847e-09
3.18999e-08
-2.51082e-10
1.00665e-09
1.44434e-08
-1.25006e-09
1.4145e-09
3.05594e-08
1.42573e-09
5.90502e-08
-6.93968e-09
-4.34661e-09
6.44559e-08
-4.74685e-09
-2.06296e-09
3.55854e-08
-4.761e-09
-4.01029e-10
5.22988e-08
-2.05568e-10
4.47827e-08
-4.21964e-09
-1.67481e-09
3.50397e-08
-5.72546e-09
1.64773e-09
4.90864e-08
-6.84914e-09
-1.19852e-09
5.34614e-08
1.28843e-09
5.88913e-08