/*--------------------------------*- C++ -*----------------------------------*\
| =========                 |                                                 |
| \\      /  F ield         | OpenFOAM: The Open Source CFD Toolbox           |
|  \\    /   O peration     | Version:  2506                                  |
|   \\  /    A nd           | Website:  www.openfoam.com                      |
|    \\/     M anipulation  |                                                 |
\*---------------------------------------------------------------------------*/
FoamFile
{
    version     2.0;
    format      ascii;
    arch        "LSB;label=32;scalar=64";
    class       volVectorField;
    location    "0.07";
    object      Us;
}
// * * * * * * * * * * * * * * * * * * * * * * * * * * * * * * * * * * * * * //

dimensions      [0 1 -1 0 0 0 0];

internalField   nonuniform List<vector> 
1152
(
(-0.00011071 -0.000217133 0.000103444)
(0.000161649 0.000108207 0.000723349)
(0.000372696 -0.000252711 0.000604511)
(0.000998234 0.00042365 -0.000596217)
(-0.000110794 -0.000215835 0.000158097)
(-0.000119823 -0.000136157 0.00024348)
(-0.00021918 -0.000128773 -0.000115925)
(-1.70173e-05 0.000262291 -0.000528092)
(-0.000132121 0.000610219 -0.000623659)
(0.000902625 -0.000162417 -0.000171244)
(0.00084261 0.000589129 -0.000368127)
(0.000160902 0.00069456 -5.81235e-05)
(3.52759e-05 0.000953807 -0.000156259)
(0.000594229 0.00084456 -0.000444578)
(0.000833549 0.00224058 -0.000749681)
(0.00131675 0.000592028 0.000196021)
(0.000114627 -3.75961e-05 0.00424664)
(0.00047013 0.000303435 0.0059911)
(0.000193288 -0.000798897 0.00601329)
(0.000677088 0.000105247 0.00480208)
(0.00054948 0.00080444 0.00695349)
(0.00096297 0.000942371 0.00681157)
(0.000458357 -0.000545486 0.00591247)
(0.000445379 4.56458e-05 0.00629913)
(-0.00116288 0.00108934 0.00657545)
(0.000847782 6.97608e-05 0.00670452)
(0.00160949 -0.00058706 0.00604118)
(0.00142663 0.000354028 0.00611849)
(0.000599594 0.000602148 0.00714992)
(0.0015272 -0.000283643 0.0066357)
(0.00159783 -0.00010228 0.0080439)
(0.000182905 0.0015944 0.00722217)
(0.000490176 0.000195249 0.00568334)
(9.20221e-05 0.000909574 0.0056093)
(2.17625e-05 -0.000532808 0.00701572)
(0.000766363 0.000246614 0.00621245)
(0.000492504 0.000565944 0.00636785)
(0.000259499 0.000738824 0.00627789)
(0.000335125 -4.54815e-05 0.00653261)
(0.000657617 0.000378565 0.0068012)
(4.59569e-05 0.000478115 0.00688179)
(0.000279817 0.000558418 0.00698589)
(0.000208126 0.000902017 0.00685279)
(0.000564071 0.00058986 0.00667356)
(0.000294625 0.000199052 0.00695606)
(0.000878445 -0.000249284 0.00647399)
(0.000331235 -0.00017725 0.00646121)
(0.000305126 0.000954276 0.00679779)
(0.000360004 0.000184114 0.00554431)
(0.000467938 0.000334681 0.00570745)
(0.000574896 0.000431283 0.00575554)
(0.000281275 0.000134837 0.00558942)
(0.000171557 5.71903e-05 0.00579011)
(0.000250607 0.000262677 0.00621491)
(0.000479384 0.000480391 0.00610632)
(0.000392741 0.000410254 0.00589869)
(0.000249085 0.000232934 0.00609598)
(0.000224086 0.000267411 0.00628592)
(0.000362797 0.000399325 0.00620726)
(0.000424107 0.000447693 0.00629998)
(0.000301123 4.46014e-05 0.00620387)
(0.000529997 0.000390337 0.00634058)
(0.000334494 0.000324492 0.00637109)
(7.04463e-05 0.000497494 0.00688941)
(0.000436219 9.51397e-05 0.00577255)
(0.000204682 7.11286e-05 0.00567581)
(0.000141754 0.000380708 0.0058157)
(-0.000227796 0.000499752 0.00617568)
(0.000263839 -0.000120823 0.00570497)
(1.68145e-05 9.37452e-05 0.00589263)
(7.29427e-05 0.000274173 0.00594037)
(-0.00015219 0.0002268 0.00584796)
(0.000134792 8.33787e-05 0.00596645)
(-3.87217e-05 2.08481e-05 0.00619306)
(6.72445e-05 0.000312672 0.00618519)
(0.000216143 0.00040822 0.00648609)
(-3.79325e-05 -8.37435e-05 0.00615561)
(0.000164161 7.83384e-05 0.00633134)
(0.000293032 9.50664e-05 0.0064462)
(0.000187058 0.000489888 0.00647553)
(0.000166363 -0.000135824 0.00571146)
(-9.42697e-05 -0.000439719 0.00573732)
(-0.000318253 -0.000239156 0.00562414)
(-0.000201897 0.000151141 0.00572215)
(5.23435e-05 7.4733e-05 0.00589645)
(-0.000141253 -0.000136611 0.00595601)
(-0.000382613 -0.000386233 0.00589518)
(-0.000300426 5.30607e-05 0.00595153)
(-5.15723e-05 -6.78143e-06 0.00598975)
(-0.000113365 -1.47316e-05 0.00610966)
(-0.000208951 -1.95386e-05 0.00620355)
(-0.000282641 0.000130302 0.00647266)
(-8.42367e-05 4.11878e-05 0.00610602)
(-8.80982e-05 -3.92861e-05 0.00617361)
(-7.19446e-05 -1.06963e-05 0.00628076)
(-8.22878e-05 -4.49799e-05 0.00639246)
(-0.000174803 -0.000101251 0.00570902)
(7.57833e-05 -0.000201003 0.00573821)
(-0.000176732 -0.000617758 0.00570111)
(-0.000952137 -0.000211201 0.0048676)
(-0.00157508 -8.47675e-05 0.00469889)
(-0.000345244 -9.13846e-05 0.00599444)
(-0.000389304 -0.000244235 0.00585282)
(-0.000310759 3.16833e-05 0.00593435)
(-6.64022e-05 6.49567e-05 0.00599615)
(-0.000179494 -6.57291e-05 0.00609051)
(-0.00036681 -0.000193243 0.00618804)
(-0.000400693 -1.46211e-06 0.00635957)
(-0.00010733 -0.000233087 0.00613769)
(-0.000124789 -0.000121011 0.00625424)
(-5.52192e-05 -0.000159669 0.00613345)
(-0.000164129 1.34768e-05 0.00638502)
(0 0 0)
(0 0 0)
(0 0 0)
(0 0 0)
(0 0 0)
(0 0 0)
(0 0 0)
(0 0 0)
(0 0 0)
(0 0 0)
(-0.000362403 -0.00032733 0.00626028)
(0 0 0)
(0 0 0)
(-0.000287113 -0.000178397 0.00621848)
(0.000135318 -0.000181805 0.00612728)
(0 0 0)
(0 0 0)
(0 0 0)
(0 0 0)
(0 0 0)
(0 0 0)
(0 0 0)
(0 0 0)
(0 0 0)
(0 0 0)
(0 0 0)
(0 0 0)
(0 0 0)
(0 0 0)
(0 0 0)
(0 0 0)
(0 0 0)
(0 0 0)
(0 0 0)
(0 0 0)
(0 0 0)
(0 0 0)
(0 0 0)
(0 0 0)
(0 0 0)
(0 0 0)
(0 0 0)
(0 0 0)
(0 0 0)
(0 0 0)
(0 0 0)
(0 0 0)
(0 0 0)
(0 0 0)
(0 0 0)
(0 0 0)
(0 0 0)
(0 0 0)
(0 0 0)
(0 0 0)
(0 0 0)
(0 0 0)
(0 0 0)
(0 0 0)
(0 0 0)
(0 0 0)
(0 0 0)
(0 0 0)
(0 0 0)
(0 0 0)
(0 0 0)
(0 0 0)
(0 0 0)
(0 0 0)
(0 0 0)
(0 0 0)
(0 0 0)
(0 0 0)
(0 0 0)
(0 0 0)
(0 0 0)
(0 0 0)
(0 0 0)
(0 0 0)
(0 0 0)
(0 0 0)
(0 0 0)
(0 0 0)
(0 0 0)
(0 0 0)
(0 0 0)
(0 0 0)
(0 0 0)
(0 0 0)
(0 0 0)
(0 0 0)
(0 0 0)
(0 0 0)
(0 0 0)
(0 0 0)
(0 0 0)
(0 0 0)
(0 0 0)
(0 0 0)
(0 0 0)
(0 0 0)
(0 0 0)
(0 0 0)
(0 0 0)
(0 0 0)
(0 0 0)
(0 0 0)
(0 0 0)
(0 0 0)
(0 0 0)
(0 0 0)
(0 0 0)
(0 0 0)
(0 0 0)
(0 0 0)
(0 0 0)
(0 0 0)
(0 0 0)
(0 0 0)
(0 0 0)
(0 0 0)
(0 0 0)
(0 0 0)
(0 0 0)
(0 0 0)
(0 0 0)
(0 0 0)
(0 0 0)
(0 0 0)
(0 0 0)
(0 0 0)
(0 0 0)
(0 0 0)
(0 0 0)
(0 0 0)
(0 0 0)
(0 0 0)
(0 0 0)
(0 0 0)
(0 0 0)
(0 0 0)
(0 0 0)
(0 0 0)
(0 0 0)
(0 0 0)
(0 0 0)
(0 0 0)
(0 0 0)
(0 0 0)
(0 0 0)
(0 0 0)
(0 0 0)
(0 0 0)
(0 0 0)
(0 0 0)
(0 0 0)
(0 0 0)
(0 0 0)
(0 0 0)
(0 0 0)
(0 0 0)
(0 0 0)
(0 0 0)
(0 0 0)
(0 0 0)
(0 0 0)
(0 0 0)
(0 0 0)
(0 0 0)
(0 0 0)
(0 0 0)
(0 0 0)
(0 0 0)
(0 0 0)
(0 0 0)
(0 0 0)
(0 0 0)
(0 0 0)
(0 0 0)
(0 0 0)
(0 0 0)
(0 0 0)
(0 0 0)
(0 0 0)
(0 0 0)
(0 0 0)
(0 0 0)
(0 0 0)
(0 0 0)
(0 0 0)
(0 0 0)
(0 0 0)
(0 0 0)
(0 0 0)
(0 0 0)
(0 0 0)
(0 0 0)
(0 0 0)
(0 0 0)
(0 0 0)
(0 0 0)
(0 0 0)
(0 0 0)
(0 0 0)
(0 0 0)
(0 0 0)
(0 0 0)
(0 0 0)
(0 0 0)
(0 0 0)
(0 0 0)
(0 0 0)
(0 0 0)
(0 0 0)
(0 0 0)
(0 0 0)
(0 0 0)
(0 0 0)
(0 0 0)
(0 0 0)
(0 0 0)
(0 0 0)
(0 0 0)
(0 0 0)
(0 0 0)
(0 0 0)
(0 0 0)
(0 0 0)
(0 0 0)
(0 0 0)
(0 0 0)
(0 0 0)
(0 0 0)
(0 0 0)
(0 0 0)
(0 0 0)
(0 0 0)
(0 0 0)
(0 0 0)
(0 0 0)
(0 0 0)
(0 0 0)
(0 0 0)
(0 0 0)
(0 0 0)
(0 0 0)
(0 0 0)
(0 0 0)
(0 0 0)
(0 0 0)
(0 0 0)
(0 0 0)
(0 0 0)
(0 0 0)
(0 0 0)
(0 0 0)
(0 0 0)
(0 0 0)
(0 0 0)
(0 0 0)
(0 0 0)
(0 0 0)
(0 0 0)
(0 0 0)
(0 0 0)
(0 0 0)
(0 0 0)
(0 0 0)
(0 0 0)
(0 0 0)
(0 0 0)
(0 0 0)
(-9.75161e-05 0.000157839 -0.000345227)
(0.000476911 0.000302686 -0.000491143)
(-0.000142836 -1.8927e-05 0.000306635)
(0.000163146 8.29899e-05 -0.000226813)
(0.000254343 -0.000154353 0.000261002)
(0.00024908 -0.000575885 -6.72654e-07)
(-7.2486e-05 -6.96513e-06 7.73974e-05)
(-6.57048e-05 0.000268147 4.06771e-05)
(0.000725355 -0.000680262 -0.000786489)
(0.000113122 -0.000330526 8.39723e-05)
(0.000140667 -0.000108659 -8.59381e-06)
(0.000592645 -1.95059e-05 0.00027254)
(6.73881e-05 -0.000309407 -0.000145693)
(0.000521037 0.000218888 -5.76017e-05)
(0.000435647 -0.00021022 -6.66054e-06)
(0.000484478 -0.000423264 -0.000239379)
(-0.00121904 -0.000312842 0.00464372)
(-0.00111628 -0.000488492 0.00620643)
(-0.000295584 0.000480132 0.0042993)
(0.000749328 -0.000318136 0.00650801)
(-0.000215373 -0.00100731 0.00472293)
(-0.000967501 -0.000636517 0.00545043)
(-0.000729267 0.00109256 0.00514766)
(0.00196891 -0.000355957 0.00556299)
(0.000610775 -0.00117663 0.00566796)
(0.000759167 0.000439552 0.00608511)
(0.00073647 0.000263367 0.00688715)
(-0.000275961 -0.000360639 0.0084299)
(7.32115e-05 -0.000997807 0.00502807)
(0.00107439 -0.000234712 0.00505552)
(0.00135044 -0.000766657 0.00587637)
(0.000862838 0.000266855 0.00612179)
(-6.06385e-05 6.84743e-06 0.00601057)
(-0.000202481 -0.000227898 0.00434117)
(0.00135126 0.000211239 0.00415273)
(0.00158795 0.00027495 0.00679863)
(0.000236867 0.000240608 0.00609759)
(-8.15964e-05 0.000405962 0.00491345)
(-7.83019e-06 5.32669e-05 0.00536168)
(0.000637192 0.000501418 0.00484031)
(0.000122082 9.47541e-05 0.00720419)
(0.00010142 0.00152598 0.00612402)
(0.00052255 0.000328917 0.00562751)
(0.000942671 0.000610653 0.00505569)
(-0.00104167 0.000267004 0.00606413)
(-0.000369433 0.000916641 0.00631847)
(0.000350876 0.000487943 0.00602519)
(0.000500913 0.000681593 0.0059076)
(-9.89609e-05 -0.000236243 0.00545044)
(0.00137956 0.000313197 0.00344307)
(0.000259642 0.00023167 0.00382928)
(-0.000598037 -0.000296413 0.00554972)
(0.000179138 0.000399406 0.00663974)
(0.000107311 0.00119541 0.00534547)
(-0.00012856 9.20671e-05 0.0049581)
(-0.000306391 0.00033758 0.005642)
(-0.000530426 0.000828135 0.00650288)
(-0.000456488 0.000600882 0.00615932)
(0.000784978 8.59174e-05 0.0050853)
(6.33431e-05 -0.000139303 0.00538005)
(4.41012e-05 0.000640492 0.00544794)
(0.000161971 0.000585163 0.00563531)
(0.000175254 0.000487944 0.00556556)
(2.68778e-05 -0.00015586 0.00506097)
(-0.000451779 -0.000504961 0.00394031)
(-2.21295e-05 0.000164499 0.00343613)
(-0.00128242 -0.000696847 0.00554046)
(0.00033335 -0.000563147 0.00643575)
(-0.0008736 -0.00033129 0.00462121)
(-0.000188883 5.22256e-05 0.00420807)
(0.000149446 0.000451451 0.00486284)
(6.36366e-05 0.000296735 0.00456059)
(-0.000132638 0.000433164 0.0058046)
(0.000682956 0.000230405 0.00505748)
(0.000610954 -0.00049886 0.00582096)
(-0.000312282 0.000526193 0.00531432)
(0.000475738 0.000151334 0.0055126)
(0.00047223 0.000102072 0.00533364)
(5.83842e-05 0.00043611 0.00558867)
(-0.000582804 0.000390151 0.00557717)
(-2.43963e-05 -0.00030467 0.00374298)
(2.89056e-05 0.000210678 0.00350142)
(0.000429806 0.000499515 0.0011774)
(0.000201036 -0.000100334 0.0033948)
(0.000145793 -0.000406532 0.00469508)
(0.000337485 -2.51192e-05 0.00401175)
(-0.00019574 0.000370138 0.0036256)
(3.41509e-06 -0.000217985 0.0034452)
(0.00059723 0.000162302 0.00523438)
(0.000448463 8.04647e-06 0.0052348)
(0.00020604 0.000605544 0.00559596)
(0.000122888 -0.000174544 0.00493577)
(0.000590949 -0.000137108 0.00554798)
(1.17457e-05 -0.000252129 0.00531179)
(-0.000167751 0.000117528 0.00563335)
(4.59894e-05 0.000165278 0.0054882)
(-8.24363e-05 -0.00113434 0.00362786)
(0.000221572 -0.000404884 0.00272891)
(0.0012235 0.000590676 0.00109036)
(0.000714207 -0.000317244 0.00255273)
(0.000523955 -0.000413449 0.0044571)
(0.000608357 -0.000135029 0.00440382)
(0.000726842 -0.000569336 0.00307006)
(4.41476e-05 -0.000883068 0.00431385)
(0.000740498 -0.00036558 0.00539434)
(0.000554458 -0.000290891 0.0046348)
(0.000945878 -4.00911e-05 0.00427079)
(0.000536394 -0.000580623 0.0049736)
(0.000499785 -0.000117405 0.00565034)
(-0.00314314 -0.00115201 0.00404389)
(0.000383782 -0.000395818 0.00583491)
(0.000287272 -0.000750344 0.00512732)
(0 0 0)
(0 0 0)
(0 0 0)
(0 0 0)
(0 0 0)
(0 0 0)
(0 0 0)
(0 0 0)
(0 0 0)
(0 0 0)
(0 0 0)
(0 0 0)
(0 0 0)
(0 0 0)
(0 0 0)
(0 0 0)
(0 0 0)
(0 0 0)
(0 0 0)
(0 0 0)
(0 0 0)
(0 0 0)
(0 0 0)
(0 0 0)
(0 0 0)
(0 0 0)
(0 0 0)
(0 0 0)
(0 0 0)
(0 0 0)
(0 0 0)
(0 0 0)
(0 0 0)
(0 0 0)
(0 0 0)
(0 0 0)
(0 0 0)
(0 0 0)
(0 0 0)
(0 0 0)
(0 0 0)
(0 0 0)
(0 0 0)
(0 0 0)
(0 0 0)
(0 0 0)
(0 0 0)
(0 0 0)
(0 0 0)
(0 0 0)
(0 0 0)
(0 0 0)
(0 0 0)
(0 0 0)
(0 0 0)
(0 0 0)
(0 0 0)
(0 0 0)
(0 0 0)
(0 0 0)
(0 0 0)
(0 0 0)
(0 0 0)
(0 0 0)
(0 0 0)
(0 0 0)
(0 0 0)
(0 0 0)
(0 0 0)
(0 0 0)
(0 0 0)
(0 0 0)
(0 0 0)
(0 0 0)
(0 0 0)
(0 0 0)
(0 0 0)
(0 0 0)
(0 0 0)
(0 0 0)
(0 0 0)
(0 0 0)
(0 0 0)
(0 0 0)
(0 0 0)
(0 0 0)
(0 0 0)
(0 0 0)
(0 0 0)
(0 0 0)
(0 0 0)
(0 0 0)
(0 0 0)
(0 0 0)
(0 0 0)
(0 0 0)
(0 0 0)
(0 0 0)
(0 0 0)
(0 0 0)
(0 0 0)
(0 0 0)
(0 0 0)
(0 0 0)
(0 0 0)
(0 0 0)
(0 0 0)
(0 0 0)
(0 0 0)
(0 0 0)
(0 0 0)
(0 0 0)
(0 0 0)
(0 0 0)
(0 0 0)
(0 0 0)
(0 0 0)
(0 0 0)
(0 0 0)
(0 0 0)
(0 0 0)
(0 0 0)
(0 0 0)
(0 0 0)
(0 0 0)
(0 0 0)
(0 0 0)
(0 0 0)
(0 0 0)
(0 0 0)
(0 0 0)
(0 0 0)
(0 0 0)
(0 0 0)
(0 0 0)
(0 0 0)
(0 0 0)
(0 0 0)
(0 0 0)
(0 0 0)
(0 0 0)
(0 0 0)
(0 0 0)
(0 0 0)
(0 0 0)
(0 0 0)
(0 0 0)
(0 0 0)
(0 0 0)
(0 0 0)
(0 0 0)
(0 0 0)
(0 0 0)
(0 0 0)
(0 0 0)
(0 0 0)
(0 0 0)
(0 0 0)
(0 0 0)
(0 0 0)
(0 0 0)
(0 0 0)
(0 0 0)
(0 0 0)
(0 0 0)
(0 0 0)
(0 0 0)
(0 0 0)
(0 0 0)
(0 0 0)
(0 0 0)
(0 0 0)
(0 0 0)
(0 0 0)
(0 0 0)
(0 0 0)
(0 0 0)
(0 0 0)
(0 0 0)
(0 0 0)
(0 0 0)
(0 0 0)
(0 0 0)
(0 0 0)
(0 0 0)
(0 0 0)
(0 0 0)
(0 0 0)
(0 0 0)
(0 0 0)
(0 0 0)
(0 0 0)
(0 0 0)
(0 0 0)
(0 0 0)
(0 0 0)
(0 0 0)
(0 0 0)
(0 0 0)
(0 0 0)
(0 0 0)
(0 0 0)
(0 0 0)
(0 0 0)
(0 0 0)
(0 0 0)
(0 0 0)
(0 0 0)
(0 0 0)
(0 0 0)
(0 0 0)
(0 0 0)
(0 0 0)
(0 0 0)
(0 0 0)
(0 0 0)
(0 0 0)
(0 0 0)
(0 0 0)
(0 0 0)
(0 0 0)
(0 0 0)
(0 0 0)
(0 0 0)
(0 0 0)
(0 0 0)
(0 0 0)
(0 0 0)
(0 0 0)
(0 0 0)
(0 0 0)
(0 0 0)
(0 0 0)
(0 0 0)
(0 0 0)
(0 0 0)
(0 0 0)
(0 0 0)
(0 0 0)
(0 0 0)
(0 0 0)
(0 0 0)
(0 0 0)
(0 0 0)
(0 0 0)
(0 0 0)
(0 0 0)
(0 0 0)
(0 0 0)
(0 0 0)
(0 0 0)
(0 0 0)
(0 0 0)
(0 0 0)
(0 0 0)
(0 0 0)
(0 0 0)
(0 0 0)
(0 0 0)
(0 0 0)
(0 0 0)
(0 0 0)
(0 0 0)
(0 0 0)
(0 0 0)
(0 0 0)
(0 0 0)
(0 0 0)
(0 0 0)
(0 0 0)
(0 0 0)
(0 0 0)
(0.000350899 -0.000138777 1.03316e-05)
(0.000319976 -0.000561288 8.11803e-05)
(0.000269912 -0.000424598 -8.61499e-05)
(0.000287932 0.000220242 -2.49898e-06)
(0.000798552 -0.000623523 -0.000218169)
(0.000180164 6.56985e-05 -0.000172027)
(0.000247391 0.000244552 0.000672511)
(7.26394e-05 -0.000157429 -0.00047004)
(8.02116e-05 -0.000674301 0.000123748)
(0.000353067 0.000304551 0.000393421)
(0.000190623 -5.40143e-06 0.000173824)
(2.86326e-05 -5.53001e-05 0.000141408)
(0.000811007 -0.000388175 -3.95594e-05)
(0.000826265 -0.000453969 5.19553e-05)
(0.000757173 -0.000177741 0.000109435)
(-2.09868e-06 -7.61551e-05 -0.000223774)
(0.001068 -0.000782439 0.0065084)
(0.000920439 -0.000933231 0.00656249)
(0.000301693 -0.000193628 0.00449758)
(-0.000442716 -0.000649252 0.00908919)
(0.00145714 0.00117154 0.0062403)
(0.00182911 0.00102496 0.00604497)
(0.000664175 0.000814266 0.00553058)
(-0.00166878 -0.000270442 0.00512612)
(0.000818133 0.000473954 0.00609156)
(0.000880288 0.00105702 0.00628772)
(0.000404456 0.000282525 0.00519125)
(-1.73501e-05 -0.00101194 0.0065592)
(0.000949085 0.000818553 0.00674902)
(-0.000116301 0.000817123 0.00589091)
(-0.000482563 0.000962587 0.00547539)
(0.000542171 0.00144868 0.00548062)
(0.000203966 0.00102378 0.00568641)
(0.000198984 0.00178667 0.00603004)
(-0.000366907 0.00135489 0.00549349)
(0.000777979 0.0019525 0.00672188)
(0.000977878 0.0010514 0.00600247)
(0.00118824 0.0010633 0.00695256)
(0.000205542 0.000970803 0.00720667)
(0.00042169 0.00123022 0.00539105)
(0.000434863 0.0012311 0.00608555)
(0.000841208 0.00057327 0.00596216)
(0.0010384 0.000450662 0.00585868)
(0.000212061 -0.000321633 0.0060663)
(-6.95922e-05 0.00137215 0.00653777)
(0.000104605 0.000961168 0.00653423)
(-0.000360499 0.000651381 0.00673338)
(-3.51003e-05 0.000590126 0.00433158)
(0.000133054 0.000515978 0.005491)
(0.00012156 0.00055661 0.00590259)
(-0.000294286 0.000331111 0.00611887)
(-4.63007e-05 -0.000452836 0.00507965)
(0.000134888 0.000543982 0.00590196)
(0.000648947 0.000389222 0.0062007)
(-0.000588937 0.00039329 0.00680456)
(0.000239459 0.000872261 0.00495525)
(0.000320366 0.000599707 0.00657141)
(0.000225397 0.000163358 0.00687073)
(0.000289508 0.000973491 0.00660499)
(0.000360218 0.0012724 0.0061841)
(-0.00125053 0.0011937 0.00684458)
(-0.00112869 0.000428588 0.00574195)
(-0.00116267 0.000338535 0.00575939)
(0.000177839 0.000958017 0.00434664)
(-0.000281887 0.000210985 0.00568954)
(-0.000709607 0.000295963 0.00516589)
(0.000264536 0.000363601 0.00493305)
(0.0012055 0.00079738 0.00717927)
(-0.000632726 0.000344312 0.00634465)
(-0.000727511 -7.159e-05 0.00598362)
(-0.000381059 -0.000123533 0.00575185)
(2.666e-05 0.000252334 0.00428499)
(-0.000584039 0.000203262 0.00707266)
(-0.000848708 0.000355392 0.00669967)
(-0.00119926 0.00134565 0.00547842)
(-0.000674387 0.000756692 0.00442288)
(-0.000120225 0.000321481 0.00635959)
(-0.000289798 0.000797341 0.00626484)
(-0.000522585 0.00122769 0.0057629)
(-0.000208878 0.000744383 0.00442096)
(-0.000324392 3.17788e-05 0.00551608)
(-0.000237033 5.34298e-05 0.00514869)
(-4.01486e-06 -5.94591e-05 0.00429155)
(0.000231966 0.000192724 0.00328797)
(-0.000504009 0.000263915 0.00619987)
(-0.000729063 0.000301597 0.00598301)
(-0.000330644 0.000335176 0.00433134)
(-0.000325401 0.000423666 0.00338636)
(-0.000595699 0.000636695 0.00626445)
(-0.000916386 0.00137025 0.00595753)
(-0.00085428 0.000923195 0.00505452)
(-0.000491842 -0.000333631 0.0034302)
(-2.35965e-05 0.000319452 0.00634172)
(-0.000133929 0.00122519 0.00603964)
(0.000212464 0.000929586 0.00509701)
(-0.000119682 0.00031339 0.00376703)
(-0.000753363 -0.00092632 0.00475114)
(-0.000643304 -0.000595946 0.00496264)
(0.00300538 0.0017005 0.00260825)
(0.000952743 0.000599193 0.00281296)
(-0.000330501 1.76895e-05 0.00587242)
(-0.000454911 -5.85606e-05 0.00484101)
(-0.00121448 0.00144441 0.00349264)
(0.000169258 0.000868104 0.00295797)
(-0.000401113 0.000700165 0.00620122)
(-0.000152904 0.00128688 0.00546343)
(-0.000165338 0.00110346 0.00465694)
(0.000386482 0.000280182 0.00329165)
(8.28155e-05 0.000368877 0.00649977)
(0.000690951 0.000349202 0.00552601)
(0.000629503 0.000403058 0.00499396)
(0.00012578 0.000541034 0.0035663)
(0 0 0)
(0 0 0)
(0 0 0)
(0 0 0)
(0 0 0)
(0 0 0)
(0 0 0)
(0 0 0)
(0 0 0)
(0 0 0)
(0 0 0)
(0.000637784 0.0016787 0.00316444)
(0 0 0)
(0 0 0)
(0 0 0)
(0 0 0)
(0 0 0)
(0 0 0)
(0 0 0)
(0 0 0)
(0 0 0)
(0 0 0)
(0 0 0)
(0 0 0)
(0 0 0)
(0 0 0)
(0 0 0)
(0 0 0)
(0 0 0)
(0 0 0)
(0 0 0)
(0 0 0)
(0 0 0)
(0 0 0)
(0 0 0)
(0 0 0)
(0 0 0)
(0 0 0)
(0 0 0)
(0 0 0)
(0 0 0)
(0 0 0)
(0 0 0)
(0 0 0)
(0 0 0)
(0 0 0)
(0 0 0)
(0 0 0)
(0 0 0)
(0 0 0)
(0 0 0)
(0 0 0)
(0 0 0)
(0 0 0)
(0 0 0)
(0 0 0)
(0 0 0)
(0 0 0)
(0 0 0)
(0 0 0)
(0 0 0)
(0 0 0)
(0 0 0)
(0 0 0)
(0 0 0)
(0 0 0)
(0 0 0)
(0 0 0)
(0 0 0)
(0 0 0)
(0 0 0)
(0 0 0)
(0 0 0)
(0 0 0)
(0 0 0)
(0 0 0)
(0 0 0)
(0 0 0)
(0 0 0)
(0 0 0)
(0 0 0)
(0 0 0)
(0 0 0)
(0 0 0)
(0 0 0)
(0 0 0)
(0 0 0)
(0 0 0)
(0 0 0)
(0 0 0)
(0 0 0)
(0 0 0)
(0 0 0)
(0 0 0)
(0 0 0)
(0 0 0)
(0 0 0)
(0 0 0)
(0 0 0)
(0 0 0)
(0 0 0)
(0 0 0)
(0 0 0)
(0 0 0)
(0 0 0)
(0 0 0)
(0 0 0)
(0 0 0)
(0 0 0)
(0 0 0)
(0 0 0)
(0 0 0)
(0 0 0)
(0 0 0)
(0 0 0)
(0 0 0)
(0 0 0)
(0 0 0)
(0 0 0)
(0 0 0)
(0 0 0)
(0 0 0)
(0 0 0)
(0 0 0)
(0 0 0)
(0 0 0)
(0 0 0)
(0 0 0)
(0 0 0)
(0 0 0)
(0 0 0)
(0 0 0)
(0 0 0)
(0 0 0)
(0 0 0)
(0 0 0)
(0 0 0)
(0 0 0)
(0 0 0)
(0 0 0)
(0 0 0)
(0 0 0)
(0 0 0)
(0 0 0)
(0 0 0)
(0 0 0)
(0 0 0)
(0 0 0)
(0 0 0)
(0 0 0)
(0 0 0)
(0 0 0)
(0 0 0)
(0 0 0)
(0 0 0)
(0 0 0)
(0 0 0)
(0 0 0)
(0 0 0)
(0 0 0)
(0 0 0)
(0 0 0)
(0 0 0)
(0 0 0)
(0 0 0)
(0 0 0)
(0 0 0)
(0 0 0)
(0 0 0)
(0 0 0)
(0 0 0)
(0 0 0)
(0 0 0)
(0 0 0)
(0 0 0)
(0 0 0)
(0 0 0)
(0 0 0)
(0 0 0)
(0 0 0)
(0 0 0)
(0 0 0)
(0 0 0)
(0 0 0)
(0 0 0)
(0 0 0)
(0 0 0)
(0 0 0)
(0 0 0)
(0 0 0)
(0 0 0)
(0 0 0)
(0 0 0)
(0 0 0)
(0 0 0)
(0 0 0)
(0 0 0)
(0 0 0)
(0 0 0)
(0 0 0)
(0 0 0)
(0 0 0)
(0 0 0)
(0 0 0)
(0 0 0)
(0 0 0)
(0 0 0)
(0 0 0)
(0 0 0)
(0 0 0)
(0 0 0)
(0 0 0)
(0 0 0)
(0 0 0)
(0 0 0)
(0 0 0)
(0 0 0)
(0 0 0)
(0 0 0)
(0 0 0)
(0 0 0)
(0 0 0)
(0 0 0)
(0 0 0)
(0 0 0)
(0 0 0)
(0 0 0)
(0 0 0)
(0 0 0)
(0 0 0)
(0 0 0)
(0 0 0)
(0 0 0)
(0 0 0)
(0 0 0)
(0 0 0)
(0 0 0)
(0 0 0)
(0 0 0)
(0 0 0)
(0 0 0)
(0 0 0)
(0 0 0)
(0 0 0)
(0 0 0)
(0 0 0)
(0 0 0)
(0 0 0)
(0 0 0)
(0 0 0)
(0 0 0)
(0 0 0)
(0 0 0)
(0 0 0)
(0 0 0)
(0 0 0)
(0 0 0)
(0 0 0)
(0 0 0)
(0 0 0)
(0 0 0)
(0 0 0)
(0 0 0)
(0 0 0)
(0 0 0)
(0 0 0)
(0 0 0)
(0 0 0)
(0 0 0)
(0 0 0)
(0 0 0)
(0 0 0)
)
;

boundaryField
{
    inlet
    {
        type            zeroGradient;
    }
    outlet
    {
        type            zeroGradient;
    }
    wall
    {
        type            zeroGradient;
    }
    procBoundary1to0
    {
        type            processor;
        value           nonuniform List<vector> 
192
(
(-0.000289684 -0.000318726 0.00014598)
(-0.000209634 6.58601e-05 0.000237388)
(-7.67008e-05 0.000145089 1.68639e-05)
(3.30287e-05 0.00062107 -0.000350009)
(-0.000517823 -0.000963472 0.00640486)
(3.28365e-05 0.000403716 0.00622176)
(0.000748086 -0.000802503 0.00614647)
(0.000603555 -0.00107717 0.00636058)
(0.000597475 0.000206477 0.0057025)
(0.000803967 2.33528e-05 0.0066321)
(0.000943682 -0.000349205 0.00772297)
(0.000216848 0.000396363 0.00651267)
(0.000265311 -0.000755116 0.00710041)
(0.000246576 -0.000222407 0.00603722)
(0.000505124 -0.000204635 0.00650798)
(0.000168788 -2.50716e-06 0.00651892)
(0.000489937 1.92977e-05 0.00610551)
(0.000407464 -1.39879e-05 0.00586252)
(0.000139437 -0.000148964 0.00594699)
(-0.000118227 -0.000113935 0.0062627)
(0.000558406 -8.07617e-05 0.00584626)
(0.000113841 -5.26051e-05 0.0061386)
(-4.78802e-05 -0.00012561 0.0060566)
(9.23702e-06 -0.000115057 0.006173)
(0.000255977 -0.00050421 0.00548427)
(0.00318245 -0.0003615 0.00419255)
(-0.000269535 -0.000282593 0.00582613)
(-0.000754656 -0.000428665 0.00589183)
(0 0 0)
(0 0 0)
(0 0 0)
(0 0 0)
(0 0 0)
(0 0 0)
(0 0 0)
(0 0 0)
(0 0 0)
(0 0 0)
(0 0 0)
(0 0 0)
(0 0 0)
(0 0 0)
(0 0 0)
(0 0 0)
(0 0 0)
(0 0 0)
(0 0 0)
(0 0 0)
(0 0 0)
(0 0 0)
(0 0 0)
(0 0 0)
(0 0 0)
(0 0 0)
(0 0 0)
(0 0 0)
(0 0 0)
(0 0 0)
(0 0 0)
(0 0 0)
(0 0 0)
(0 0 0)
(0 0 0)
(0 0 0)
(0 0 0)
(0 0 0)
(0 0 0)
(0 0 0)
(0 0 0)
(0 0 0)
(0 0 0)
(0 0 0)
(0 0 0)
(0 0 0)
(0 0 0)
(0 0 0)
(0 0 0)
(0 0 0)
(0 0 0)
(0 0 0)
(0 0 0)
(0 0 0)
(0 0 0)
(0 0 0)
(0 0 0)
(0 0 0)
(0 0 0)
(0 0 0)
(0 0 0)
(0 0 0)
(0 0 0)
(0 0 0)
(0 0 0)
(0 0 0)
(0 0 0)
(0 0 0)
(-0.000200731 5.81013e-05 -6.31764e-06)
(0.000475735 0.000213677 0.000280355)
(8.4181e-05 -0.00059189 -0.000465405)
(0.000237756 -0.000144504 -9.87902e-05)
(-0.000238938 5.02079e-05 0.00758024)
(0.000270673 0.00112103 0.00670358)
(0.000208903 -0.000566563 0.00520609)
(0.000605708 -8.00743e-05 0.0052705)
(0.00151813 7.24126e-05 0.00657579)
(-3.90634e-05 0.000689934 0.00687854)
(-0.000143918 5.0793e-05 0.00636811)
(-0.00058676 0.000176287 0.00588999)
(-0.000139408 8.26138e-05 0.00461749)
(-0.000503461 0.000175946 0.00493748)
(-0.000307334 0.000384997 0.00621426)
(-0.000393271 0.000248611 0.00592722)
(-0.000191626 0.000550488 0.00433234)
(0.000425572 0.000386656 0.00536953)
(-0.0001102 0.000425767 0.00581869)
(0.000302052 0.000493184 0.00561416)
(-3.59776e-05 0.00030002 0.00366825)
(0.000350494 -0.000106007 0.00454682)
(0.000714242 -0.00030457 0.00527269)
(0.000577376 3.8849e-06 0.00556632)
(0.000257624 -0.000246495 0.00396606)
(0.00087855 -0.000666783 0.00477956)
(0.000441954 -0.000513497 0.00519401)
(0.000521658 -0.000643348 0.00526915)
(0 0 0)
(0 0 0)
(0 0 0)
(0 0 0)
(0 0 0)
(0 0 0)
(0 0 0)
(0 0 0)
(0 0 0)
(0 0 0)
(0 0 0)
(0 0 0)
(0 0 0)
(0 0 0)
(0 0 0)
(0 0 0)
(0 0 0)
(0 0 0)
(0 0 0)
(0 0 0)
(0 0 0)
(0 0 0)
(0 0 0)
(0 0 0)
(0 0 0)
(0 0 0)
(0 0 0)
(0 0 0)
(0 0 0)
(0 0 0)
(0 0 0)
(0 0 0)
(0 0 0)
(0 0 0)
(0 0 0)
(0 0 0)
(0 0 0)
(0 0 0)
(0 0 0)
(0 0 0)
(0 0 0)
(0 0 0)
(0 0 0)
(0 0 0)
(0 0 0)
(0 0 0)
(0 0 0)
(0 0 0)
(0 0 0)
(0 0 0)
(0 0 0)
(0 0 0)
(0 0 0)
(0 0 0)
(0 0 0)
(0 0 0)
(0 0 0)
(0 0 0)
(0 0 0)
(0 0 0)
(0 0 0)
(0 0 0)
(0 0 0)
(0 0 0)
(0 0 0)
(0 0 0)
(0 0 0)
(0 0 0)
)
;
    }
    procBoundary1to3
    {
        type            processor;
        value           nonuniform List<vector> 
192
(
(0.000325715 0.00137202 5.67022e-05)
(0.000109601 0.000324705 -0.000143944)
(-0.00039299 0.00169095 5.61002e-06)
(0.00020292 0.00141559 -0.000930597)
(0.000119148 -0.000253533 0.00643115)
(0.000827363 0.000255978 0.00696104)
(0.00255246 0.000189646 0.00636621)
(0.000848969 -0.000628088 0.0058357)
(7.61978e-05 0.000477676 0.00655615)
(-0.000176003 -0.000323857 0.00678794)
(0.000845427 0.000806484 0.00682571)
(0.000545485 0.000736796 0.00663632)
(0.000154073 7.93772e-05 0.00636819)
(-0.000334902 -0.000507363 0.00766026)
(-0.000587606 0.000151121 0.00690414)
(-0.000199422 0.00031739 0.00645508)
(-1.30691e-06 -0.000132325 0.00636372)
(5.23162e-05 -3.76279e-05 0.00640994)
(0.000124446 0.000167264 0.00646036)
(3.24358e-05 0.000164533 0.00650936)
(-0.000180045 -1.91039e-05 0.00626702)
(-2.70548e-05 -0.000181526 0.00639942)
(-9.86888e-05 -0.000163172 0.00655148)
(-2.40017e-05 -0.000153731 0.0067299)
(-0.000211831 -0.000215852 0.00630025)
(-0.000174079 -0.000237786 0.006347)
(-0.000184367 -8.11752e-05 0.00640373)
(-7.80921e-05 -0.000154053 0.00666723)
(0 0 0)
(0 0 0)
(0 0 0)
(0 0 0)
(0 0 0)
(0 0 0)
(0 0 0)
(0 0 0)
(0 0 0)
(0 0 0)
(0 0 0)
(0 0 0)
(0 0 0)
(0 0 0)
(0 0 0)
(0 0 0)
(0 0 0)
(0 0 0)
(0 0 0)
(0 0 0)
(0 0 0)
(0 0 0)
(0 0 0)
(0 0 0)
(0 0 0)
(0 0 0)
(0 0 0)
(0 0 0)
(0 0 0)
(0 0 0)
(0 0 0)
(0 0 0)
(0 0 0)
(0 0 0)
(0 0 0)
(0 0 0)
(0 0 0)
(0 0 0)
(0 0 0)
(0 0 0)
(0 0 0)
(0 0 0)
(0 0 0)
(0 0 0)
(0 0 0)
(0 0 0)
(0 0 0)
(0 0 0)
(0 0 0)
(0 0 0)
(0 0 0)
(0 0 0)
(0 0 0)
(0 0 0)
(0 0 0)
(0 0 0)
(0 0 0)
(0 0 0)
(0 0 0)
(0 0 0)
(0 0 0)
(0 0 0)
(0 0 0)
(0 0 0)
(0 0 0)
(0 0 0)
(0 0 0)
(0 0 0)
(0.000140356 -0.000101321 0.000156416)
(0.000558955 -0.000502772 6.30564e-05)
(-0.000255437 0.000285007 0.000565579)
(-0.000396023 0.000131767 -0.000329014)
(-7.03502e-05 8.50426e-05 0.00587683)
(-0.000153519 5.51813e-05 0.00591597)
(0.00142377 0.00358337 0.00717077)
(0.000640773 0.00150482 0.00563254)
(-0.000285929 0.00145189 0.00583043)
(-0.000476402 0.000885587 0.00631201)
(-0.000848034 0.000851191 0.0067136)
(-0.000548857 0.00140993 0.00530021)
(-0.000323647 0.000823398 0.00635969)
(-0.00031474 0.000572113 0.00621662)
(-0.000711751 0.000598577 0.00605553)
(-7.9061e-05 8.56198e-05 0.00495205)
(-0.000175187 0.000185434 0.00640281)
(-0.000559669 0.000543619 0.0062035)
(-0.000627611 0.000483272 0.00565435)
(0.000147117 -0.000310351 0.0053074)
(-0.000259208 -9.11391e-05 0.00673424)
(-0.000563904 0.00101713 0.00615396)
(-0.000736755 0.000926745 0.00537204)
(-0.000279017 0.000301727 0.00456431)
(-0.000547241 -0.000274385 0.00682249)
(0.00106209 0.000920142 0.00550348)
(0.00108213 0.000531643 0.00466304)
(-0.000285073 0.00100394 0.00454437)
(0 0 0)
(0 0 0)
(0 0 0)
(0 0 0)
(0 0 0)
(0 0 0)
(0 0 0)
(0 0 0)
(0 0 0)
(0 0 0)
(0 0 0)
(0 0 0)
(0 0 0)
(0 0 0)
(0 0 0)
(0 0 0)
(0 0 0)
(0 0 0)
(0 0 0)
(0 0 0)
(0 0 0)
(0 0 0)
(0 0 0)
(0 0 0)
(0 0 0)
(0 0 0)
(0 0 0)
(0 0 0)
(0 0 0)
(0 0 0)
(0 0 0)
(0 0 0)
(0 0 0)
(0 0 0)
(0 0 0)
(0 0 0)
(0 0 0)
(0 0 0)
(0 0 0)
(0 0 0)
(0 0 0)
(0 0 0)
(0 0 0)
(0 0 0)
(0 0 0)
(0 0 0)
(0 0 0)
(0 0 0)
(0 0 0)
(0 0 0)
(0 0 0)
(0 0 0)
(0 0 0)
(0 0 0)
(0 0 0)
(0 0 0)
(0 0 0)
(0 0 0)
(0 0 0)
(0 0 0)
(0 0 0)
(0 0 0)
(0 0 0)
(0 0 0)
(0 0 0)
(0 0 0)
(0 0 0)
(0 0 0)
)
;
    }
}


// ************************************************************************* //
