/*--------------------------------*- C++ -*----------------------------------*\
| =========                 |                                                 |
| \\      /  F ield         | OpenFOAM: The Open Source CFD Toolbox           |
|  \\    /   O peration     | Version:  2506                                  |
|   \\  /    A nd           | Website:  www.openfoam.com                      |
|    \\/     M anipulation  |                                                 |
\*---------------------------------------------------------------------------*/
FoamFile
{
    version     2.0;
    format      ascii;
    arch        "LSB;label=32;scalar=64";
    class       volScalarField;
    location    "0.07";
    object      voidfraction;
}
// * * * * * * * * * * * * * * * * * * * * * * * * * * * * * * * * * * * * * //

dimensions      [0 0 0 0 0 0 0];

internalField   nonuniform List<scalar> 
1152
(
0.502297
0.52073
0.439097
0.44173
0.52073
0.428563
0.483863
0.43383
0.454897
0.470697
0.399596
0.491764
0.44963
0.399596
0.391696
0.378529
0.325862
0.444363
0.404863
0.396963
0.389063
0.41803
0.399596
0.412763
0.373263
0.367996
0.42593
0.407496
0.375896
0.360096
0.428563
0.439097
0.407496
0.44963
0.40223
0.412763
0.396963
0.446997
0.415396
0.375896
0.375896
0.404863
0.391696
0.41803
0.446997
0.336396
0.431196
0.412763
0.349563
0.40223
0.373263
0.404863
0.40223
0.420663
0.412763
0.415396
0.389063
0.399596
0.367996
0.383796
0.404863
0.446997
0.396963
0.341663
0.378529
0.378529
0.41013
0.396963
0.307429
0.38643
0.404863
0.40223
0.428563
0.42593
0.423296
0.415396
0.346929
0.468063
0.383796
0.475963
0.462797
0.399596
0.38643
0.389063
0.446997
0.354829
0.407496
0.412763
0.399596
0.444363
0.360096
0.373263
0.367996
0.40223
0.373263
0.460163
0.673465
0.628698
0.583931
0.710332
0.499664
0.544431
0.554964
0.626064
0.549697
0.599731
0.47333
0.597097
0.45753
0.562864
0.518097
0.689265
1
1
1
1
1
1
1
1
1
1
0.997367
1
1
0.997367
0.997367
1
1
1
1
1
1
1
1
1
1
1
1
1
1
1
1
1
1
1
1
1
1
1
1
1
1
1
1
1
1
1
1
1
1
1
1
1
1
1
1
1
1
1
1
1
1
1
1
1
1
1
1
1
1
1
1
1
1
1
1
1
1
1
1
1
1
1
1
1
1
1
1
1
1
1
1
1
1
1
1
1
1
1
1
1
1
1
1
1
1
1
1
1
1
1
1
1
1
1
1
1
1
1
1
1
1
1
1
1
1
1
1
1
1
1
1
1
1
1
1
1
1
1
1
1
1
1
1
1
1
1
1
1
1
1
1
1
1
1
1
1
1
1
1
1
1
1
1
1
1
1
1
1
1
1
1
1
1
1
1
1
1
1
1
1
1
1
1
1
1
1
1
1
1
1
1
1
1
1
1
1
1
1
1
1
1
1
1
1
1
1
1
1
1
1
1
1
1
1
1
1
1
1
1
1
1
1
1
1
1
1
1
1
1
1
1
1
1
1
1
1
1
1
1
1
1
1
1
1
1
1
1
1
1
1
1
1
1
1
1
1
1
1
1
1
1
1
1
1
1
1
1
1
1
1
1
1
0.45773
0.42638
0.502109
0.414576
0.376891
0.420679
0.444556
0.433788
0.471586
0.46106
0.451562
0.474121
0.511357
0.4505
0.460792
0.408562
0.441623
0.409229
0.486889
0.438857
0.390738
0.456622
0.390961
0.393565
0.434
0.418325
0.437713
0.539402
0.391075
0.393655
0.367715
0.404181
0.438044
0.430192
0.421663
0.428065
0.461951
0.439708
0.37878
0.399753
0.391992
0.446815
0.448792
0.405212
0.368523
0.380121
0.419068
0.404181
0.434465
0.416852
0.419489
0.492813
0.38876
0.367821
0.393397
0.393565
0.420735
0.444441
0.379545
0.401586
0.3159
0.382827
0.386972
0.426086
0.432675
0.409229
0.473844
0.419972
0.422388
0.367821
0.437248
0.381189
0.460531
0.437318
0.429403
0.300037
0.431169
0.436965
0.345248
0.386657
0.439834
0.464495
0.397747
0.430763
0.414476
0.378393
0.432375
0.446164
0.420735
0.363718
0.365696
0.408839
0.466251
0.418017
0.40302
0.3998
0.647435
0.6665
0.658651
0.509
0.693391
0.680739
0.585853
0.585396
0.69268
0.772078
0.772869
0.593804
0.714332
0.612914
0.839522
0.728377
1
1
1
1
1
1
1
1
1
1
1
1
1
1
1
1
1
1
1
1
1
1
1
1
1
1
1
1
1
1
1
1
1
1
1
1
1
1
1
1
1
1
1
1
1
1
1
1
1
1
1
1
1
1
1
1
1
1
1
1
1
1
1
1
1
1
1
1
1
1
1
1
1
1
1
1
1
1
1
1
1
1
1
1
1
1
1
1
1
1
1
1
1
1
1
1
1
1
1
1
1
1
1
1
1
1
1
1
1
1
1
1
1
1
1
1
1
1
1
1
1
1
1
1
1
1
1
1
1
1
1
1
1
1
1
1
1
1
1
1
1
1
1
1
1
1
1
1
1
1
1
1
1
1
1
1
1
1
1
1
1
1
1
1
1
1
1
1
1
1
1
1
1
1
1
1
1
1
1
1
1
1
1
1
1
1
1
1
1
1
1
1
1
1
1
1
1
1
1
1
1
1
1
1
1
1
1
1
1
1
1
1
1
1
1
1
1
1
1
1
1
1
1
1
1
1
1
1
1
1
1
1
1
1
1
1
1
1
1
1
1
1
1
1
1
1
1
1
1
1
1
1
1
1
1
1
1
1
1
1
1
1
1
1
1
1
1
1
1
1
1
1
0.447991
0.426973
0.461634
0.436159
0.486469
0.429403
0.439684
0.489063
0.390948
0.446815
0.475651
0.483552
0.486298
0.38536
0.523272
0.51142
0.44361
0.477748
0.387377
0.519791
0.467211
0.365696
0.388525
0.462973
0.40719
0.418325
0.374164
0.392077
0.423652
0.398625
0.400629
0.463099
0.395419
0.372572
0.350248
0.411879
0.351667
0.407244
0.432375
0.406444
0.455914
0.442066
0.414336
0.428286
0.446204
0.453899
0.434257
0.359299
0.386657
0.408839
0.390471
0.436159
0.409439
0.418323
0.425067
0.423838
0.369293
0.401705
0.414336
0.456872
0.423652
0.316821
0.469863
0.427306
0.421705
0.321797
0.409035
0.468532
0.419068
0.346306
0.408014
0.397747
0.380121
0.423073
0.405879
0.390172
0.451216
0.464953
0.42041
0.421937
0.44361
0.361691
0.399753
0.441554
0.521774
0.443252
0.456737
0.432534
0.401776
0.385086
0.412222
0.451155
0.350982
0.378727
0.359088
0.361088
0.631994
0.590177
0.591584
0.646588
0.682253
0.703622
0.607779
0.560812
0.80781
0.745962
0.731483
0.494986
0.634144
0.754586
0.667675
0.659963
1
1
1
1
1
1
1
1
1
1
1
0.988566
1
1
1
1
1
1
1
1
1
1
1
1
1
1
1
1
1
1
1
1
1
1
1
1
1
1
1
1
1
1
1
1
1
1
1
1
1
1
1
1
1
1
1
1
1
1
1
1
1
1
1
1
1
1
1
1
1
1
1
1
1
1
1
1
1
1
1
1
1
1
1
1
1
1
1
1
1
1
1
1
1
1
1
1
1
1
1
1
1
1
1
1
1
1
1
1
1
1
1
1
1
1
1
1
1
1
1
1
1
1
1
1
1
1
1
1
1
1
1
1
1
1
1
1
1
1
1
1
1
1
1
1
1
1
1
1
1
1
1
1
1
1
1
1
1
1
1
1
1
1
1
1
1
1
1
1
1
1
1
1
1
1
1
1
1
1
1
1
1
1
1
1
1
1
1
1
1
1
1
1
1
1
1
1
1
1
1
1
1
1
1
1
1
1
1
1
1
1
1
1
1
1
1
1
1
1
1
1
1
1
1
1
1
1
1
1
1
1
1
1
1
1
1
1
1
1
1
1
1
1
1
1
1
1
1
1
1
1
1
1
1
1
1
1
1
1
1
1
1
1
1
1
1
1
1
1
1
1
1
1
)
;

boundaryField
{
    inlet
    {
        type            fixedValue;
        value           uniform 1;
    }
    outlet
    {
        type            fixedValue;
        value           uniform 1;
    }
    wall
    {
        type            zeroGradient;
    }
    procBoundary1to0
    {
        type            processor;
        value           nonuniform List<scalar> 
192
(
0.423296
0.444363
0.43383
0.53653
0.412763
0.41803
0.407496
0.452263
0.367996
0.375896
0.452263
0.446997
0.494397
0.38643
0.389063
0.323229
0.41013
0.502297
0.373263
0.354829
0.39433
0.378529
0.454897
0.478597
0.678731
0.612898
0.568131
0.636598
1
1
1
1
1
1
1
1
1
1
1
1
1
1
1
1
1
1
1
1
1
1
1
1
1
1
1
1
1
1
1
1
1
1
1
1
1
1
1
1
1
1
1
1
1
1
1
1
1
1
1
1
1
1
1
1
1
1
1
1
1
1
1
1
1
1
1
1
0.420147
0.509426
0.418524
0.368523
0.40404
0.426344
0.405258
0.413628
0.454151
0.404585
0.391992
0.403605
0.380775
0.477776
0.403047
0.436181
0.423727
0.331395
0.334508
0.381052
0.427306
0.410519
0.403047
0.343464
0.683229
0.772516
0.745742
0.736884
1
1
1
1
1
1
1
1
1
1
1
1
1
1
1
1
1
1
1
1
1
1
1
1
1
1
1
1
1
1
1
1
1
1
1
1
1
1
1
1
1
1
1
1
1
1
1
1
1
1
1
1
1
1
1
1
1
1
1
1
1
1
1
1
1
1
1
1
)
;
    }
    procBoundary1to3
    {
        type            processor;
        value           nonuniform List<scalar> 
192
(
0.470697
0.483863
0.549697
0.41803
0.44963
0.460163
0.412763
0.341663
0.373263
0.352196
0.436463
0.483863
0.404863
0.389063
0.381163
0.44963
0.486497
0.260029
0.41803
0.378529
0.41803
0.483863
0.39433
0.346929
0.649764
0.578664
0.649764
0.786699
1
1
1
1
1
1
1
1
1
1
1
1
1
1
1
1
1
1
1
1
1
1
1
1
1
1
1
1
1
1
1
1
1
1
1
1
1
1
1
1
1
1
1
1
1
1
1
1
1
1
1
1
1
1
1
1
1
1
1
1
1
1
1
1
1
1
1
1
0.41864
0.476008
0.412498
0.40404
0.383558
0.45611
0.509426
0.409409
0.358499
0.378727
0.345241
0.441623
0.386064
0.387571
0.434257
0.366457
0.361005
0.411891
0.37887
0.439834
0.458734
0.449477
0.45206
0.445203
0.776978
0.761219
0.677566
0.704705
1
1
1
1
1
1
1
1
1
1
1
1
1
1
1
1
1
1
1
1
1
1
1
1
1
1
1
1
1
1
1
1
1
1
1
1
1
1
1
1
1
1
1
1
1
1
1
1
1
1
1
1
1
1
1
1
1
1
1
1
1
1
1
1
1
1
1
1
)
;
    }
}


// ************************************************************************* //
