/*--------------------------------*- C++ -*----------------------------------*\
| =========                 |                                                 |
| \\      /  F ield         | OpenFOAM: The Open Source CFD Toolbox           |
|  \\    /   O peration     | Version:  2506                                  |
|   \\  /    A nd           | Website:  www.openfoam.com                      |
|    \\/     M anipulation  |                                                 |
\*---------------------------------------------------------------------------*/
FoamFile
{
    version     2.0;
    format      ascii;
    arch        "LSB;label=32;scalar=64";
    class       surfaceScalarField;
    location    "0.03";
    object      phi;
}
// * * * * * * * * * * * * * * * * * * * * * * * * * * * * * * * * * * * * * //

dimensions      [0 3 -1 0 0 0 0];

oriented        oriented;

internalField   nonuniform List<scalar> 
3120
(
2.14523e-09
6.99347e-10
1.34844e-08
2.43416e-09
3.4197e-09
2.75471e-10
-4.96751e-10
2.53253e-08
-7.39535e-10
-4.11795e-09
-3.99392e-09
3.17405e-08
-1.0905e-09
3.8202e-10
5.28368e-09
9.42875e-10
1.22364e-09
-8.57597e-10
2.00972e-08
2.22471e-09
-3.53949e-09
-2.50226e-10
2.65518e-08
-3.87767e-10
4.058e-09
1.11097e-08
2.50376e-09
1.62324e-08
2.09407e-09
1.14838e-09
1.83453e-08
-2.29291e-10
6.29481e-10
9.93282e-10
2.22467e-08
-2.60393e-09
-1.24837e-09
3.09138e-08
-1.03991e-10
1.90924e-08
3.28374e-09
1.92029e-08
1.03232e-09
-2.09933e-09
3.63036e-08
-1.18444e-09
2.28041e-08
1.67344e-08
-1.22083e-09
-1.61879e-09
1.34396e-08
-4.40176e-11
2.92849e-09
-1.1874e-09
-2.30673e-09
2.40799e-08
3.51873e-09
1.59844e-09
3.04169e-09
2.30857e-08
2.8272e-09
9.75964e-10
3.9605e-09
2.98815e-09
-1.29456e-09
-8.17241e-10
1.91035e-08
1.48666e-09
2.35957e-09
3.24137e-10
2.02667e-08
-7.61106e-11
-3.46927e-09
2.00563e-08
7.02405e-10
2.00741e-08
5.72244e-10
4.61616e-10
1.61764e-08
3.1777e-10
-4.84358e-10
-2.72852e-09
2.63559e-08
4.13335e-09
-2.50869e-09
2.53356e-08
-1.06041e-09
2.66428e-08
-1.9025e-09
1.83584e-08
9.33451e-10
7.27329e-10
2.89113e-08
9.90884e-10
1.63455e-08
1.09173e-08
-9.12232e-10
1.23467e-09
1.28198e-08
6.91762e-10
-3.94453e-10
-2.60888e-09
-1.21164e-09
2.86371e-08
-1.64894e-09
2.24856e-09
5.56962e-09
9.52247e-09
3.13619e-09
4.74427e-09
3.37194e-08
-1.88995e-08
-2.20832e-09
-2.40351e-09
2.69541e-08
-2.0041e-09
2.90021e-09
-1.86489e-11
1.39652e-08
1.50214e-09
-2.45515e-09
2.94792e-08
5.38645e-09
2.21228e-08
-1.99214e-09
-8.40069e-10
1.4931e-08
1.67407e-09
2.4581e-11
4.56412e-09
1.97565e-08
8.67946e-09
7.62188e-10
1.34634e-08
2.30096e-09
4.25044e-08
2.80108e-09
1.10195e-08
2.61946e-09
-1.7705e-09
4.04127e-08
1.11675e-09
1.57628e-08
3.3073e-08
-2.33368e-10
3.19612e-09
1.57043e-08
-2.9181e-09
-2.92918e-09
2.98103e-10
3.40019e-09
2.71126e-08
-2.40721e-09
-1.61341e-09
-9.78446e-11
1.09905e-08
5.41273e-10
3.18916e-09
2.95438e-08
5.49146e-10
5.63992e-10
8.69153e-10
3.14762e-08
-2.75907e-09
-2.15512e-09
-5.02526e-10
2.0587e-08
9.74089e-10
6.0595e-10
2.56462e-08
5.46417e-09
1.88909e-08
-5.47361e-10
1.04592e-09
1.45286e-08
7.73018e-10
-1.18839e-09
-4.10783e-09
2.40028e-08
2.35978e-09
-1.10363e-09
1.16248e-08
6.46192e-10
4.85672e-08
-8.56562e-09
2.83401e-08
-3.05645e-09
-1.06876e-10
2.66271e-08
-2.17116e-09
1.64172e-08
3.83277e-08
9.01626e-10
-2.55753e-10
1.36636e-08
2.94033e-09
-1.54545e-09
1.19943e-09
7.24729e-10
2.55782e-08
5.11874e-10
-1.90465e-09
-3.28148e-09
1.92429e-08
-1.86684e-09
-4.27798e-10
2.4558e-08
2.87224e-09
2.22168e-09
4.03904e-09
2.18366e-08
3.12304e-09
-2.53335e-09
1.01184e-09
2.50549e-08
1.47356e-10
-9.88979e-10
2.0673e-08
-4.84733e-09
2.07372e-08
-2.37005e-09
-1.03197e-09
2.23296e-08
-3.59963e-10
-3.07806e-09
-2.69114e-09
2.84138e-08
-1.39581e-09
-2.30388e-11
8.97659e-09
-5.44002e-09
4.78986e-08
-6.71179e-09
3.20677e-08
1.32002e-09
-3.74456e-10
1.66554e-08
-2.04049e-10
1.62672e-08
2.50002e-08
-2.47471e-09
-1.26157e-10
1.53859e-08
1.07638e-09
-1.97904e-10
-1.18198e-09
-8.18946e-10
2.41977e-08
9.06717e-10
-2.31091e-09
-2.4175e-09
2.18176e-08
9.71807e-10
-2.88021e-09
1.91416e-08
2.73912e-09
-3.43863e-09
-1.96328e-09
2.63493e-08
7.63136e-10
-2.66606e-09
-1.08585e-09
2.45493e-08
-1.50627e-09
7.84188e-10
1.63115e-08
1.49659e-09
1.07082e-08
-3.53987e-09
-4.41568e-10
2.31013e-08
1.24641e-09
-1.0713e-09
-1.09346e-09
2.59528e-08
-1.42932e-09
-2.3105e-09
1.24293e-08
-2.29932e-09
4.82403e-08
-3.15638e-09
3.54019e-08
1.64241e-09
-3.57244e-09
1.57294e-08
-3.9093e-10
9.59747e-09
2.48259e-08
-9.26382e-10
-5.16906e-10
1.92855e-08
-1.31071e-09
-1.14562e-09
3.2367e-10
4.65717e-10
2.45261e-08
-2.04421e-09
1.24797e-10
6.96953e-10
2.14833e-08
-1.63796e-10
7.22012e-10
1.89326e-08
-2.03119e-10
-8.03144e-11
-3.33741e-10
2.8833e-08
-2.58661e-09
7.2301e-10
-9.48761e-11
2.43066e-08
8.41954e-10
4.66849e-10
1.64227e-08
-1.7791e-09
1.39682e-08
-5.29272e-10
-1.79195e-09
2.38975e-08
1.19134e-09
9.71418e-10
7.12573e-10
2.36447e-08
-1.52296e-09
-1.55613e-10
1.55464e-08
2.97728e-09
3.86961e-08
9.62577e-10
2.96952e-08
1.96888e-09
8.04655e-10
1.59906e-08
8.91071e-10
1.07216e-08
2.37824e-08
2.90039e-10
-4.46584e-09
2.24573e-08
-2.65081e-09
3.65489e-09
-2.59545e-10
-7.48838e-10
2.4841e-08
9.83415e-10
-9.44245e-10
7.59362e-10
2.17373e-08
-3.28608e-10
1.10793e-09
2.04778e-08
-1.74111e-09
2.14901e-09
-2.35454e-09
2.76689e-08
-3.09609e-09
1.58427e-09
-6.14402e-10
2.47371e-08
2.95018e-10
8.58951e-10
1.76122e-08
4.13162e-10
1.54761e-08
2.51495e-09
-1.70043e-09
2.3888e-08
-3.15939e-09
1.93516e-09
2.76255e-10
2.33338e-08
2.16587e-10
8.85915e-10
1.72378e-08
4.81448e-09
3.19887e-08
4.56926e-09
2.48605e-08
-2.19208e-09
3.54372e-09
1.72372e-08
3.59811e-09
1.20095e-08
2.58185e-08
6.71115e-10
-2.97189e-10
2.32748e-08
-1.29598e-09
1.04669e-10
1.43946e-09
9.04151e-10
2.36838e-08
-5.15269e-10
2.34164e-10
1.67812e-09
2.23078e-08
-1.04341e-09
-3.14559e-10
2.22018e-08
-8.19758e-10
1.35698e-09
1.0391e-09
2.42368e-08
7.39059e-10
2.60073e-09
1.18976e-09
2.32079e-08
1.59279e-10
9.7064e-10
2.07608e-08
-4.01341e-09
2.07301e-08
2.52792e-10
9.20772e-10
2.30612e-08
6.92561e-10
-4.62573e-11
2.24437e-09
2.25784e-08
-3.79267e-09
1.19316e-09
2.07612e-08
-5.41735e-10
2.53317e-08
1.68885e-09
2.30369e-08
-9.15187e-11
-2.37241e-10
2.07528e-08
-6.14612e-09
1.92466e-08
2.42769e-08
3.53794e-10
-2.95888e-10
2.30188e-08
-5.07288e-10
7.05351e-10
5.41695e-10
3.05409e-10
2.30099e-08
1.808e-10
4.21591e-11
5.70539e-10
2.24686e-08
-2.31739e-10
4.1197e-11
2.25692e-08
-3.60384e-10
6.69156e-10
3.26642e-10
2.30637e-08
-1.18363e-10
9.47626e-10
5.03091e-10
2.2732e-08
-2.55931e-11
3.6731e-10
2.19373e-08
-1.09328e-09
2.21439e-08
4.34444e-10
5.46951e-10
2.26991e-08
-2.92397e-10
1.07932e-10
9.15247e-10
2.24929e-08
-1.25047e-09
5.053e-10
2.19817e-08
-8.58462e-11
2.34204e-08
7.59841e-10
2.24688e-08
-2.59242e-10
9.17308e-12
2.18913e-08
-2.00325e-09
2.15297e-08
2.32728e-08
5.23559e-10
2.86639e-10
2.28171e-08
-5.85305e-10
-2.30889e-11
5.12424e-10
2.88752e-10
2.27671e-08
-3.45528e-11
2.14812e-10
2.37951e-10
2.2563e-08
-3.4543e-11
-2.51076e-11
2.26133e-08
-1.99342e-12
4.44793e-10
4.19388e-10
2.27758e-08
-2.8929e-10
4.74766e-10
3.37949e-10
2.26532e-08
8.24063e-11
1.79596e-10
2.23882e-08
-3.27827e-10
2.25014e-08
2.65407e-10
4.47519e-10
2.26385e-08
-2.3269e-10
9.42511e-11
4.5164e-10
2.25505e-08
-3.85105e-10
2.38396e-10
2.24023e-08
-2.08489e-11
2.28432e-08
2.45924e-10
2.24812e-08
-1.06639e-10
-3.03483e-11
2.2329e-08
-6.88195e-10
2.22449e-08
2.28046e-08
2.34207e-10
7.01854e-11
2.26414e-08
-2.2992e-10
1.01387e-10
2.34236e-10
7.48861e-11
2.26324e-08
5.99219e-11
1.29182e-10
4.7729e-11
2.25626e-08
5.79903e-11
-3.87071e-11
2.25824e-08
4.99014e-11
2.13494e-10
1.59539e-10
2.26422e-08
-1.68983e-10
2.04298e-10
1.34097e-10
2.26034e-08
6.3639e-11
5.54072e-11
2.25213e-08
-1.03186e-10
2.25637e-08
1.52858e-10
2.13085e-10
2.25987e-08
-1.66358e-10
8.03557e-11
1.89283e-10
2.2568e-08
-8.86161e-11
1.02481e-10
2.25243e-08
4.63466e-12
2.26613e-08
1.16832e-10
2.252e-08
-9.37379e-11
1.13687e-11
2.24817e-08
-2.05877e-10
2.24668e-08
2.26444e-08
1.59964e-10
4.50968e-11
2.25623e-08
-1.60092e-10
3.43356e-11
1.48463e-10
2.7314e-11
2.25774e-08
3.93198e-11
9.83735e-11
5.2292e-13
2.25577e-08
5.4546e-11
-3.57391e-11
2.25627e-08
5.11953e-11
1.32363e-10
8.31313e-11
2.25902e-08
-1.18342e-10
1.20243e-10
5.77571e-11
2.25852e-08
6.61485e-11
1.67441e-11
2.25593e-08
-4.016e-11
2.25714e-08
1.00427e-10
1.06011e-10
2.2582e-08
-1.06461e-10
6.95993e-11
8.18506e-11
2.25747e-08
4.72818e-12
4.42285e-11
2.25616e-08
1.87022e-12
2.26023e-08
7.17649e-11
2.25477e-08
-6.89962e-11
2.88712e-11
2.25414e-08
-4.14428e-11
2.25384e-08
2.25955e-08
9.44563e-11
1.28706e-11
2.25185e-08
-9.00896e-11
2.66037e-11
8.91688e-11
1.62576e-12
2.25507e-08
3.0444e-11
6.83875e-11
-1.36173e-11
2.25518e-08
4.03965e-11
-2.84531e-11
2.25528e-08
3.98522e-11
7.97115e-11
3.41712e-11
2.25623e-08
-7.30225e-11
7.31866e-11
2.02005e-11
2.25732e-08
5.13609e-11
3.1216e-13
2.25672e-08
-2.22929e-11
2.25685e-08
6.3896e-11
4.68631e-11
2.25706e-08
-6.51534e-11
5.13066e-11
3.27013e-11
2.25748e-08
2.67081e-11
1.51276e-11
2.25712e-08
-3.78343e-12
2.25814e-08
4.83311e-11
2.25587e-08
-4.75975e-11
3.33691e-11
2.25626e-08
7.8605e-12
2.2563e-08
2.25799e-08
5.85579e-11
8.06903e-13
2.24959e-08
-5.45863e-11
1.79016e-11
5.63798e-11
-5.89607e-12
2.25375e-08
2.13325e-11
4.73535e-11
-1.39038e-11
2.2548e-08
2.67656e-11
-2.0567e-11
2.25493e-08
2.7281e-11
5.05763e-11
1.25606e-11
2.25466e-08
-4.66509e-11
4.79174e-11
4.55241e-12
2.25655e-08
3.90196e-11
-4.87552e-12
2.25671e-08
-1.47316e-11
2.25663e-08
4.24183e-11
1.92785e-11
2.25628e-08
-4.13011e-11
3.78141e-11
1.13055e-11
2.25727e-08
2.91602e-11
2.48769e-12
2.25725e-08
-5.63404e-12
2.25741e-08
3.41624e-11
2.25617e-08
-3.28766e-11
2.87972e-11
2.25696e-08
1.96983e-11
2.25705e-08
2.25745e-08
3.71795e-11
-3.60105e-12
2.24838e-08
-3.3918e-11
1.2604e-11
3.66992e-11
-7.16163e-12
2.25307e-08
1.46434e-11
3.27718e-11
-1.11157e-11
2.25459e-08
1.72163e-11
-1.4264e-11
2.25487e-08
1.78245e-11
3.31915e-11
2.87011e-12
2.25374e-08
-3.03361e-11
3.24987e-11
-1.33633e-12
2.25605e-08
2.88335e-11
-5.9796e-12
2.25657e-08
-1.03419e-11
2.25652e-08
2.8875e-11
6.66988e-12
2.25572e-08
-2.70425e-11
2.76197e-11
2.41753e-12
2.25703e-08
2.41555e-11
-1.93105e-12
2.2572e-08
-5.86361e-12
2.25714e-08
2.46503e-11
2.25612e-08
-2.31293e-11
2.34283e-11
2.25712e-08
2.04884e-11
2.25725e-08
2.25727e-08
2.42466e-11
-4.55283e-12
2.2477e-08
-2.16876e-11
8.85924e-12
2.45167e-11
-6.28574e-12
2.25269e-08
9.95202e-12
2.27676e-11
-8.17464e-12
2.25449e-08
1.10779e-11
-9.58476e-12
2.25491e-08
1.13924e-11
2.2308e-11
-9.16034e-13
2.25318e-08
-2.01707e-11
2.25139e-11
-3.12135e-12
2.25574e-08
2.10214e-11
-5.37264e-12
2.25646e-08
-7.30481e-12
2.25649e-08
2.00732e-11
1.30682e-12
2.25534e-08
-1.8304e-11
2.01762e-11
-1.02386e-12
2.25683e-08
1.89761e-11
-3.19109e-12
2.25712e-08
-4.98201e-12
2.25704e-08
1.78209e-11
2.25597e-08
-1.61653e-11
1.79942e-11
2.25709e-08
1.71306e-11
2.25727e-08
2.2572e-08
1.61247e-11
-4.13371e-12
2.24731e-08
-1.42732e-11
6.25014e-12
1.6638e-11
-5.00497e-12
2.25249e-08
6.78985e-12
1.59296e-11
-5.8038e-12
2.25445e-08
7.16795e-12
-6.37159e-12
2.25497e-08
7.23556e-12
1.52724e-11
-2.12553e-12
2.25283e-08
-1.36487e-11
1.57846e-11
-3.25559e-12
2.25554e-08
1.52202e-11
-4.27753e-12
2.25639e-08
-5.12371e-12
2.2565e-08
1.41578e-11
-7.99977e-13
2.25507e-08
-1.26551e-11
1.46983e-11
-2.03924e-12
2.25668e-08
1.43692e-11
-3.10028e-12
2.25705e-08
-3.89607e-12
2.25701e-08
1.29955e-11
2.25581e-08
-1.15235e-11
1.36412e-11
2.25702e-08
1.35464e-11
2.25724e-08
2.25717e-08
1.08801e-11
-3.38424e-12
2.24708e-08
-9.57223e-12
4.40689e-12
1.14279e-11
-3.71895e-12
2.25236e-08
4.61433e-12
1.11776e-11
-4.01624e-12
2.25442e-08
4.66295e-12
-4.18286e-12
2.25502e-08
4.57806e-12
1.05739e-11
-2.23857e-12
2.25261e-08
-9.3753e-12
1.11333e-11
-2.76242e-12
2.25541e-08
1.09715e-11
-3.21081e-12
2.25634e-08
-3.51451e-12
2.25651e-08
1.00646e-11
-1.41969e-12
2.25489e-08
-8.87173e-12
1.06799e-11
-2.05199e-12
2.25656e-08
1.06547e-11
-2.5371e-12
2.257e-08
-2.86344e-12
2.257e-08
9.49214e-12
2.25567e-08
-8.27452e-12
1.01861e-11
2.25693e-08
1.03408e-11
2.2572e-08
2.25716e-08
7.40907e-12
-2.58427e-12
2.24694e-08
-6.46362e-12
3.08147e-12
7.879e-12
-2.68164e-12
2.25229e-08
3.11823e-12
7.82836e-12
-2.72217e-12
2.2544e-08
3.02826e-12
-2.682e-12
2.25506e-08
2.86966e-12
7.35072e-12
-1.91727e-12
2.25247e-08
-6.4834e-12
7.83753e-12
-2.12835e-12
2.25532e-08
7.83292e-12
-2.27356e-12
2.2563e-08
-2.32911e-12
2.25652e-08
7.15816e-12
-1.40019e-12
2.25476e-08
-6.24299e-12
7.6893e-12
-1.6867e-12
2.25648e-08
7.77462e-12
-1.89857e-12
2.25695e-08
-1.97235e-12
2.25699e-08
6.89779e-12
2.25556e-08
-5.94056e-12
7.50023e-12
2.25685e-08
7.70736e-12
2.25715e-08
2.25714e-08
5.00659e-12
-1.83093e-12
2.24685e-08
-4.32226e-12
2.08982e-12
5.36425e-12
-1.82304e-12
2.25223e-08
2.04804e-12
5.39202e-12
-1.75767e-12
2.25439e-08
1.9177e-12
-1.64432e-12
2.25507e-08
1.74149e-12
5.04966e-12
-1.45371e-12
2.25237e-08
-4.43453e-12
5.42771e-12
-1.50758e-12
2.25526e-08
5.47888e-12
-1.51075e-12
2.25627e-08
-1.45969e-12
2.25652e-08
5.00967e-12
-1.1146e-12
2.25466e-08
-4.33924e-12
5.42448e-12
-1.24444e-12
2.25641e-08
5.52961e-12
-1.29642e-12
2.25691e-08
-1.2735e-12
2.25697e-08
4.92135e-12
2.25547e-08
-4.19687e-12
5.38141e-12
2.25679e-08
5.56913e-12
2.25711e-08
2.25711e-08
3.26345e-12
-1.15474e-12
2.24679e-08
-2.77972e-12
1.30593e-12
3.51004e-12
-1.11116e-12
2.25219e-08
1.2353e-12
3.56258e-12
-1.01901e-12
2.25437e-08
1.1135e-12
-9.01734e-13
2.25507e-08
9.56994e-13
3.33402e-12
-9.51542e-13
2.25231e-08
-2.91534e-12
3.60113e-12
-9.3363e-13
2.25521e-08
3.66523e-12
-8.84186e-13
2.25624e-08
-8.03604e-13
2.25651e-08
3.36053e-12
-7.39617e-13
2.25459e-08
-2.89381e-12
3.65119e-12
-7.74177e-13
2.25635e-08
3.74567e-12
-7.62293e-13
2.25687e-08
-7.12136e-13
2.25695e-08
3.34636e-12
2.2554e-08
-2.8433e-12
3.6691e-12
2.25673e-08
3.80992e-12
2.25706e-08
2.25708e-08
1.99692e-12
-4.92968e-13
2.24674e-08
-1.66911e-12
6.06503e-13
2.16565e-12
-4.41757e-13
2.25216e-08
5.36829e-13
2.23334e-12
-3.71503e-13
2.25435e-08
4.45745e-13
-2.81563e-13
2.25507e-08
3.28267e-13
2.0619e-12
-3.77914e-13
2.25226e-08
-1.78501e-12
2.24951e-12
-3.38298e-13
2.25517e-08
2.31838e-12
-2.85416e-13
2.25622e-08
-2.15061e-13
2.25649e-08
2.10577e-12
-2.44973e-13
2.25454e-08
-1.80149e-12
2.30283e-12
-2.40045e-13
2.25631e-08
2.38705e-12
-2.09752e-13
2.25684e-08
-1.60662e-13
2.25693e-08
2.11895e-12
2.25536e-08
-1.80145e-12
2.33183e-12
2.25669e-08
2.43365e-12
2.25703e-08
2.25705e-08
1.23781e-12
1.02187e-13
-9.88893e-13
2.73244e-14
1.41656e-12
1.66023e-13
-5.38576e-14
1.53006e-12
2.33366e-13
-1.38498e-13
2.96355e-13
-2.23977e-13
1.31188e-12
2.23517e-13
-1.08937e-12
1.48592e-12
2.69974e-13
1.59259e-12
3.14662e-13
3.5849e-13
1.36046e-12
3.26512e-13
-1.13768e-12
1.531e-12
3.46916e-13
1.6372e-12
3.70029e-13
3.92171e-13
1.38533e-12
-1.16547e-12
1.55556e-12
1.65998e-12
-4.26195e-09
-3.75595e-09
2.96362e-08
1.53227e-10
-3.93222e-09
-1.62907e-09
2.08239e-08
-4.74295e-10
-4.26784e-09
-7.45495e-10
1.78649e-08
-7.5585e-10
1.04959e-09
1.01357e-08
4.443e-10
6.66268e-09
1.02588e-09
1.56101e-08
-4.52491e-10
-1.15398e-09
3.06674e-08
-1.45714e-10
-1.85918e-09
2.19948e-08
-2.61937e-09
2.40079e-08
1.91777e-09
-1.61177e-09
3.1284e-08
-2.64213e-09
-1.56286e-09
3.27106e-08
-7.6326e-10
1.2506e-09
1.95113e-08
2.45384e-09
1.54899e-08
2.27305e-09
2.53205e-08
2.11861e-09
2.30525e-08
-4.1146e-11
3.15996e-08
2.70292e-08
-4.49557e-09
1.12487e-09
3.4705e-08
-1.72299e-09
-3.99685e-09
1.28012e-10
2.04988e-08
-3.01623e-10
1.2769e-09
-6.63552e-11
1.05583e-08
2.09928e-09
-5.55013e-11
1.03028e-08
1.12123e-09
-5.7194e-09
-1.76168e-09
2.42967e-08
-4.19847e-09
-2.41234e-09
3.16868e-08
1.23118e-09
4.36433e-10
1.60623e-08
-1.10315e-09
2.77734e-08
-4.3871e-09
3.11652e-11
3.3558e-08
1.13272e-09
7.20107e-10
2.40584e-08
-1.23443e-09
-1.95795e-09
2.42729e-08
5.37177e-10
1.2933e-08
-2.69451e-09
2.64259e-08
-4.87683e-09
2.16402e-08
2.07986e-09
1.98036e-08
2.92565e-08
1.96149e-09
2.22466e-09
2.93094e-08
1.15168e-09
2.55469e-09
1.73606e-09
1.74423e-08
7.27181e-10
7.16358e-11
3.39535e-10
1.2526e-08
1.75769e-10
1.42285e-09
1.00702e-08
-4.26821e-10
2.11998e-09
2.36873e-09
2.21701e-08
1.66593e-10
1.80656e-09
3.35697e-08
6.7413e-10
1.60645e-09
1.42879e-08
-1.38596e-10
2.80048e-08
9.14866e-10
1.96512e-09
3.31804e-08
-3.56208e-10
-2.01496e-09
2.91509e-08
-1.79131e-09
-2.78851e-09
3.01029e-08
-8.73969e-10
1.35511e-08
-4.93295e-09
3.50923e-08
-4.77571e-11
9.71595e-09
1.26963e-09
1.36698e-08
2.95983e-08
-2.49344e-09
-9.42301e-10
3.25774e-08
2.40462e-10
3.94833e-09
7.62551e-10
9.99297e-09
2.45044e-10
-6.02177e-10
-3.6035e-10
1.98323e-08
-2.39544e-09
9.25961e-10
5.08663e-09
5.37304e-10
5.11056e-09
2.92771e-09
1.32952e-08
7.37188e-10
2.67317e-09
3.60324e-08
-1.67473e-09
1.96501e-09
1.43744e-08
3.345e-09
2.1152e-08
-4.20537e-09
1.41108e-10
4.02419e-08
8.27406e-10
1.9618e-09
2.48295e-08
2.38861e-10
2.28402e-09
3.03724e-08
-1.79005e-09
1.9698e-08
7.11252e-10
3.65329e-08
3.81611e-10
1.75126e-08
-4.08785e-09
2.352e-08
2.17398e-08
7.91107e-10
1.54806e-09
3.12812e-08
-8.51551e-10
3.20871e-09
3.33712e-12
7.40806e-09
1.63975e-10
4.28438e-09
4.05283e-10
1.95186e-08
-1.1673e-09
-9.88035e-10
1.53806e-08
-2.08118e-09
-2.8999e-09
3.0934e-11
1.77841e-08
4.02549e-09
1.92536e-09
2.7185e-08
-4.48569e-10
-6.2869e-10
1.98824e-08
1.21281e-09
2.16256e-08
2.3451e-09
1.08605e-09
3.70055e-08
-1.0254e-09
1.5359e-09
2.85895e-08
3.04737e-09
4.13296e-09
2.1538e-08
2.1997e-10
2.33783e-08
3.80289e-09
3.24637e-08
4.06905e-10
2.16776e-08
-1.20476e-09
3.11811e-08
2.34752e-08
4.17334e-09
6.86576e-10
2.79883e-08
-1.46822e-09
3.75651e-10
-8.54072e-11
1.3061e-08
-1.7698e-09
-1.85035e-10
8.68034e-10
2.08785e-08
-1.66721e-09
6.27444e-10
1.61973e-08
-5.52833e-10
3.17359e-09
1.15432e-09
1.43105e-08
2.74852e-09
1.83337e-09
2.56913e-08
-9.4008e-10
-1.68756e-10
2.46078e-08
-7.49405e-10
2.28255e-08
4.2118e-09
-1.51054e-09
3.56518e-08
-7.00862e-10
-1.13396e-09
3.64695e-08
-7.5709e-10
3.2355e-10
2.11019e-08
4.36077e-10
2.26821e-08
4.74289e-09
2.46916e-08
1.2622e-09
2.3424e-08
-1.68354e-09
3.42498e-08
2.39658e-08
4.9844e-10
2.53309e-09
2.42512e-08
6.26455e-11
-2.13988e-09
-9.03608e-10
1.77621e-08
-1.15927e-09
-2.46385e-10
-1.76146e-09
1.98539e-08
8.92498e-10
-2.57305e-09
1.62942e-08
9.19173e-10
-1.97451e-09
2.26585e-09
1.65616e-08
9.27363e-10
-2.01289e-09
2.38987e-08
3.95437e-09
-4.80058e-09
2.46199e-08
-2.71174e-10
2.18915e-08
1.18267e-09
-1.0437e-09
3.79123e-08
-4.22406e-09
-3.42277e-09
4.32862e-08
-4.88437e-09
-6.89314e-09
2.38549e-08
5.53313e-10
1.81647e-08
2.23046e-09
2.73817e-08
-2.92296e-09
2.94948e-08
-3.99374e-09
3.22101e-08
2.32117e-08
-7.93286e-10
-1.90825e-09
2.52159e-08
1.73677e-09
-1.82098e-09
-3.54157e-09
2.05118e-08
1.81961e-09
5.91154e-10
-4.34685e-09
1.92947e-08
2.49396e-09
-4.52408e-09
1.608e-08
2.67926e-09
-4.55367e-09
-4.53295e-09
2.37401e-08
-2.09407e-09
-6.36428e-09
2.4262e-08
1.73099e-09
-5.65602e-09
2.21039e-08
-4.21499e-09
2.02174e-08
-4.96656e-10
-2.76454e-09
3.66407e-08
5.10405e-09
-2.62849e-09
3.39501e-08
4.04324e-09
-3.71775e-09
2.29776e-08
-2.39327e-09
1.7227e-08
-4.13637e-10
2.73157e-08
3.90957e-10
2.88056e-08
2.53274e-09
2.67995e-08
2.21313e-08
7.59919e-10
6.79646e-10
2.32573e-08
5.19031e-10
-2.87689e-11
2.93545e-10
2.05426e-08
4.64267e-10
5.5127e-10
6.25914e-10
1.77166e-08
3.72178e-10
5.47707e-10
1.4373e-08
4.15162e-10
-1.48608e-09
-2.0566e-10
2.61118e-08
-1.36925e-09
-6.90069e-10
2.5129e-08
-9.57419e-10
8.49697e-11
2.22329e-08
1.39744e-09
1.91496e-08
1.95453e-09
8.61126e-10
3.36197e-08
3.92998e-09
7.73305e-11
3.12075e-08
1.8827e-09
-6.18932e-11
2.5172e-08
1.49965e-10
2.10498e-08
-1.18805e-09
2.99123e-08
-3.46862e-10
2.93671e-08
3.39962e-10
2.66216e-08
2.31221e-08
1.15717e-12
-2.18881e-10
2.2767e-08
7.08133e-10
2.93488e-10
-3.01508e-10
1.98473e-08
7.04602e-10
5.66134e-10
-2.19083e-10
1.7074e-08
5.89089e-10
-1.42065e-10
1.41173e-08
4.57309e-10
-8.60454e-10
-1.95917e-10
2.69495e-08
-2.06929e-10
-3.82425e-10
2.45566e-08
1.32017e-10
-1.14289e-10
2.17893e-08
1.73621e-10
1.8848e-08
5.78606e-10
8.38595e-10
3.20068e-08
1.74163e-09
6.37627e-10
2.90248e-08
1.20306e-09
4.26782e-10
2.51698e-08
3.46484e-10
2.17878e-08
-8.66085e-10
3.12182e-08
-2.0535e-10
2.91427e-08
2.74508e-10
2.63648e-08
2.32941e-08
4.5567e-10
1.89379e-10
2.17961e-08
3.2585e-10
5.03921e-10
1.65005e-10
1.93025e-08
3.31663e-10
5.56337e-10
1.91418e-10
1.65526e-08
2.77654e-10
1.82909e-10
1.36996e-08
2.06507e-10
1.15731e-10
3.11047e-10
2.67123e-08
2.09022e-10
2.65186e-10
2.43634e-08
2.82125e-10
3.21215e-10
2.15865e-08
3.76812e-10
1.86472e-08
5.12554e-10
7.92406e-10
3.10131e-08
7.50643e-10
6.99462e-10
2.83527e-08
5.13047e-10
5.77022e-10
2.51519e-08
4.71322e-10
2.19739e-08
-1.21261e-10
3.18161e-08
-1.75777e-11
2.95048e-08
8.91578e-11
2.66203e-08
2.35471e-08
9.08161e-11
-7.89046e-12
2.15298e-08
1.83538e-10
2.14042e-10
-1.48802e-11
1.90094e-08
1.84835e-10
2.56111e-10
-9.04965e-12
1.63561e-08
1.6363e-10
-4.11069e-12
1.35961e-08
1.34198e-10
-2.58575e-12
9.49275e-11
2.66123e-08
1.26161e-10
8.17997e-11
2.41382e-08
1.88511e-10
9.42686e-11
2.1421e-08
1.08482e-10
1.85544e-08
1.6358e-10
3.68327e-10
3.05763e-08
3.14592e-10
3.28595e-10
2.79551e-08
2.69378e-10
2.76887e-10
2.50146e-08
2.20631e-10
2.19648e-08
-8.2266e-11
3.20696e-08
2.3453e-11
2.9564e-08
9.21435e-11
2.66817e-08
2.36279e-08
9.6526e-11
6.50503e-12
2.13313e-08
9.55567e-11
1.40839e-10
1.34206e-12
1.88664e-08
9.74688e-11
1.61003e-10
-3.57011e-13
1.62463e-08
9.01254e-11
-3.2188e-12
1.35216e-08
7.88126e-11
4.71349e-11
6.81493e-11
2.65036e-08
9.76263e-11
5.75566e-11
2.40316e-08
1.23447e-10
5.77525e-11
2.13371e-08
5.65412e-11
1.84998e-08
9.33623e-11
1.92525e-10
3.03587e-08
1.49846e-10
1.70287e-10
2.7786e-08
1.41432e-10
1.43541e-10
2.49373e-08
1.14075e-10
2.19423e-08
-3.60998e-12
3.21547e-08
4.29261e-11
2.95923e-08
6.84187e-11
2.67141e-08
2.36624e-08
4.291e-11
-4.86374e-12
2.12415e-08
5.17581e-11
7.27925e-11
-8.62105e-12
1.87918e-08
5.33446e-11
8.73155e-11
-1.15183e-11
1.6192e-08
5.13782e-11
-1.42524e-11
1.34857e-08
4.74749e-11
3.10176e-11
3.03537e-11
2.64374e-08
6.04559e-11
2.49931e-11
2.39686e-08
7.49644e-11
2.30155e-11
2.12881e-08
2.00391e-11
1.84675e-08
4.54298e-11
8.99528e-11
3.02537e-08
7.35329e-11
7.86833e-11
2.77043e-08
7.65939e-11
6.52061e-11
2.48921e-08
5.08329e-11
2.19229e-08
1.02413e-11
3.21744e-08
3.41532e-11
2.95952e-08
4.72741e-11
2.67203e-08
2.36721e-08
2.52098e-11
-6.9843e-12
2.1194e-08
2.93204e-11
4.18495e-11
-9.65885e-12
1.87542e-08
3.07305e-11
5.10244e-11
-1.17787e-11
1.61641e-08
3.05998e-11
-1.41823e-11
1.34669e-08
2.94318e-11
2.10751e-11
1.3675e-11
2.63957e-08
3.76965e-11
1.01833e-11
2.39322e-08
4.60829e-11
7.68718e-12
2.12604e-08
3.44659e-12
1.84494e-08
2.4087e-11
4.15887e-11
3.02017e-08
3.98149e-11
3.52002e-11
2.76636e-08
4.48738e-11
2.80969e-11
2.48667e-08
2.04706e-11
2.19095e-08
1.11915e-11
3.21725e-08
2.49048e-11
2.95892e-08
3.2432e-11
2.6717e-08
2.36724e-08
1.41087e-11
-6.92515e-12
2.11693e-08
1.75503e-11
2.43325e-11
-9.01242e-12
1.87345e-08
1.86476e-11
3.06423e-11
-1.06689e-11
1.61495e-08
1.9098e-11
-1.22055e-11
1.3457e-08
1.90145e-11
1.31006e-11
5.27651e-12
2.63704e-08
2.34502e-11
1.80982e-12
2.39112e-08
2.91951e-11
-3.72906e-13
2.12445e-08
-2.52176e-12
1.84387e-08
1.40302e-11
1.86369e-11
3.01743e-08
2.33535e-11
1.47177e-11
2.76415e-08
2.75025e-11
1.07247e-11
2.48516e-08
6.86658e-12
2.19007e-08
9.02614e-12
3.21649e-08
1.72581e-11
2.95813e-08
2.22583e-11
2.67117e-08
2.36698e-08
8.38731e-12
-6.00655e-12
2.1156e-08
1.10095e-11
1.47829e-11
-7.41333e-12
1.87239e-08
1.18429e-11
1.9044e-11
-8.4775e-12
1.61416e-08
1.23365e-11
-9.53797e-12
1.34514e-08
1.25692e-11
8.42002e-12
6.13506e-13
2.63555e-08
1.48862e-11
-1.3054e-12
2.38988e-08
1.88309e-11
-2.80708e-12
2.12352e-08
-4.28483e-12
1.84323e-08
8.41494e-12
7.88987e-12
3.01587e-08
1.44322e-11
5.43796e-12
2.76289e-08
1.7678e-11
3.13504e-12
2.48426e-08
9.847e-13
2.18951e-08
6.47683e-12
3.21572e-08
1.19618e-11
2.95746e-08
1.51882e-11
2.67068e-08
2.36669e-08
5.132e-12
-4.80312e-12
2.11486e-08
7.1574e-12
9.26061e-12
-5.75624e-12
1.8718e-08
7.75908e-12
1.21852e-11
-6.49341e-12
1.61371e-08
8.18087e-12
-7.2286e-12
1.34483e-08
8.45528e-12
5.391e-12
-1.0524e-12
2.63464e-08
9.59478e-12
-2.33189e-12
2.38914e-08
1.23575e-11
-3.37718e-12
2.12296e-08
-4.40294e-12
1.84284e-08
5.31779e-12
2.94354e-12
3.01496e-08
9.34027e-12
1.36472e-12
2.76214e-08
1.18045e-11
-4.9339e-14
2.48371e-08
-1.27619e-12
2.18913e-08
4.5765e-12
3.21512e-08
8.26137e-12
2.95696e-08
1.06237e-11
2.6703e-08
2.36643e-08
3.23829e-12
-3.68011e-12
2.11443e-08
4.77426e-12
5.96673e-12
-4.3348e-12
1.87146e-08
5.19167e-12
8.00658e-12
-4.85161e-12
1.61346e-08
5.51895e-12
-5.34539e-12
1.34465e-08
5.76175e-12
3.49836e-12
-1.55976e-12
2.63409e-08
6.3e-12
-2.42903e-12
2.3887e-08
8.29168e-12
-3.16273e-12
2.12262e-08
-3.8146e-12
1.8426e-08
3.49548e-12
7.55333e-13
3.01439e-08
6.25753e-12
-2.92856e-13
2.76167e-08
8.07203e-12
-1.18691e-12
2.48335e-08
-1.90928e-12
2.18889e-08
3.19698e-12
3.21468e-08
5.79018e-12
2.95659e-08
7.52046e-12
2.67001e-08
2.36623e-08
2.09854e-12
-2.72913e-12
2.11418e-08
3.22434e-12
3.92113e-12
-3.1662e-12
1.87126e-08
3.50789e-12
5.34437e-12
-3.51765e-12
1.61331e-08
3.74573e-12
-3.86626e-12
1.34454e-08
3.93146e-12
2.3121e-12
-1.54482e-12
2.63376e-08
4.21194e-12
-2.12874e-12
2.38842e-08
5.63997e-12
-2.61376e-12
2.1224e-08
-3.03047e-12
1.84245e-08
2.35873e-12
-1.48043e-13
3.01403e-08
4.27068e-12
-8.40862e-13
2.76138e-08
5.59872e-12
-1.40946e-12
2.48312e-08
-1.83868e-12
2.18872e-08
2.26343e-12
3.21437e-08
4.09095e-12
2.95632e-08
5.3581e-12
2.6698e-08
2.36608e-08
1.37737e-12
-1.94748e-12
2.11403e-08
2.16056e-12
2.59072e-12
-2.23701e-12
1.87114e-08
2.3545e-12
3.57927e-12
-2.47066e-12
1.61321e-08
2.51544e-12
-2.7028e-12
1.34447e-08
2.63966e-12
1.53641e-12
-1.28681e-12
2.63354e-08
2.81578e-12
-1.67093e-12
2.38825e-08
3.82356e-12
-1.98972e-12
2.12227e-08
-2.24404e-12
1.84235e-08
1.60266e-12
-4.2787e-13
3.01379e-08
2.91583e-12
-8.79917e-13
2.76118e-08
3.86418e-12
-1.23967e-12
2.48296e-08
-1.49353e-12
2.1886e-08
1.58654e-12
3.21415e-08
2.86772e-12
2.95614e-08
3.77774e-12
2.66965e-08
2.36596e-08
8.87849e-13
-1.28865e-12
2.11393e-08
1.38032e-12
1.67006e-12
-1.46892e-12
1.87106e-08
1.5046e-12
2.33539e-12
-1.61504e-12
1.61315e-08
1.60832e-12
-1.762e-12
1.34442e-08
1.68077e-12
1.00102e-12
-9.20862e-13
2.63341e-08
1.83402e-12
-1.16173e-12
2.38814e-08
2.50959e-12
-1.35071e-12
2.12218e-08
-1.50334e-12
1.84228e-08
1.06274e-12
-3.92931e-13
3.01364e-08
1.92915e-12
-6.72768e-13
2.76105e-08
2.57332e-12
-8.86292e-13
2.48286e-08
-1.02876e-12
2.18852e-08
1.07302e-12
3.21401e-08
1.93688e-12
2.95601e-08
2.55833e-12
2.66955e-08
2.36588e-08
5.6188e-13
-6.94452e-13
2.11387e-08
7.67091e-13
1.03075e-12
-7.9254e-13
1.87101e-08
8.39985e-13
1.43645e-12
-8.7211e-13
1.61311e-08
8.99404e-13
-9.53714e-13
1.34439e-08
9.3501e-13
6.33363e-13
-4.67045e-13
2.63332e-08
1.13446e-12
-5.95717e-13
2.38807e-08
1.54676e-12
-6.9601e-13
2.12212e-08
-7.70478e-13
1.84224e-08
6.75853e-13
-1.39297e-13
3.01354e-08
1.2072e-12
-2.90312e-13
2.76097e-08
1.6054e-12
-3.97012e-13
2.48279e-08
-4.55147e-13
2.18847e-08
6.86289e-13
3.21391e-08
1.22577e-12
2.95593e-08
1.61407e-12
2.66948e-08
2.36582e-08
3.39598e-13
-2.20422e-13
3.21546e-13
6.51965e-13
-2.64917e-13
3.6008e-13
8.78858e-13
-2.98196e-13
3.94647e-13
-3.28153e-13
4.14948e-13
3.84912e-13
-1.3071e-14
7.27497e-13
-6.52649e-14
9.69604e-13
-9.93763e-14
-1.20096e-13
4.11586e-13
2.47434e-13
7.75535e-13
1.85961e-13
1.0218e-12
1.53985e-13
1.44255e-13
4.21608e-13
7.87756e-13
1.03704e-12
-2.18232e-09
-8.21265e-09
3.21024e-08
-6.72589e-10
2.99232e-09
2.25043e-08
-7.46102e-10
2.33104e-09
2.87033e-08
2.63116e-09
2.59744e-08
8.54892e-10
-1.90132e-09
1.12493e-08
-1.23903e-09
-2.28689e-09
3.14468e-08
-2.60852e-11
9.94972e-10
2.78235e-08
1.30244e-09
3.17764e-08
7.91344e-10
-9.96236e-11
1.26785e-08
5.49301e-10
-2.66591e-09
2.17896e-08
1.09353e-10
-3.22717e-09
2.94463e-08
-2.21077e-09
3.04559e-08
-4.99419e-10
1.76787e-08
3.35901e-10
1.40729e-08
3.20776e-10
1.74842e-08
2.05068e-08
1.29571e-09
5.88384e-10
2.85964e-08
-1.22499e-09
2.37419e-09
2.27154e-08
2.00749e-09
1.61233e-09
2.33542e-08
-3.73959e-09
3.94875e-08
6.67483e-10
3.31402e-09
7.55461e-09
-1.17175e-09
6.55498e-10
3.50047e-08
1.67405e-10
-1.06507e-09
2.91617e-08
-4.67926e-09
3.69269e-08
-6.12985e-10
-7.45029e-09
2.61551e-08
-2.91537e-09
-1.71019e-09
2.64576e-08
-2.48699e-09
-6.04639e-10
2.85575e-08
7.71123e-09
1.58336e-08
1.74979e-09
1.25283e-08
-7.66197e-10
1.83974e-08
3.08953e-09
1.5851e-08
4.2002e-08
-1.89052e-11
2.88619e-10
2.95086e-08
4.59114e-10
4.39133e-09
1.79929e-08
2.21186e-09
-2.27956e-09
2.38206e-08
-6.91041e-09
5.36786e-08
1.18926e-09
-1.24704e-09
8.62819e-09
-2.64819e-09
2.88924e-09
4.03442e-08
2.83715e-10
-2.87995e-09
2.68302e-08
1.36344e-09
3.03418e-08
1.48148e-09
-1.70001e-09
2.53024e-08
-1.35009e-09
3.24008e-09
2.89384e-08
2.22565e-09
1.4269e-09
2.06749e-08
-5.15825e-10
1.95904e-08
-1.51079e-09
1.15178e-08
1.20798e-09
1.72698e-08
2.08396e-09
1.95381e-08
2.75138e-08
-5.22023e-10
-3.38096e-09
3.36951e-08
4.05265e-10
-3.69302e-09
2.08215e-08
1.10217e-09
-1.31244e-09
2.46338e-08
-2.71791e-09
6.10372e-08
-3.94529e-10
-3.14747e-09
9.03427e-09
1.03948e-09
-3.35553e-09
3.85727e-08
1.11287e-09
-9.56163e-10
2.64005e-08
4.01801e-10
2.73445e-08
5.69284e-10
4.08903e-09
1.51011e-08
1.47939e-09
1.1692e-09
2.35035e-08
1.78e-09
1.26495e-09
1.81532e-08
-2.71291e-09
2.31196e-08
-8.86907e-10
1.41018e-08
9.65788e-10
1.41791e-08
-1.23368e-09
2.35438e-08
2.30597e-08
1.45992e-09
4.54364e-09
2.68759e-08
1.32638e-10
-2.77656e-09
2.49652e-08
-3.65623e-10
-9.17934e-10
2.62455e-08
3.48471e-10
5.94759e-08
-7.56326e-10
-1.21869e-09
1.57169e-08
3.97309e-10
1.12948e-09
3.35131e-08
-1.9831e-12
5.2454e-10
2.53574e-08
2.91024e-09
1.90064e-08
1.68078e-10
-2.14761e-09
1.46947e-08
1.56041e-10
2.54215e-09
2.21029e-08
1.22116e-09
2.1383e-09
1.54743e-08
1.68592e-09
2.6148e-08
2.17953e-09
6.14808e-09
-1.66316e-10
1.9579e-08
1.86175e-09
2.17872e-08
3.06196e-08
7.15417e-10
8.00415e-09
1.67755e-08
5.84836e-10
-2.9359e-09
2.77915e-08
-3.02759e-09
1.42599e-09
2.84997e-08
8.13527e-09
4.19323e-08
-2.695e-09
4.13479e-09
2.05115e-08