/*--------------------------------*- C++ -*----------------------------------*\
| =========                 |                                                 |
| \\      /  F ield         | OpenFOAM: The Open Source CFD Toolbox           |
|  \\    /   O peration     | Version:  2506                                  |
|   \\  /    A nd           | Website:  www.openfoam.com                      |
|    \\/     M anipulation  |                                                 |
\*---------------------------------------------------------------------------*/
FoamFile
{
    version     2.0;
    format      ascii;
    arch        "LSB;label=32;scalar=64";
    class       volVectorField;
    location    "0.03";
    object      Us;
}
// * * * * * * * * * * * * * * * * * * * * * * * * * * * * * * * * * * * * * //

dimensions      [0 1 -1 0 0 0 0];

internalField   nonuniform List<vector> 
1152
(
(-5.63268e-05 9.666e-05 5.75484e-05)
(7.33981e-06 6.16758e-05 7.32901e-05)
(3.62682e-06 0.000112703 9.04736e-05)
(5.78434e-05 0.000137999 6.85314e-05)
(3.35846e-07 9.18778e-05 -1.11481e-05)
(-3.45387e-05 8.26909e-05 5.80401e-06)
(-2.41274e-05 0.000133576 0.000104755)
(-2.00426e-05 0.00016719 0.000100896)
(5.42875e-05 2.16107e-05 7.22684e-05)
(-9.544e-06 -6.07716e-05 2.1551e-06)
(-6.06973e-05 -2.55909e-05 0.000132294)
(0.00011215 0.000159331 7.07135e-05)
(4.48961e-05 8.92981e-05 8.33944e-05)
(-1.48992e-05 8.16938e-05 0.000137499)
(0.000174268 6.02253e-05 0.000159614)
(0.000339139 6.08019e-05 9.85848e-05)
(2.34688e-05 0.000180685 0.000229993)
(-9.68801e-05 0.000123072 0.000242745)
(-8.18117e-06 0.000104189 0.000245788)
(3.27743e-05 0.000221727 0.000252665)
(6.59146e-05 0.000112902 0.00010145)
(-0.000156008 4.91831e-05 9.56119e-05)
(1.2664e-05 0.000202109 0.0002754)
(-3.46031e-05 0.000305608 0.000283739)
(6.67549e-05 0.000190079 0.000186465)
(2.50773e-05 0.000129327 0.000216661)
(0.000271095 7.45327e-05 0.000293058)
(-5.37607e-05 0.000217614 0.000436717)
(7.24401e-05 0.000123838 0.000323312)
(9.37649e-05 3.45989e-05 0.000220895)
(0.000195811 -1.28567e-05 0.000283944)
(7.566e-05 8.95287e-05 0.00053704)
(2.962e-05 0.000162851 0.000325296)
(5.47615e-06 0.000173726 0.000348202)
(3.14147e-05 0.000238981 0.000401641)
(1.22564e-05 0.000212072 0.000529438)
(0.000136201 0.000176989 0.000424815)
(5.99331e-05 0.000171543 0.000369209)
(0.000156399 0.000303545 0.00046476)
(4.28128e-05 0.00030191 0.000650624)
(0.000113538 0.0001234 0.000497819)
(9.48761e-05 0.000190454 0.000513662)
(0.000141692 0.000192006 0.000643639)
(6.23651e-05 0.000343579 0.000805656)
(0.000212489 0.00013005 0.000475169)
(7.09939e-05 0.000191162 0.000612215)
(9.33806e-06 0.000127206 0.000554607)
(-6.9629e-05 0.000331318 0.000805552)
(0.000144399 0.000357067 0.000509455)
(0.000231046 0.000250535 0.000556928)
(0.00018229 0.00016202 0.000612056)
(9.78815e-05 0.000284868 0.000735799)
(0.000167424 9.93952e-05 0.000549868)
(0.00021904 0.000174573 0.000682262)
(0.000183051 0.000236237 0.000678344)
(2.70352e-05 0.000262266 0.00071084)
(0.000152201 2.78281e-06 0.000607986)
(0.000149727 7.4927e-05 0.000667697)
(0.000169162 0.000297758 0.000738446)
(6.21948e-05 0.000207252 0.000740888)
(0.000189624 -0.000142796 0.000661201)
(0.000229599 -9.89541e-05 0.000581919)
(0.000258866 -1.27246e-05 0.000691676)
(5.8072e-05 3.43591e-05 0.000770591)
(0.00012346 6.30058e-05 0.000560529)
(0.000117649 0.000221205 0.000605802)
(0.000117572 0.000262771 0.000714883)
(9.53575e-05 0.000382631 0.000680926)
(3.83301e-05 -1.10056e-05 0.00057909)
(0.000192357 0.000214287 0.000595294)
(0.000165814 0.000138095 0.000683548)
(0.000142708 0.000432395 0.000619305)
(3.94698e-05 4.7508e-05 0.000775603)
(0.000130706 0.0002037 0.000686645)
(0.000323688 0.000216302 0.000609964)
(0.000250811 0.00033674 0.000534851)
(-1.57691e-05 1.14435e-05 0.000742601)
(0.000162004 -4.68392e-06 0.000636399)
(0.00030824 7.97984e-05 0.00056478)
(0.000263771 -1.96382e-06 0.000529818)
(-0.00015882 9.71907e-06 0.000529691)
(0.000158801 5.5201e-05 0.00064356)
(0.000156929 0.000224331 0.000717816)
(0.000127983 0.000303704 0.000685856)
(-1.62233e-05 -0.000371354 0.000417667)
(-7.35434e-06 1.37779e-05 0.000624794)
(8.32048e-05 0.000243564 0.000590512)
(0.000162036 0.00030062 0.000525884)
(6.42258e-05 -0.000163246 0.000936473)
(-5.83125e-05 8.91595e-05 0.000740775)
(0.000197964 0.000138756 0.000509593)
(0.000206389 0.000231589 0.000473777)
(-3.93953e-05 3.61521e-05 0.000790746)
(-1.25372e-05 0.000119986 0.000755545)
(0.000110232 4.78429e-05 0.000574277)
(0.00012665 -1.13179e-06 0.000452014)
(1.11245e-05 0.000610332 0.000259678)
(0.000185083 0.000205365 0.000658357)
(6.2149e-05 0.000189443 0.000679153)
(-4.52621e-05 0.000126178 0.000683428)
(-1.0446e-05 0.00015606 0.000734108)
(0.000222902 9.43573e-05 0.000581887)
(0.000161497 0.00020681 0.000642231)
(0.00025779 0.000139903 0.000620808)
(-0.000201226 0.000127544 0.00108302)
(-6.72417e-05 0.000116718 0.000803743)
(0.00028648 5.75575e-05 0.000595632)
(0.000194783 0.0001154 0.000533402)
(-0.000328811 -3.323e-06 0.00123035)
(1.52217e-07 0.000138217 0.000755338)
(0.00034598 -0.000389754 0.000485541)
(0.000247956 0.000109584 0.000254481)
(0 0 0)
(0 0 0)
(0 0 0)
(0 0 0)
(0 0 0)
(0 0 0)
(0 0 0)
(0 0 0)
(0 0 0)
(0 0 0)
(0 0 0)
(0 0 0)
(0 0 0)
(0 0 0)
(0 0 0)
(0 0 0)
(0 0 0)
(0 0 0)
(0 0 0)
(0 0 0)
(0 0 0)
(0 0 0)
(0 0 0)
(0 0 0)
(0 0 0)
(0 0 0)
(0 0 0)
(0 0 0)
(0 0 0)
(0 0 0)
(0 0 0)
(0 0 0)
(0 0 0)
(0 0 0)
(0 0 0)
(0 0 0)
(0 0 0)
(0 0 0)
(0 0 0)
(0 0 0)
(0 0 0)
(0 0 0)
(0 0 0)
(0 0 0)
(0 0 0)
(0 0 0)
(0 0 0)
(0 0 0)
(0 0 0)
(0 0 0)
(0 0 0)
(0 0 0)
(0 0 0)
(0 0 0)
(0 0 0)
(0 0 0)
(0 0 0)
(0 0 0)
(0 0 0)
(0 0 0)
(0 0 0)
(0 0 0)
(0 0 0)
(0 0 0)
(0 0 0)
(0 0 0)
(0 0 0)
(0 0 0)
(0 0 0)
(0 0 0)
(0 0 0)
(0 0 0)
(0 0 0)
(0 0 0)
(0 0 0)
(0 0 0)
(0 0 0)
(0 0 0)
(0 0 0)
(0 0 0)
(0 0 0)
(0 0 0)
(0 0 0)
(0 0 0)
(0 0 0)
(0 0 0)
(0 0 0)
(0 0 0)
(0 0 0)
(0 0 0)
(0 0 0)
(0 0 0)
(0 0 0)
(0 0 0)
(0 0 0)
(0 0 0)
(0 0 0)
(0 0 0)
(0 0 0)
(0 0 0)
(0 0 0)
(0 0 0)
(0 0 0)
(0 0 0)
(0 0 0)
(0 0 0)
(0 0 0)
(0 0 0)
(0 0 0)
(0 0 0)
(0 0 0)
(0 0 0)
(0 0 0)
(0 0 0)
(0 0 0)
(0 0 0)
(0 0 0)
(0 0 0)
(0 0 0)
(0 0 0)
(0 0 0)
(0 0 0)
(0 0 0)
(0 0 0)
(0 0 0)
(0 0 0)
(0 0 0)
(0 0 0)
(0 0 0)
(0 0 0)
(0 0 0)
(0 0 0)
(0 0 0)
(0 0 0)
(0 0 0)
(0 0 0)
(0 0 0)
(0 0 0)
(0 0 0)
(0 0 0)
(0 0 0)
(0 0 0)
(0 0 0)
(0 0 0)
(0 0 0)
(0 0 0)
(0 0 0)
(0 0 0)
(0 0 0)
(0 0 0)
(0 0 0)
(0 0 0)
(0 0 0)
(0 0 0)
(0 0 0)
(0 0 0)
(0 0 0)
(0 0 0)
(0 0 0)
(0 0 0)
(0 0 0)
(0 0 0)
(0 0 0)
(0 0 0)
(0 0 0)
(0 0 0)
(0 0 0)
(0 0 0)
(0 0 0)
(0 0 0)
(0 0 0)
(0 0 0)
(0 0 0)
(0 0 0)
(0 0 0)
(0 0 0)
(0 0 0)
(0 0 0)
(0 0 0)
(0 0 0)
(0 0 0)
(0 0 0)
(0 0 0)
(0 0 0)
(0 0 0)
(0 0 0)
(0 0 0)
(0 0 0)
(0 0 0)
(0 0 0)
(0 0 0)
(0 0 0)
(0 0 0)
(0 0 0)
(0 0 0)
(0 0 0)
(0 0 0)
(0 0 0)
(0 0 0)
(0 0 0)
(0 0 0)
(0 0 0)
(0 0 0)
(0 0 0)
(0 0 0)
(0 0 0)
(0 0 0)
(0 0 0)
(0 0 0)
(0 0 0)
(0 0 0)
(0 0 0)
(0 0 0)
(0 0 0)
(0 0 0)
(0 0 0)
(0 0 0)
(0 0 0)
(0 0 0)
(0 0 0)
(0 0 0)
(0 0 0)
(0 0 0)
(0 0 0)
(0 0 0)
(0 0 0)
(0 0 0)
(0 0 0)
(0 0 0)
(0 0 0)
(0 0 0)
(0 0 0)
(0 0 0)
(0 0 0)
(0 0 0)
(0 0 0)
(0 0 0)
(0 0 0)
(0 0 0)
(0 0 0)
(0 0 0)
(0 0 0)
(0 0 0)
(0 0 0)
(0 0 0)
(0 0 0)
(0 0 0)
(0 0 0)
(0 0 0)
(0 0 0)
(0 0 0)
(0 0 0)
(0 0 0)
(0 0 0)
(0 0 0)
(0 0 0)
(0 0 0)
(0 0 0)
(0 0 0)
(0 0 0)
(0 0 0)
(0 0 0)
(0 0 0)
(0 0 0)
(0 0 0)
(0 0 0)
(0 0 0)
(0 0 0)
(0 0 0)
(0 0 0)
(0 0 0)
(0 0 0)
(-4.63319e-06 -1.05735e-05 0.000115553)
(-3.70439e-05 -5.75138e-05 0.000134963)
(-0.000251951 9.00215e-05 2.07028e-05)
(-0.000174907 -5.48058e-06 0.000138421)
(5.08724e-05 4.70082e-05 6.78212e-05)
(6.4601e-05 3.99004e-05 7.67905e-05)
(5.93201e-05 1.84526e-05 9.9975e-05)
(4.47479e-06 7.99241e-05 9.06305e-05)
(-2.96583e-05 3.59737e-05 4.78717e-05)
(-8.45621e-07 2.11992e-05 9.7083e-05)
(5.29821e-06 1.00612e-05 2.52601e-05)
(9.12816e-05 0.000131106 4.9594e-05)
(-5.67266e-05 -3.71155e-06 6.23704e-05)
(-4.57439e-05 1.86643e-05 7.40308e-05)
(-9.52031e-05 7.42652e-05 0.000151873)
(-3.01826e-06 0.000217436 8.96385e-05)
(-3.28633e-06 -1.037e-05 0.000260655)
(-6.26212e-05 1.57866e-05 0.000322158)
(-2.03107e-05 6.40963e-05 0.000322667)
(-3.33048e-05 0.000131326 0.000281699)
(2.66162e-05 2.42273e-05 0.000184342)
(5.9022e-05 2.81557e-05 0.000225559)
(0.000154779 5.06538e-05 0.000166465)
(0.000104576 0.000122008 0.000212952)
(-0.000158625 8.15584e-05 0.00024148)
(-9.19396e-05 -0.000126403 0.00016659)
(0.000140761 0.000136109 0.00022999)
(7.35834e-05 0.000152377 0.000254199)
(-0.000202057 4.12679e-05 0.000260261)
(-0.00010582 -7.17127e-05 0.000294558)
(-2.49756e-05 6.47934e-05 0.000265913)
(5.77108e-05 9.35238e-05 0.000325492)
(-3.09801e-06 -2.99746e-05 0.00033948)
(9.6172e-06 1.3165e-05 0.000431163)
(8.57662e-05 6.73293e-05 0.000365663)
(9.00097e-05 0.00012521 0.000334324)
(3.48067e-05 4.36376e-05 0.000221061)
(9.56956e-05 3.6346e-05 0.000311094)
(0.000158952 8.41185e-05 0.000356901)
(0.000161974 0.000107005 0.000395232)
(4.12718e-06 0.000174465 0.000173163)
(0.000126878 6.42499e-05 0.000297904)
(0.000166565 0.000121559 0.000376277)
(0.000135548 0.000117314 0.000419924)
(-2.43189e-05 0.000284469 0.000468522)
(3.14209e-05 5.20035e-05 0.000438816)
(0.00014218 9.1983e-05 0.000457594)
(0.000227792 7.32644e-05 0.000506373)
(9.36041e-05 -6.71463e-05 0.000463334)
(0.000195994 -2.40134e-05 0.000439793)
(0.000159034 6.13289e-05 0.000397429)
(0.000168705 6.12521e-05 0.000512542)
(6.88229e-05 -2.39149e-05 0.000267883)
(7.10787e-05 7.99402e-05 0.000333304)
(7.66572e-05 8.12837e-05 0.000376908)
(9.82903e-05 2.76048e-05 0.000468534)
(3.97523e-05 -3.77229e-05 0.000219146)
(0.000118026 0.000130669 0.000374354)
(0.000139938 0.000138573 0.000500296)
(0.000195033 6.89342e-06 0.000600357)
(-5.39941e-05 -0.000112246 0.000540177)
(0.000114834 0.000127166 0.000470365)
(0.000187517 0.000103896 0.000556687)
(0.000140459 4.27612e-07 0.000709781)
(0.000103874 -1.52939e-05 0.000376936)
(9.75626e-05 0.00010492 0.000300522)
(9.81828e-05 8.95983e-05 0.000377389)
(6.81267e-05 0.000112059 0.000541877)
(4.02208e-06 5.62171e-05 0.000266247)
(1.73206e-05 6.79589e-05 0.000305732)
(-3.4958e-05 -8.6983e-06 0.00041151)
(7.62501e-05 -0.000150965 0.000576318)
(8.04781e-05 -5.12652e-05 0.000299166)
(0.00010111 7.95992e-06 0.000446607)
(0.000130315 8.46215e-05 0.000659176)
(0.000150504 -0.000137456 0.000765014)
(0.000110546 -1.34893e-06 0.000502106)
(0.000187197 -2.8488e-05 0.000543713)
(0.000226367 6.55385e-05 0.000665806)
(7.32645e-05 1.59024e-05 0.000833446)
(3.49023e-05 2.08159e-05 0.000161988)
(9.40736e-05 6.15144e-05 0.000322944)
(-4.14322e-06 8.8131e-05 0.000459328)
(4.81597e-05 1.01648e-05 0.000587567)
(4.90956e-05 5.90158e-05 0.000207846)
(0.000148734 1.7399e-05 0.000382448)
(7.27767e-05 7.00083e-05 0.000440297)
(2.5416e-05 -7.97673e-05 0.000516725)
(2.93484e-05 0.000179042 0.00020798)
(0.000227785 9.09473e-05 0.000363867)
(0.000245087 -1.16593e-05 0.000622971)
(9.37147e-05 1.69185e-05 0.00087467)
(6.50146e-05 2.53016e-05 0.000309632)
(6.22001e-05 0.000163287 0.000587942)
(4.60261e-05 0.000212385 0.000690753)
(9.22362e-05 8.33989e-05 0.000714128)
(-6.80543e-05 -0.000252531 8.99944e-05)
(-0.000343458 -0.000493021 0.000850154)
(-0.00036542 6.74399e-06 0.00114733)
(-8.65632e-05 -0.000211523 0.0011025)
(-0.0012125 0.00227435 -0.00128284)
(-9.2052e-05 -0.000208874 0.000177211)
(0.000751356 -0.000181031 0.000144824)
(0.00116185 0.000543831 -9.13606e-05)
(-2.93376e-06 0.000164918 -0.000174667)
(0.000442573 0.000189236 0.000310349)
(-0.00301689 -0.00319612 -0.0012201)
(-0.000372357 0.000478515 0.000692606)
(2.6627e-06 -0.000425592 0.000111128)
(0.000729727 -0.0022359 0.000564204)
(-0.00226671 -0.00233722 -0.000599577)
(-0.000141435 0.000353959 0.000842831)
(0 0 0)
(0 0 0)
(0 0 0)
(0 0 0)
(0 0 0)
(0 0 0)
(0 0 0)
(0 0 0)
(0 0 0)
(0 0 0)
(0 0 0)
(0 0 0)
(0 0 0)
(0 0 0)
(0 0 0)
(0 0 0)
(0 0 0)
(0 0 0)
(0 0 0)
(0 0 0)
(0 0 0)
(0 0 0)
(0 0 0)
(0 0 0)
(0 0 0)
(0 0 0)
(0 0 0)
(0 0 0)
(0 0 0)
(0 0 0)
(0 0 0)
(0 0 0)
(0 0 0)
(0 0 0)
(0 0 0)
(0 0 0)
(0 0 0)
(0 0 0)
(0 0 0)
(0 0 0)
(0 0 0)
(0 0 0)
(0 0 0)
(0 0 0)
(0 0 0)
(0 0 0)
(0 0 0)
(0 0 0)
(0 0 0)
(0 0 0)
(0 0 0)
(0 0 0)
(0 0 0)
(0 0 0)
(0 0 0)
(0 0 0)
(0 0 0)
(0 0 0)
(0 0 0)
(0 0 0)
(0 0 0)
(0 0 0)
(0 0 0)
(0 0 0)
(0 0 0)
(0 0 0)
(0 0 0)
(0 0 0)
(0 0 0)
(0 0 0)
(0 0 0)
(0 0 0)
(0 0 0)
(0 0 0)
(0 0 0)
(0 0 0)
(0 0 0)
(0 0 0)
(0 0 0)
(0 0 0)
(0 0 0)
(0 0 0)
(0 0 0)
(0 0 0)
(0 0 0)
(0 0 0)
(0 0 0)
(0 0 0)
(0 0 0)
(0 0 0)
(0 0 0)
(0 0 0)
(0 0 0)
(0 0 0)
(0 0 0)
(0 0 0)
(0 0 0)
(0 0 0)
(0 0 0)
(0 0 0)
(0 0 0)
(0 0 0)
(0 0 0)
(0 0 0)
(0 0 0)
(0 0 0)
(0 0 0)
(0 0 0)
(0 0 0)
(0 0 0)
(0 0 0)
(0 0 0)
(0 0 0)
(0 0 0)
(0 0 0)
(0 0 0)
(0 0 0)
(0 0 0)
(0 0 0)
(0 0 0)
(0 0 0)
(0 0 0)
(0 0 0)
(0 0 0)
(0 0 0)
(0 0 0)
(0 0 0)
(0 0 0)
(0 0 0)
(0 0 0)
(0 0 0)
(0 0 0)
(0 0 0)
(0 0 0)
(0 0 0)
(0 0 0)
(0 0 0)
(0 0 0)
(0 0 0)
(0 0 0)
(0 0 0)
(0 0 0)
(0 0 0)
(0 0 0)
(0 0 0)
(0 0 0)
(0 0 0)
(0 0 0)
(0 0 0)
(0 0 0)
(0 0 0)
(0 0 0)
(0 0 0)
(0 0 0)
(0 0 0)
(0 0 0)
(0 0 0)
(0 0 0)
(0 0 0)
(0 0 0)
(0 0 0)
(0 0 0)
(0 0 0)
(0 0 0)
(0 0 0)
(0 0 0)
(0 0 0)
(0 0 0)
(0 0 0)
(0 0 0)
(0 0 0)
(0 0 0)
(0 0 0)
(0 0 0)
(0 0 0)
(0 0 0)
(0 0 0)
(0 0 0)
(0 0 0)
(0 0 0)
(0 0 0)
(0 0 0)
(0 0 0)
(0 0 0)
(0 0 0)
(0 0 0)
(0 0 0)
(0 0 0)
(0 0 0)
(0 0 0)
(0 0 0)
(0 0 0)
(0 0 0)
(0 0 0)
(0 0 0)
(0 0 0)
(0 0 0)
(0 0 0)
(0 0 0)
(0 0 0)
(0 0 0)
(0 0 0)
(0 0 0)
(0 0 0)
(0 0 0)
(0 0 0)
(0 0 0)
(0 0 0)
(0 0 0)
(0 0 0)
(0 0 0)
(0 0 0)
(0 0 0)
(0 0 0)
(0 0 0)
(0 0 0)
(0 0 0)
(0 0 0)
(0 0 0)
(0 0 0)
(0 0 0)
(0 0 0)
(0 0 0)
(0 0 0)
(0 0 0)
(0 0 0)
(0 0 0)
(0 0 0)
(0 0 0)
(0 0 0)
(0 0 0)
(0 0 0)
(0 0 0)
(0 0 0)
(0 0 0)
(0 0 0)
(0 0 0)
(0 0 0)
(0 0 0)
(0 0 0)
(0 0 0)
(0 0 0)
(0 0 0)
(0 0 0)
(0 0 0)
(0 0 0)
(0 0 0)
(0 0 0)
(0 0 0)
(0 0 0)
(0 0 0)
(0 0 0)
(0 0 0)
(0 0 0)
(0 0 0)
(0 0 0)
(0 0 0)
(0 0 0)
(0 0 0)
(0 0 0)
(0 0 0)
(0 0 0)
(0 0 0)
(0 0 0)
(0 0 0)
(0 0 0)
(0 0 0)
(0 0 0)
(0 0 0)
(0 0 0)
(0 0 0)
(0 0 0)
(-3.06149e-05 -2.00737e-05 6.13554e-05)
(-1.34944e-05 2.38851e-05 8.71418e-05)
(-4.20759e-06 5.12876e-05 0.00010851)
(5.26217e-05 1.61126e-05 8.00228e-05)
(-5.95455e-06 -2.20143e-05 6.33288e-05)
(3.83573e-05 9.67133e-05 9.59473e-05)
(-3.37698e-05 1.74388e-05 7.98457e-05)
(-2.90506e-05 8.36076e-05 0.000165516)
(-3.06057e-05 6.10966e-05 1.94191e-05)
(1.3132e-05 3.73746e-05 8.91528e-05)
(7.60267e-06 8.27356e-05 0.000119021)
(-8.71409e-05 5.78685e-05 8.35106e-05)
(-6.56761e-05 9.06648e-05 0.000110688)
(-9.71802e-06 1.71313e-05 0.000108694)
(5.55306e-05 5.59512e-05 0.00013665)
(-0.000115273 0.0001388 7.97847e-05)
(2.01626e-05 3.27327e-05 0.000180565)
(-1.84063e-05 3.86749e-05 0.000243333)
(-7.9785e-05 -0.000200603 0.000148555)
(0.000176377 2.58084e-05 0.000296958)
(5.15744e-05 3.86423e-05 0.000244442)
(2.93595e-05 5.8292e-05 0.000277085)
(2.36328e-05 -0.000183467 0.000292583)
(7.4085e-05 3.66467e-05 0.000400327)
(-3.73956e-06 4.86639e-05 0.000243043)
(3.04761e-06 5.15847e-05 0.000302599)
(2.98876e-05 1.12361e-07 0.000373727)
(-4.22624e-05 0.0001701 0.000299369)
(-4.04098e-05 9.18936e-05 0.000311716)
(-3.38697e-05 0.000117469 0.000302499)
(-1.48281e-05 0.000115385 0.000320197)
(-9.27291e-05 0.000178603 0.000206996)
(-7.11817e-05 7.41913e-05 0.000286094)
(5.2874e-05 4.30935e-05 0.000314502)
(8.57066e-05 -5.19645e-05 0.000364818)
(0.000115797 -1.99287e-05 0.000401818)
(-0.000120226 -3.4326e-05 0.000383779)
(0.000117648 3.11314e-05 0.000388715)
(8.9364e-05 3.88424e-05 0.000473289)
(0.00011866 5.29897e-05 0.000526928)
(-4.23469e-05 -5.38063e-05 0.000439243)
(6.85243e-05 2.6211e-05 0.000485685)
(-4.43916e-05 0.000133146 0.000480194)
(1.61717e-05 0.000157471 0.000481347)
(-2.12551e-05 8.50883e-05 0.000407868)
(-8.13253e-05 0.000121402 0.000404877)
(-5.53587e-05 0.00017312 0.000421328)
(-6.80401e-05 0.000243556 0.000544616)
(7.64253e-05 -4.19639e-05 0.000325995)
(0.000125248 -3.78818e-05 0.000349928)
(0.000132672 4.52571e-05 0.000426073)
(-0.000395675 0.000114103 0.000459864)
(7.43578e-05 1.65859e-05 0.000440748)
(4.31633e-05 7.90452e-05 0.000495979)
(4.47206e-05 0.000103283 0.000475706)
(-7.48487e-05 0.000118737 0.000585513)
(0.000127401 3.84587e-05 0.000389396)
(2.91618e-05 0.00019464 0.000533856)
(3.79327e-05 5.27402e-05 0.000637037)
(-5.17465e-06 0.000113124 0.000629149)
(6.82011e-05 0.000137395 0.000549395)
(-9.41991e-06 0.000340755 0.000546035)
(1.87657e-05 0.000199496 0.000648629)
(-9.61464e-06 0.000195642 0.0007854)
(7.00963e-05 -4.02443e-05 0.000271698)
(0.000154455 -6.34697e-05 0.00025223)
(9.04101e-05 5.53608e-05 0.0004787)
(6.15107e-08 0.000100836 0.0006321)
(4.47269e-05 -1.13695e-05 0.000413007)
(1.1608e-05 -5.01924e-05 0.000494357)
(-4.13461e-05 9.87207e-05 0.000637059)
(-0.000140156 0.000142692 0.000639646)
(3.8185e-05 -4.26148e-06 0.000533928)
(0.000112952 5.34524e-05 0.000668764)
(-7.02367e-06 7.40799e-05 0.000657273)
(-0.000117445 0.000242969 0.000741429)
(2.96773e-05 9.58436e-05 0.00054366)
(2.28051e-06 0.000142715 0.000653581)
(-2.09542e-06 0.000229551 0.000783836)
(-6.47998e-05 0.000312704 0.000800595)
(3.638e-05 1.44584e-05 0.000158414)
(1.93628e-05 -0.000112908 0.000307603)
(-9.86177e-05 5.74428e-05 0.000517329)
(-0.000326322 0.000291628 0.000709556)
(0.00016784 -2.34547e-05 0.000449555)
(5.40781e-05 -3.24945e-05 0.000428326)
(-8.12055e-05 0.000111107 0.000783703)
(-0.000268976 0.000352553 0.00101209)
(0.00010738 4.81827e-05 0.000627114)
(4.99097e-05 -8.78922e-06 0.000547204)
(-3.36372e-06 0.000116233 0.000760349)
(-9.68882e-05 0.000371009 0.000906748)
(-1.29988e-05 4.15627e-05 0.00049027)
(0.0001333 -1.80315e-05 0.000609356)
(7.98132e-05 0.000161447 0.00074945)
(3.67689e-05 0.000316126 0.000821397)
(-0.000133052 0.000210057 -1.48383e-05)
(-0.000184915 0.000126782 0.00039477)
(0.000773517 -0.000132404 0.00015763)
(0.00215439 -6.39401e-05 0.000192167)
(-0.000446784 0.00117152 0.000178788)
(-0.000206398 0.000774344 0.000231955)
(-0.000103448 0.000128514 0.000750476)
(8.42237e-05 0.000225585 0.00094022)
(0.00121104 -0.000848952 -0.000751491)
(0.000975952 -0.00043019 -0.000462265)
(-0.000677717 0.000683196 0.000821365)
(-0.00138756 0.00141377 0.00069822)
(0.000416983 0.00026591 0.000610623)
(0.000143691 0.00121513 0.000974929)
(-2.75071e-06 0.00017877 0.000827266)
(-2.04039e-05 0.000224688 0.000846156)
(0 0 0)
(0 0 0)
(-0.000309716 0.000269847 0.000580351)
(0.0182314 -0.000608917 -0.00527661)
(0 0 0)
(0 0 0)
(0 0 0)
(0 0 0)
(0 0 0)
(0 0 0)
(0 0 0)
(0 0 0)
(0 0 0)
(0 0 0)
(0 0 0)
(0 0 0)
(0 0 0)
(0 0 0)
(0 0 0)
(0 0 0)
(0 0 0)
(0 0 0)
(0 0 0)
(0 0 0)
(0 0 0)
(0 0 0)
(0 0 0)
(0 0 0)
(0 0 0)
(0 0 0)
(0 0 0)
(0 0 0)
(0 0 0)
(0 0 0)
(0 0 0)
(0 0 0)
(0 0 0)
(0 0 0)
(0 0 0)
(0 0 0)
(0 0 0)
(0 0 0)
(0 0 0)
(0 0 0)
(0 0 0)
(0 0 0)
(0 0 0)
(0 0 0)
(0 0 0)
(0 0 0)
(0 0 0)
(0 0 0)
(0 0 0)
(0 0 0)
(0 0 0)
(0 0 0)
(0 0 0)
(0 0 0)
(0 0 0)
(0 0 0)
(0 0 0)
(0 0 0)
(0 0 0)
(0 0 0)
(0 0 0)
(0 0 0)
(0 0 0)
(0 0 0)
(0 0 0)
(0 0 0)
(0 0 0)
(0 0 0)
(0 0 0)
(0 0 0)
(0 0 0)
(0 0 0)
(0 0 0)
(0 0 0)
(0 0 0)
(0 0 0)
(0 0 0)
(0 0 0)
(0 0 0)
(0 0 0)
(0 0 0)
(0 0 0)
(0 0 0)
(0 0 0)
(0 0 0)
(0 0 0)
(0 0 0)
(0 0 0)
(0 0 0)
(0 0 0)
(0 0 0)
(0 0 0)
(0 0 0)
(0 0 0)
(0 0 0)
(0 0 0)
(0 0 0)
(0 0 0)
(0 0 0)
(0 0 0)
(0 0 0)
(0 0 0)
(0 0 0)
(0 0 0)
(0 0 0)
(0 0 0)
(0 0 0)
(0 0 0)
(0 0 0)
(0 0 0)
(0 0 0)
(0 0 0)
(0 0 0)
(0 0 0)
(0 0 0)
(0 0 0)
(0 0 0)
(0 0 0)
(0 0 0)
(0 0 0)
(0 0 0)
(0 0 0)
(0 0 0)
(0 0 0)
(0 0 0)
(0 0 0)
(0 0 0)
(0 0 0)
(0 0 0)
(0 0 0)
(0 0 0)
(0 0 0)
(0 0 0)
(0 0 0)
(0 0 0)
(0 0 0)
(0 0 0)
(0 0 0)
(0 0 0)
(0 0 0)
(0 0 0)
(0 0 0)
(0 0 0)
(0 0 0)
(0 0 0)
(0 0 0)
(0 0 0)
(0 0 0)
(0 0 0)
(0 0 0)
(0 0 0)
(0 0 0)
(0 0 0)
(0 0 0)
(0 0 0)
(0 0 0)
(0 0 0)
(0 0 0)
(0 0 0)
(0 0 0)
(0 0 0)
(0 0 0)
(0 0 0)
(0 0 0)
(0 0 0)
(0 0 0)
(0 0 0)
(0 0 0)
(0 0 0)
(0 0 0)
(0 0 0)
(0 0 0)
(0 0 0)
(0 0 0)
(0 0 0)
(0 0 0)
(0 0 0)
(0 0 0)
(0 0 0)
(0 0 0)
(0 0 0)
(0 0 0)
(0 0 0)
(0 0 0)
(0 0 0)
(0 0 0)
(0 0 0)
(0 0 0)
(0 0 0)
(0 0 0)
(0 0 0)
(0 0 0)
(0 0 0)
(0 0 0)
(0 0 0)
(0 0 0)
(0 0 0)
(0 0 0)
(0 0 0)
(0 0 0)
(0 0 0)
(0 0 0)
(0 0 0)
(0 0 0)
(0 0 0)
(0 0 0)
(0 0 0)
(0 0 0)
(0 0 0)
(0 0 0)
(0 0 0)
(0 0 0)
(0 0 0)
(0 0 0)
(0 0 0)
(0 0 0)
(0 0 0)
(0 0 0)
(0 0 0)
(0 0 0)
(0 0 0)
(0 0 0)
(0 0 0)
(0 0 0)
(0 0 0)
(0 0 0)
(0 0 0)
(0 0 0)
(0 0 0)
(0 0 0)
(0 0 0)
(0 0 0)
(0 0 0)
(0 0 0)
(0 0 0)
(0 0 0)
(0 0 0)
(0 0 0)
(0 0 0)
(0 0 0)
(0 0 0)
(0 0 0)
(0 0 0)
(0 0 0)
(0 0 0)
(0 0 0)
(0 0 0)
(0 0 0)
(0 0 0)
(0 0 0)
(0 0 0)
(0 0 0)
(0 0 0)
(0 0 0)
(0 0 0)
(0 0 0)
(0 0 0)
(0 0 0)
(0 0 0)
(0 0 0)
(0 0 0)
(0 0 0)
(0 0 0)
(0 0 0)
(0 0 0)
(0 0 0)
(0 0 0)
(0 0 0)
)
;

boundaryField
{
    inlet
    {
        type            zeroGradient;
    }
    outlet
    {
        type            zeroGradient;
    }
    wall
    {
        type            zeroGradient;
    }
    procBoundary0to1
    {
        type            processor;
        value           nonuniform List<vector> 
192
(
(6.54102e-05 -3.62881e-05 -9.09612e-07)
(5.32634e-05 0.000253336 0.000140376)
(0.000169904 0.00018147 0.000197736)
(0.000585245 0.000677778 -0.00054523)
(-1.11643e-05 0.000273357 0.000378535)
(7.74173e-05 0.00030943 0.000408914)
(4.06325e-05 0.000162742 0.000582199)
(9.97815e-05 -1.83009e-05 0.000692756)
(-4.82151e-05 0.00024037 0.000615402)
(-8.49938e-05 0.00030604 0.000722404)
(-0.000157554 0.0002607 0.000883658)
(-0.000213418 5.91706e-06 0.000527854)
(-4.59522e-05 0.000310332 0.00072109)
(-4.86201e-05 0.000469363 0.000770989)
(-5.86449e-05 0.000344183 0.000831457)
(-7.66842e-05 0.000110356 0.000730367)
(-1.87055e-05 0.000436804 0.000637581)
(-3.25245e-05 0.000522897 0.000623456)
(-1.21133e-05 0.000400411 0.000537237)
(-6.72656e-05 9.86958e-05 0.000440672)
(6.73778e-06 0.000215926 0.000656434)
(5.25912e-05 0.000284435 0.000582156)
(-1.08879e-05 0.000266596 0.000435567)
(0.00032576 3.51371e-05 0.00033456)
(-1.10604e-05 0.000166878 0.000683578)
(0.000236068 0.000242151 0.000512274)
(-0.000572294 0.000492055 0.000440213)
(0.000195838 -0.000498358 0.000566322)
(0 0 0)
(0 0 0)
(0 0 0)
(0.000391948 -0.000372133 0.0004217)
(0 0 0)
(0 0 0)
(0 0 0)
(0 0 0)
(0 0 0)
(0 0 0)
(0 0 0)
(0 0 0)
(0 0 0)
(0 0 0)
(0 0 0)
(0 0 0)
(0 0 0)
(0 0 0)
(0 0 0)
(0 0 0)
(0 0 0)
(0 0 0)
(0 0 0)
(0 0 0)
(0 0 0)
(0 0 0)
(0 0 0)
(0 0 0)
(0 0 0)
(0 0 0)
(0 0 0)
(0 0 0)
(0 0 0)
(0 0 0)
(0 0 0)
(0 0 0)
(0 0 0)
(0 0 0)
(0 0 0)
(0 0 0)
(0 0 0)
(0 0 0)
(0 0 0)
(0 0 0)
(0 0 0)
(0 0 0)
(0 0 0)
(0 0 0)
(0 0 0)
(0 0 0)
(0 0 0)
(0 0 0)
(0 0 0)
(0 0 0)
(0 0 0)
(0 0 0)
(0 0 0)
(0 0 0)
(0 0 0)
(0 0 0)
(0 0 0)
(0 0 0)
(0 0 0)
(0 0 0)
(0 0 0)
(0 0 0)
(0 0 0)
(0 0 0)
(-2.47688e-05 8.49909e-05 8.97532e-05)
(-3.92691e-05 0.000130818 0.000102575)
(-4.98091e-05 0.000108103 0.000103708)
(2.5761e-05 2.18849e-05 -4.73494e-05)
(-1.0715e-05 0.000137061 0.000243662)
(-4.99501e-05 0.000189854 0.000230751)
(5.19772e-06 0.000297546 0.000277438)
(-0.000126613 8.69793e-05 0.000139626)
(9.59329e-05 3.67724e-05 0.000254491)
(6.13259e-05 0.000157312 0.000342175)
(-1.17785e-05 0.000148401 0.000449395)
(-4.14786e-05 0.00019083 0.000556838)
(2.65986e-05 2.19485e-05 0.000363897)
(2.78572e-05 3.05072e-05 0.000463251)
(1.42847e-05 0.000117623 0.000583095)
(1.95528e-06 0.000163416 0.000676613)
(-0.000111241 0.000130692 0.000567313)
(-0.00012943 0.00019652 0.000508279)
(-6.46232e-05 0.000278406 0.000700957)
(-5.70877e-05 0.000360169 0.000708206)
(-0.000131493 0.000497375 0.000854552)
(-6.35519e-05 0.000622489 0.000786244)
(-8.05884e-05 0.00049464 0.0008282)
(3.8368e-05 0.000278115 0.000791547)
(0.00473693 0.000495382 -0.00102978)
(0.00183632 -0.000238915 0.000976443)
(0.000401179 0.000647679 0.000906391)
(0.000199465 0.000434362 0.000893323)
(0 0 0)
(0 0 0)
(0 0 0)
(0 0 0)
(0 0 0)
(0 0 0)
(0 0 0)
(0 0 0)
(0 0 0)
(0 0 0)
(0 0 0)
(0 0 0)
(0 0 0)
(0 0 0)
(0 0 0)
(0 0 0)
(0 0 0)
(0 0 0)
(0 0 0)
(0 0 0)
(0 0 0)
(0 0 0)
(0 0 0)
(0 0 0)
(0 0 0)
(0 0 0)
(0 0 0)
(0 0 0)
(0 0 0)
(0 0 0)
(0 0 0)
(0 0 0)
(0 0 0)
(0 0 0)
(0 0 0)
(0 0 0)
(0 0 0)
(0 0 0)
(0 0 0)
(0 0 0)
(0 0 0)
(0 0 0)
(0 0 0)
(0 0 0)
(0 0 0)
(0 0 0)
(0 0 0)
(0 0 0)
(0 0 0)
(0 0 0)
(0 0 0)
(0 0 0)
(0 0 0)
(0 0 0)
(0 0 0)
(0 0 0)
(0 0 0)
(0 0 0)
(0 0 0)
(0 0 0)
(0 0 0)
(0 0 0)
(0 0 0)
(0 0 0)
(0 0 0)
(0 0 0)
(0 0 0)
(0 0 0)
)
;
    }
    procBoundary0to2
    {
        type            processor;
        value           nonuniform List<vector> 
192
(
(4.402e-05 5.94558e-05 8.04755e-05)
(0.000118929 5.97716e-08 8.53164e-05)
(0.000142607 -0.000342147 0.000174545)
(0.000195916 -0.000490528 0.000139126)
(6.34403e-05 9.49585e-06 0.000348091)
(6.15534e-05 -5.62834e-05 0.000293266)
(0.000111685 -2.44191e-05 0.000364368)
(5.01811e-05 -3.40004e-05 0.000435668)
(0.000169161 -2.53524e-05 0.000487026)
(0.000209579 4.39024e-05 0.000699185)
(0.00013791 -7.34383e-05 0.000644294)
(-5.68595e-05 -0.000129012 0.000721025)
(0.000183845 -6.79075e-05 0.000532933)
(0.000140858 -0.000102657 0.00052933)
(6.79644e-05 -0.000222815 0.000612542)
(1.61447e-05 -0.00024634 0.000841163)
(3.56154e-05 -4.12984e-05 0.000573414)
(0.000128356 -0.000101203 0.000555823)
(0.000174934 -0.000172678 0.00058093)
(0.00016338 -0.00017402 0.000611419)
(5.13927e-06 4.85775e-05 0.000659079)
(5.24379e-06 4.79762e-05 0.000682)
(9.26688e-05 -3.23562e-05 0.000651977)
(4.24538e-05 -0.000119491 0.0005137)
(-0.00022965 0.00018497 0.000676405)
(-0.000773573 0.000516224 0.000639522)
(-0.000113079 -0.000211976 0.000587543)
(0.000187862 2.98345e-05 0.000445216)
(0 0 0)
(0 0 0)
(0 0 0)
(0 0 0)
(0 0 0)
(0 0 0)
(0 0 0)
(0 0 0)
(0 0 0)
(0 0 0)
(0 0 0)
(0 0 0)
(0 0 0)
(0 0 0)
(0 0 0)
(0 0 0)
(0 0 0)
(0 0 0)
(0 0 0)
(0 0 0)
(0 0 0)
(0 0 0)
(0 0 0)
(0 0 0)
(0 0 0)
(0 0 0)
(0 0 0)
(0 0 0)
(0 0 0)
(0 0 0)
(0 0 0)
(0 0 0)
(0 0 0)
(0 0 0)
(0 0 0)
(0 0 0)
(0 0 0)
(0 0 0)
(0 0 0)
(0 0 0)
(0 0 0)
(0 0 0)
(0 0 0)
(0 0 0)
(0 0 0)
(0 0 0)
(0 0 0)
(0 0 0)
(0 0 0)
(0 0 0)
(0 0 0)
(0 0 0)
(0 0 0)
(0 0 0)
(0 0 0)
(0 0 0)
(0 0 0)
(0 0 0)
(0 0 0)
(0 0 0)
(0 0 0)
(0 0 0)
(0 0 0)
(0 0 0)
(0 0 0)
(0 0 0)
(0 0 0)
(0 0 0)
(4.73262e-05 8.56788e-05 4.69323e-05)
(1.6053e-06 1.74216e-05 7.04074e-05)
(1.78349e-05 6.78017e-05 9.9184e-05)
(2.81356e-05 2.9144e-05 5.35931e-05)
(-3.29352e-05 2.81592e-05 0.000238112)
(-7.26418e-05 4.73222e-06 0.000151958)
(-6.14964e-05 0.00010864 0.000225525)
(5.51878e-05 8.99017e-05 0.000320785)
(0.000150008 -0.000235484 -0.000221246)
(0.000479763 -0.000314231 0.000289828)
(-0.000110443 0.000117862 0.000496013)
(5.30994e-05 1.12233e-05 0.000424027)
(-0.000140346 -0.000310455 0.000363923)
(0.000269359 -3.53232e-05 0.000532038)
(9.46885e-05 -0.000116089 0.000524897)
(0.000141592 -5.1716e-05 0.000441808)
(7.82838e-05 7.29857e-05 0.000395568)
(4.58323e-05 5.90166e-05 0.000525386)
(-7.29969e-07 3.35679e-05 0.000624366)
(-1.55075e-05 -9.86402e-05 0.000571188)
(7.49603e-05 0.000183112 0.00047167)
(-5.67095e-05 0.000333998 0.000539247)
(-8.53278e-05 8.699e-05 0.000500099)
(1.80613e-05 3.12961e-06 0.000607821)
(-0.00166975 -0.00390624 -0.000886822)
(-5.52996e-05 -0.000219158 0.00013442)
(-0.00105801 -0.000291531 0.000269475)
(-0.000168248 -1.10899e-05 0.000575329)
(0 0 0)
(0 0 0)
(0 0 0)
(0 0 0)
(0 0 0)
(0 0 0)
(0 0 0)
(0 0 0)
(0 0 0)
(0 0 0)
(0 0 0)
(0 0 0)
(0 0 0)
(0 0 0)
(0 0 0)
(0 0 0)
(0 0 0)
(0 0 0)
(0 0 0)
(0 0 0)
(0 0 0)
(0 0 0)
(0 0 0)
(0 0 0)
(0 0 0)
(0 0 0)
(0 0 0)
(0 0 0)
(0 0 0)
(0 0 0)
(0 0 0)
(0 0 0)
(0 0 0)
(0 0 0)
(0 0 0)
(0 0 0)
(0 0 0)
(0 0 0)
(0 0 0)
(0 0 0)
(0 0 0)
(0 0 0)
(0 0 0)
(0 0 0)
(0 0 0)
(0 0 0)
(0 0 0)
(0 0 0)
(0 0 0)
(0 0 0)
(0 0 0)
(0 0 0)
(0 0 0)
(0 0 0)
(0 0 0)
(0 0 0)
(0 0 0)
(0 0 0)
(0 0 0)
(0 0 0)
(0 0 0)
(0 0 0)
(0 0 0)
(0 0 0)
(0 0 0)
(0 0 0)
(0 0 0)
(0 0 0)
)
;
    }
}


// ************************************************************************* //
