/*--------------------------------*- C++ -*----------------------------------*\
| =========                 |                                                 |
| \\      /  F ield         | OpenFOAM: The Open Source CFD Toolbox           |
|  \\    /   O peration     | Version:  2506                                  |
|   \\  /    A nd           | Website:  www.openfoam.com                      |
|    \\/     M anipulation  |                                                 |
\*---------------------------------------------------------------------------*/
FoamFile
{
    version     2.0;
    format      ascii;
    arch        "LSB;label=32;scalar=64";
    class       surfaceScalarField;
    location    "0.02";
    object      phi;
}
// * * * * * * * * * * * * * * * * * * * * * * * * * * * * * * * * * * * * * //

dimensions      [0 3 -1 0 0 0 0];

oriented        oriented;

internalField   nonuniform List<scalar> 
13248
(
-1.12922e-09
-2.21961e-09
1.7122e-08
2.32625e-09
7.41274e-10
-2.44342e-09
-1.44608e-09
2.1274e-08
-1.65285e-09
-1.28121e-09
-4.49849e-10
1.32989e-08
2.86536e-09
-8.41328e-10
-1.24049e-09
1.78417e-08
-3.47742e-10
2.48384e-09
3.03692e-10
1.1024e-08
2.16403e-09
-1.61341e-09
-2.06241e-09
2.35917e-08
-6.49235e-10
4.65306e-10
-6.9142e-10
1.4312e-08
1.03501e-09
-9.98118e-10
1.46587e-08
2.00482e-09
1.63754e-09
-1.66849e-10
-1.33732e-09
1.71736e-08
-1.132e-09
-2.74912e-09
-1.42199e-09
1.94084e-08
-2.36315e-09
-3.30134e-09
1.9197e-08
6.84311e-10
-3.27899e-10
1.27812e-08
-8.64059e-11
-2.5767e-09
2.03878e-08
-1.19554e-10
-1.36414e-09
1.61707e-08
1.10779e-10
-5.09349e-10
1.62643e-08
1.49133e-09
1.29644e-08
1.40112e-09
1.98699e-11
-4.95647e-10
1.63715e-08
-4.03157e-10
-2.02974e-09
1.24877e-09
1.6209e-08
6.55294e-10
1.64653e-09
9.15348e-09
-8.48543e-10
4.12737e-09
1.38328e-08
-1.20633e-10
6.83159e-10
1.2807e-08
7.31017e-10
-1.29147e-09
1.58253e-08
2.36869e-09
6.81854e-10
1.3986e-08
-1.11489e-09
2.21693e-08
-3.95492e-10
2.30276e-09
-1.30059e-09
1.41942e-08
1.0264e-09
-4.28418e-09
-5.83382e-09
3.04004e-08
1.75079e-09
-7.50929e-10
1.31754e-08
-4.45737e-09
-1.81136e-09
2.89456e-08
-1.67419e-09
9.88222e-10
1.36814e-08
1.79039e-09
3.45607e-09
8.53819e-09
-4.73713e-11
3.1822e-09
1.60784e-08
1.84111e-09
1.10975e-08
2.67003e-09
-5.44501e-10
-6.31295e-10
1.51537e-08
1.48217e-09
1.30472e-11
-3.06037e-10
1.06647e-08
9.57975e-10
-2.48423e-11
1.51493e-08
-6.21649e-10
-2.26571e-09
1.88851e-08
5.05364e-10
-1.63827e-10
1.68755e-08
3.12485e-09
-7.91271e-10
1.8375e-08
2.59468e-10
-7.25443e-10
2.35641e-08
9.70265e-10
1.74689e-08
-9.61401e-11
-4.97849e-10
3.94155e-09
1.12196e-08
1.37486e-09
3.5789e-10
1.36784e-09
1.41694e-08
-1.14639e-09
1.31647e-09
1.69453e-08
2.05198e-09
2.13349e-10
1.10825e-08
-2.52654e-10
1.11359e-09
1.78459e-08
1.46127e-09
1.00937e-09
1.33114e-08
1.64011e-09
1.94229e-09
1.38462e-08
1.09692e-09
1.74306e-08
8.72587e-10
-2.79003e-09
-1.45987e-09
2.20827e-08
2.91965e-09
4.38797e-11
3.42755e-10
1.49886e-08
-1.84121e-09
-1.29479e-11
2.00143e-08
2.6812e-09
1.55589e-09
1.09721e-08
2.48883e-10
6.74403e-10
1.97159e-08
2.41299e-09
3.09208e-09
1.25835e-08
5.96742e-10
6.52814e-10
1.97496e-08
1.42254e-09
1.52936e-08
1.75568e-09
-5.43053e-10
1.09727e-08
2.03279e-09
2.85712e-09
3.28854e-10
1.26854e-08
3.5483e-09
-2.52892e-10
1.58712e-08
1.5383e-09
1.11232e-09
1.32238e-08
3.70351e-09
2.5058e-09
1.47841e-08
1.13239e-09
-5.90069e-10
2.42154e-08
-1.1841e-09
1.02318e-09
1.5269e-08
4.92551e-10
1.97835e-08
-4.35619e-10
-1.86606e-11
-1.04426e-09
-1.04291e-09
1.73987e-08
1.94317e-09
-1.32672e-10
-2.02292e-09
-3.43072e-09
2.4698e-08
9.8542e-10
-1.38621e-09
-1.11523e-09
1.37047e-08
7.27216e-11
4.77437e-10
2.50285e-10
1.36459e-08
2.0819e-09
-5.42791e-10
-1.66959e-09
1.42684e-08
-5.54534e-10
1.15995e-09
1.55563e-09
1.91694e-08
1.16392e-09
7.65635e-10
-1.90798e-12
1.35384e-08
1.1698e-09
-5.89261e-10
1.43901e-08
1.10491e-09
5.18561e-10
-2.24147e-09
-5.43634e-10
1.71754e-08
1.7404e-09
-1.71615e-10
2.19172e-09
1.17161e-08
-5.80676e-10
6.0196e-10
1.78889e-08
-1.55514e-09
1.86991e-09
1.2136e-08
3.49881e-09
7.48878e-10
1.29154e-08
-1.80432e-10
1.61031e-10
2.12445e-08
1.98248e-10
8.76431e-10
1.50072e-08
-4.02049e-10
1.14724e-08
1.50303e-09
2.83502e-10
-2.53e-10
1.50454e-08
7.51921e-10
-1.21834e-09
-6.38373e-09
2.62864e-08
7.50066e-10
-1.18115e-09
8.96819e-09
-1.85993e-09
-2.68106e-09
2.09937e-08
1.277e-09
9.08063e-10
9.51087e-09
5.92904e-10
2.90301e-11
1.66413e-08
-9.94075e-10
6.1363e-10
1.58358e-08
2.92247e-09
1.50968e-08
2.75396e-09
-4.75025e-09
-2.28007e-09
1.97396e-08
1.23185e-09
1.81042e-09
5.13554e-09
1.23204e-08
4.96915e-10
2.41253e-09
1.08952e-08
7.66244e-10
1.70391e-10
2.58246e-08
4.02879e-10
-4.79705e-10
1.54327e-08
1.18585e-09
-1.12966e-09
8.91392e-09
1.56206e-09
-2.10058e-09
1.84164e-08
-3.97066e-11
1.61277e-08
-5.06015e-10
2.73386e-09
1.16706e-09
7.47635e-09
1.49634e-09
-1.49415e-09
-1.59445e-09
2.16228e-08
-2.10381e-09
-1.7313e-09
1.99028e-08
7.77847e-11
1.03087e-10
1.6771e-08
-5.63985e-10
1.02639e-09
1.6011e-08
6.45501e-10
1.8062e-09
1.42296e-08
2.14237e-09
1.45179e-09
1.85148e-08
-8.39691e-10
2.11494e-08
-7.38125e-10
-1.37176e-10
-5.62835e-10
1.23455e-08
7.41122e-10
-2.03748e-10
6.53248e-10
1.19883e-08
3.9353e-11
-1.26819e-10
1.50976e-08
9.98498e-10
7.41841e-10
9.48456e-09
-1.0758e-10
-1.8683e-09
2.18466e-08
5.20607e-10
8.10493e-10
1.36789e-08
4.75059e-10
2.69239e-10
1.50743e-08
-1.08567e-10
1.57755e-08
1.39897e-09
1.32952e-09
2.30083e-09
1.63496e-08
1.53995e-09
-1.45307e-09
1.09453e-09
1.73299e-08
9.49279e-10
2.18863e-09
1.52964e-08
-2.11665e-09
9.1829e-11
1.4688e-08
2.78213e-09
3.94228e-09
9.00649e-09
-7.40211e-11
2.27717e-09
1.3973e-08
7.38639e-11
1.12058e-09
1.87504e-08
8.75642e-11
1.38389e-08
1.33243e-09
-4.08846e-10
1.48337e-08
-6.72363e-10
-4.78887e-10
-8.30756e-10
1.55709e-08
-1.36899e-09
-6.83884e-10
1.79782e-08
-6.5307e-11
1.11312e-09
1.11989e-08
3.19745e-10
1.95054e-09
1.8119e-08
-2.30109e-10
-7.51115e-10
2.92303e-08
-3.60255e-11
-5.59731e-10
1.40278e-08
2.17038e-09
1.20472e-08
3.8598e-09
3.40434e-09
-2.09894e-09
-2.38448e-09
2.6908e-08
-4.10783e-09
-9.18129e-10
1.95674e-09
-4.41118e-10
1.94341e-08
1.6493e-09
3.65205e-10
-1.61838e-09
1.85113e-08
-1.59674e-09
-2.61676e-09
-1.40372e-09
1.89448e-08
-9.13285e-10
-1.43297e-09
-2.52345e-10
1.38458e-08
-5.08899e-10
3.43119e-10
-2.32753e-10
1.69676e-08
6.58444e-10
6.78877e-10
1.74516e-10
1.24734e-08
5.54716e-10
1.1868e-09
1.59654e-08
-9.99094e-10
-1.08405e-09
1.56402e-10
9.84476e-11
1.30308e-08
1.50528e-09
5.35166e-10
-2.15447e-09
1.30507e-08
3.78489e-10
-9.32796e-10
1.736e-08
-6.85843e-10
-2.12506e-09
1.39217e-08
-1.16593e-09
9.46072e-11
1.30485e-08
1.11901e-09
1.50479e-09
1.7222e-08
1.46439e-09
-9.83977e-10
1.58204e-08
-1.5409e-09
1.67658e-08
-1.1013e-09
-2.06205e-09
-3.99293e-10
1.74642e-08
1.40998e-10
1.44318e-09
1.50179e-10
2.04765e-08
2.83144e-11
-1.05801e-09
1.05083e-08
9.06082e-10
-4.00212e-09
2.1993e-08
-1.37065e-10
-5.06399e-10
1.1155e-08
-1.19772e-09
1.16534e-09
1.80414e-08
9.51638e-10
-3.70792e-10
1.30732e-08
-1.0796e-09
1.5254e-08
3.33125e-10
-7.70827e-10
2.81435e-09
1.67923e-08
5.04507e-10
-2.46899e-10
1.63954e-09
1.03071e-08
-1.84296e-10
9.03338e-10
8.87122e-09
3.01351e-09
8.35946e-10
1.77887e-08
1.3319e-09
-9.3184e-10
1.75398e-08
-1.73129e-09
-2.17795e-09
1.53204e-08
1.21529e-10
-3.72442e-10
1.65652e-08
7.39653e-10
1.37597e-08
6.70328e-10
-2.8182e-09
-7.88988e-10
1.52363e-08
-1.33839e-09
-1.06129e-09
-2.46181e-10
2.17515e-08
-7.70945e-10
-4.74445e-10
2.09903e-08
1.47846e-10
2.28732e-10
1.64595e-08
-8.92022e-10
1.59122e-09
1.45277e-08
8.32937e-10
7.67124e-10
9.55958e-09
1.64265e-09
-8.54499e-10
1.81871e-08
-1.07577e-09
2.50553e-08
-4.47897e-10
-1.26299e-09
-1.33877e-09
1.57617e-08
-1.60344e-09
-8.46916e-10
-1.11309e-09
1.24391e-08
6.52535e-11
-3.3708e-10
1.40481e-08
1.07295e-09
8.35954e-10
7.86966e-09
-1.7675e-09
-7.98049e-10
2.70763e-08
-9.48127e-10
3.3177e-10
1.32949e-08
9.5565e-10
7.84955e-11
1.22375e-08
1.24538e-09
1.37857e-08
6.24365e-10
-1.50628e-09
8.13301e-10
1.6323e-08
-6.19245e-10
-2.84036e-10
6.41465e-10
1.43531e-08
1.64979e-09
2.75302e-10
1.27502e-08
-6.97148e-10
-9.69936e-10
1.88409e-08
-1.23449e-10
1.10496e-10
7.52423e-09
-1.26373e-09
-1.63128e-09
1.70763e-08
2.03508e-09
1.77876e-09
1.37513e-08
1.94139e-09
1.26628e-08
2.51519e-09
-1.76385e-09
2.06979e-08
7.4649e-11
-3.36178e-09
-5.93084e-10
1.87202e-08
-3.67869e-09
9.07298e-10
1.40647e-08
2.68844e-09
8.56455e-11
9.49104e-09
1.55955e-09
-2.11026e-09
1.98073e-08
6.18115e-10
2.3456e-09
2.05691e-08
2.57405e-09
1.67925e-09
1.53289e-08
1.144e-09
1.54249e-08
-5.5071e-11
2.97914e-10
-1.35334e-09
7.54798e-10
2.66451e-08
-6.83941e-10
1.54539e-09
2.01696e-09
8.97624e-10
1.48225e-08
3.43679e-10
1.46353e-09
1.70796e-09
1.82874e-08
-9.30647e-10
-2.15493e-09
1.83155e-09
2.23541e-08
-1.62236e-09
-5.94792e-10
-4.5872e-11
1.13051e-08
1.02647e-09
9.52682e-10
-6.61152e-10
1.3952e-08
2.12931e-09
-9.99522e-11
9.42137e-11
1.44714e-08
-1.03958e-09
1.22498e-09
1.41027e-08
-7.3493e-11
6.11234e-10
-2.52597e-10
-1.81864e-09
1.78682e-08
-2.01139e-09
1.89612e-09
-2.40775e-09
1.42073e-08
1.16151e-09
-2.56992e-09
2.23725e-08
-3.18324e-09
-4.9689e-09
2.50669e-08
-1.09173e-09
4.4353e-10
1.04676e-08
1.81368e-09
1.0596e-09
1.25959e-08
9.6854e-10
6.84902e-10
1.60748e-08
-3.40514e-10
2.05814e-08
-1.28157e-09
-1.66644e-09
-1.16024e-09
2.01131e-08
-1.64082e-09
1.17e-09
1.52939e-09
1.37029e-08
-1.00206e-09
-1.63469e-10
1.02739e-08
2.19282e-09
-6.38834e-10
1.44681e-08
-3.68561e-10
-1.10109e-09
1.5261e-08
1.09984e-09
2.07303e-09
1.55596e-08
-3.28051e-10
-1.06524e-09
1.62512e-08
4.65456e-10
1.53077e-08
-1.18775e-09
1.28936e-09
3.04774e-09
1.27252e-08
-1.43027e-09
-3.21359e-10
-2.61361e-10
1.37086e-08
-8.24617e-10
2.08748e-09
7.12354e-09
2.0126e-09
2.85275e-09
1.14599e-08
3.03712e-09
2.5527e-09
1.28614e-08
-1.74917e-09
-1.66615e-09
2.38459e-08
1.21752e-09
-1.45881e-09
1.39921e-08
-3.84384e-09
2.11918e-08
-1.90532e-09
-1.49641e-09
1.04712e-09
1.9463e-08
-7.29649e-10
2.29789e-09
3.94311e-10
1.73015e-08
-3.46427e-10
-8.92478e-11
2.58113e-08
1.34534e-09
1.3067e-09
1.63137e-08
-1.52043e-09
-3.07119e-09
2.30175e-08
-8.05493e-10
-5.43514e-10
7.722e-09
-1.34653e-09
4.75439e-10
1.67939e-08
1.60104e-09
1.58275e-08
2.43642e-09
-1.25465e-09
2.45172e-09
1.67312e-08
-1.11937e-09
9.72063e-10
-7.97354e-11
1.06864e-08
9.13509e-10
6.12115e-10
1.34053e-08
-2.9705e-09
-1.22355e-09
1.42839e-08
-1.73398e-13
1.62957e-09
1.94052e-08
3.32737e-10
1.10477e-10
1.2308e-08
-2.06803e-10
-2.23613e-10
1.34761e-08
4.57469e-10
1.47556e-08
-3.31076e-11
-2.75356e-09
-3.01415e-09
2.85276e-08
-3.98517e-09
1.54651e-09
-5.60277e-10
1.05336e-08
-7.76035e-10
-1.6989e-09
1.73838e-08
-1.64223e-10
-3.96702e-10
1.74022e-08
-1.42918e-09
-8.81248e-10
1.13e-08
-1.3571e-10
1.74077e-10
1.57192e-08
3.3252e-10
2.2521e-09
1.08074e-08
2.10877e-10
1.37487e-08
-5.06812e-10
-2.26456e-09
2.22067e-08
-3.73535e-10
-1.88482e-09
4.70167e-10
1.32946e-08
2.13063e-09
4.86562e-10
1.18533e-08
4.96083e-10
-4.45171e-10
1.13843e-08
-1.35828e-09
-6.67216e-10
1.85686e-08
5.79466e-10
2.56911e-09
1.66819e-08
8.24921e-10
-1.73233e-09
2.18832e-08
-7.89861e-13
1.45996e-08
-1.79347e-09
1.09731e-09
4.57227e-10
2.67646e-09
1.81557e-08
2.75994e-09
2.5958e-09
2.4146e-10
5.6605e-10
1.34271e-08
1.04515e-09
3.60729e-10
9.40858e-10
1.60429e-08
1.18442e-09
3.88465e-09
8.37751e-10
1.7851e-08
1.41381e-10
-1.38232e-09
-1.39113e-09
1.61855e-08
1.77768e-09
-4.03602e-10
-8.59804e-10
1.24363e-08
1.39678e-09
3.25494e-10
-9.74651e-10
1.35483e-08
1.16863e-09
-4.11842e-10
1.31413e-08
-3.3245e-10
2.03114e-09
-5.78465e-10
-8.62076e-10
2.42113e-08
-2.22605e-09
2.19474e-10
3.60997e-10
1.36144e-08
-6.81219e-11
8.99002e-10
2.27019e-08
8.42114e-10
1.87793e-09
2.31164e-08
-6.8483e-10
-2.13837e-11
1.06249e-08
6.07626e-11
1.39367e-09
9.5968e-09
1.02483e-09
7.30705e-10
1.34054e-08
-2.81629e-10
1.76657e-08
3.81032e-09
6.37684e-10
-6.98878e-11
1.75712e-08
1.11203e-09
3.69938e-10
9.64185e-10
1.33675e-08
3.33828e-10
7.53148e-10
1.04558e-08
-4.80853e-10
2.38043e-09
1.47803e-08
3.6323e-10
-6.29944e-10
1.50255e-08
-1.27582e-09
-6.82137e-10
1.92745e-08
2.33161e-10
-3.00179e-10
1.57731e-08
1.94989e-09
1.23104e-08
9.98956e-10
1.47297e-09
1.05628e-10
1.00783e-08
9.98423e-10
5.11295e-10
-2.42671e-09
1.80612e-08
8.64394e-10
-3.72849e-09
1.12521e-08
-2.63012e-09
-3.25253e-09
2.05874e-08
7.72222e-10
1.7289e-09
7.10013e-09
-8.39762e-10
4.27585e-09
2.04999e-08
2.26122e-09
1.55959e-09
9.03133e-09
-8.22895e-10
2.60766e-08
1.49232e-10
-9.02088e-10
1.05628e-09
1.91866e-08
2.27791e-10
-6.28667e-11
9.49845e-10
1.30857e-08
1.84271e-09
8.46627e-10
1.93306e-08
1.29349e-09
2.78999e-11
1.35824e-08
3.93867e-09
5.70181e-10
2.1531e-08
-1.90279e-09
-8.85061e-10
1.87244e-08
-7.11685e-10
2.18556e-09
1.49768e-08
2.6686e-09
1.00457e-08
1.57858e-09
-6.11604e-10
3.72497e-09
1.50338e-08
-3.59724e-10
-3.56738e-10
5.85136e-10
1.07963e-08
7.7397e-10
1.32934e-09
1.17919e-08
1.28223e-09
5.19619e-10
1.32839e-08
5.10725e-10
1.09481e-09
1.96521e-08
9.84457e-10
-1.33225e-10
1.10824e-08
7.19434e-10
-4.38621e-10
1.63653e-08
-5.85248e-10
1.91592e-08
-4.30401e-10
-2.36648e-09
-3.61386e-09
4.3566e-08
-5.33309e-09
-4.66313e-10
-4.40956e-10
9.65948e-09
1.78184e-11
-1.86403e-10
1.84154e-08
1.40376e-09
9.12506e-10
1.56233e-08
-4.63827e-10
1.72108e-09
1.25413e-08
4.78653e-10
1.77175e-10
1.44663e-08
3.18077e-10
-1.34717e-09
1.18765e-08
-1.92008e-09
1.67496e-08
-1.34802e-09
-3.76453e-10
1.77703e-08
2.30948e-09
-1.11044e-09
-2.71817e-11
1.23703e-08
1.3404e-10
1.17478e-09
1.06672e-08
-2.02277e-10
3.04364e-09
1.16974e-08
-1.26937e-09
-2.06737e-09
2.7155e-08
-1.7543e-09
-7.42716e-10
1.54304e-08
1.04008e-10
-8.97164e-10
1.79389e-08
2.75159e-09
1.07313e-08
1.28731e-09
-2.36165e-10
-1.93493e-10
-3.41887e-09
2.5658e-08
-1.83412e-09
-2.0558e-09
-1.3202e-09
-4.87222e-10
1.45233e-08
5.17676e-10
-5.44854e-10
-4.71274e-09
1.89666e-08
1.01365e-09
2.55923e-10
-2.19661e-09
1.84395e-08
8.07398e-10
-7.78867e-11
-3.69422e-09
2.04619e-08
-2.48421e-10
-3.33917e-10
-2.32081e-09
1.51209e-08
-1.0781e-10
9.24143e-10
-1.55039e-09
9.93397e-09
3.90669e-09
-2.05062e-09
1.96493e-08
1.53828e-10
-3.68701e-09
2.26943e-09
9.97013e-10
1.64799e-08
1.04601e-09
-4.72136e-09
-4.15513e-10
2.05335e-08
5.51928e-11
2.32662e-09
1.0886e-08
4.17042e-10
3.7817e-10
2.01798e-08
-1.10768e-10
-4.09317e-10
7.86778e-09
1.59295e-10
-1.03656e-09
8.04249e-09
1.64317e-09
-1.88249e-09
1.22536e-08
-1.89516e-10
1.55761e-08
1.8716e-09
8.19245e-10
1.98434e-09
1.61431e-08
-3.78554e-10
-1.24362e-09
1.3966e-09
1.36182e-08
-1.75301e-09
-3.13895e-10
1.36057e-08
-5.35946e-10
4.99575e-10
1.34418e-08
-7.52261e-10
2.23929e-10
1.46085e-08
-1.80783e-09
-5.3896e-10
1.98324e-08
2.54822e-09
1.41687e-09
8.11774e-09
1.32502e-09
1.08073e-08
2.53679e-09
-1.12424e-10
-1.95624e-09
1.74738e-08
-3.34252e-09
-4.56748e-09
-1.66955e-09
2.55824e-08
-2.50618e-09
9.64586e-10
7.9123e-09
-7.42406e-10
2.32523e-09
1.6998e-08
-7.99667e-10
1.42071e-09
5.96059e-09
1.18877e-09
4.04362e-09
1.39288e-08
2.74937e-09
1.74507e-09
7.14253e-09
2.74338e-09
2.63223e-08
1.08531e-09
-3.5895e-10
-1.05967e-09
1.91938e-08
-5.44818e-10
-1.79679e-10
7.09421e-10
1.05275e-08
-7.31749e-10
2.14732e-10
2.06325e-08
5.27075e-10
2.07528e-10
1.44413e-08
-1.91599e-09
-1.01086e-09
2.64057e-08
3.65585e-09
2.04223e-09
1.51539e-08
2.08034e-09
1.17958e-09
1.71178e-08
-1.59347e-10
1.5636e-08
-6.07217e-10
1.69816e-09
2.34749e-09
8.90843e-09
1.02003e-09
-8.9629e-10
2.36327e-10
1.38638e-08
-5.6852e-10
-1.4819e-09
1.31607e-08
-6.90959e-10
1.12172e-09
1.24922e-08
7.54809e-10
3.05448e-09
1.4141e-08
2.4217e-09
2.46778e-09
8.98998e-09
2.51084e-09
1.22463e-09
1.62311e-08
-9.03177e-10
2.27764e-08
-3.62556e-10
2.2715e-09
-2.05556e-09
4.52942e-08
4.03344e-10
-3.02628e-09
-9.80466e-10
1.61741e-08
2.40873e-09
1.17048e-09
1.0328e-08
3.04987e-10
1.26666e-09
1.75821e-08
5.29742e-10
-7.83179e-10
1.61542e-08
1.00329e-09
4.14438e-10
1.60461e-08
9.47988e-11
1.62032e-10
1.38476e-08
-5.45769e-10
1.80961e-08
-1.60912e-09
1.2946e-09
2.03946e-08
-6.0953e-09
1.20775e-10
-1.05587e-09
1.46582e-08
-9.17862e-10
1.21044e-09
1.0514e-08
-9.42565e-10
-3.77036e-09
1.8688e-08
-7.43138e-10
2.68111e-09
1.80915e-08
1.82882e-09
7.34531e-10
1.75705e-08
2.2096e-10
4.09747e-11
2.13285e-08
-2.53401e-09
1.05159e-08
-5.64022e-10
2.7457e-10
1.57099e-09
4.46364e-10
2.11893e-08
-7.2649e-10
3.17779e-09
-2.85663e-11
-4.74128e-10
1.76366e-08
-1.03954e-09
9.37937e-10
9.17516e-10
1.67994e-08
2.82975e-10
-1.21763e-09
-2.72422e-09
1.09407e-08
1.23786e-08
1.95149e-10
1.13531e-09
1.79211e-08
-7.37236e-12
9.80976e-11
-9.38922e-11
1.51951e-08
1.16802e-10
-9.87773e-10
-3.17236e-10
1.22787e-08
-9.41779e-10
4.25639e-10
1.84656e-08
-4.49515e-10
2.19527e-10
3.07481e-10
1.58447e-09
1.64783e-08
-1.44376e-09
1.08545e-09
2.1209e-10
1.9069e-08
1.98881e-09
-7.77269e-10
1.16772e-08
3.29571e-09
-1.06016e-09
1.72088e-08
8.40446e-10
-2.72993e-10
1.17314e-08
5.644e-10
-9.05022e-10
9.12974e-09
-1.58735e-10
5.0864e-11
1.26088e-08
2.87603e-10
1.56479e-08
-9.25592e-11
-2.54553e-09
1.67836e-10
1.44338e-08
5.67139e-09
-4.62097e-10
-3.05254e-09
1.47994e-08
5.7513e-10
-6.96578e-09
1.8757e-08
-7.65589e-11
-1.32383e-09
1.43571e-08
-5.36022e-11
3.25691e-10
1.39869e-08
1.67053e-09
1.89171e-11
1.71844e-08
1.18941e-09
2.05596e-10
8.44421e-09
-1.10324e-09
1.44451e-08
-1.05749e-09
-1.81073e-09
1.50103e-10
1.89669e-08
3.35346e-10
-4.43759e-09
1.10688e-09
2.40496e-08
-2.89191e-09
-6.32951e-09
5.73029e-09
4.94299e-10
-1.03823e-09
1.33262e-08
1.52641e-09
-1.49205e-09
6.74611e-09
3.4726e-09
-2.62738e-10
1.22642e-08
3.69076e-09
3.68996e-10
6.76076e-09
2.70038e-09
2.35758e-08
2.63357e-09
-3.43067e-10
2.02186e-09
1.79214e-08
-2.56032e-10
-2.04729e-09
-2.54522e-12
1.33411e-08
-1.00364e-09
-9.92997e-10
1.42523e-08
-7.47714e-10
-3.19472e-10
1.34664e-08
4.194e-10
4.54391e-09
1.92025e-08
2.42687e-12
-5.3707e-10
1.58449e-08
-1.25912e-10
1.9276e-10
1.74224e-08
-2.03918e-10
1.89083e-08
-4.94119e-10
-6.47637e-09
2.83887e-10
1.09299e-08
6.19274e-09
-1.44913e-09
-1.84036e-09
1.06744e-08
-7.87318e-10
-1.35496e-09
1.28608e-08
-7.05578e-10
-8.84066e-10
1.29749e-08
8.93712e-10
4.83876e-09
1.22467e-08
7.79361e-10
-5.32179e-10
9.0993e-09
-4.24056e-11
7.24348e-10
1.6521e-08
9.04432e-10
2.13447e-08
2.80919e-10
3.98582e-09
1.65277e-09
3.66393e-08
3.30051e-09
-1.50512e-10
-1.26188e-10
1.85961e-08
-1.61822e-09
-1.77808e-09
1.22189e-08
-7.33569e-10
2.29839e-11
1.57903e-08
3.12178e-09
1.17579e-09
1.59619e-08
2.92027e-09
5.45003e-10
1.51702e-08
6.76237e-10
1.15468e-09
1.56611e-08
3.78668e-09
1.6332e-08
-4.42474e-10
3.3496e-10
2.12138e-08
-2.06182e-10
7.05136e-10
-1.49745e-09
1.77934e-08
-1.42873e-09
-3.75042e-09
1.3743e-08
-2.75418e-09
-6.5999e-10
1.54425e-08
1.77876e-10
6.75493e-10
1.67382e-08
1.19367e-09
1.63971e-09
1.65712e-08
5.79906e-10
8.23172e-09
1.72708e-08
-1.38025e-09
1.96503e-08
-1.40303e-09
4.28659e-09
-1.05786e-09
6.72747e-10
1.63128e-08
2.35769e-09
2.90409e-09
4.22976e-10
1.81385e-09
1.66041e-08
-2.26166e-09
9.72609e-10
2.47992e-09
1.505e-08
-1.28036e-09
-1.72588e-10
5.91639e-10
1.1054e-08
4.40602e-10
3.34102e-10
1.88273e-09
1.58847e-08
-3.54186e-10
-2.25806e-11
1.84912e-09
1.41832e-08
-4.80519e-10
-3.31805e-10
2.20019e-09
1.33676e-08
-2.98006e-09
5.55155e-10
1.70754e-08
-7.63155e-10
1.26591e-09
-2.58235e-09
2.77112e-10
1.63925e-08
3.06437e-09
3.35488e-10
8.38794e-10
1.71257e-08
4.97994e-11
9.80352e-10
1.34622e-08
9.61776e-10
1.33172e-09
1.55563e-08
1.12175e-09
1.37587e-09
1.20776e-08
2.14963e-10
9.84532e-10
1.09013e-08
-1.0431e-09
2.86162e-09
1.32051e-08
-6.4376e-10
1.62614e-08
-4.5886e-10
-2.2344e-09
-8.06212e-10
1.53172e-08
2.43415e-09
-4.76475e-10
-8.31481e-10
1.47118e-08
5.61966e-10
2.298e-09
1.64008e-08
6.31075e-10
1.05915e-09
1.45608e-08
1.49149e-09
7.69312e-10
1.37322e-08
3.21413e-09
-1.92096e-10
1.66379e-08
-6.36772e-10
1.20299e-09
1.39535e-08
-1.3293e-09
1.59249e-08
-1.43158e-09
-1.50656e-09
8.40045e-10
1.65277e-08
2.29935e-09
3.21424e-09
1.00802e-09
1.74887e-08
-9.55381e-10
-2.9769e-09
1.51737e-08
1.20348e-09
-6.73238e-10
1.28973e-08
2.4964e-09
-2.43979e-09
8.66367e-09
4.40726e-09
-3.57212e-09
1.37335e-08
-9.45404e-10
-2.6574e-09
1.59742e-08
2.00792e-10
2.06545e-08
4.4606e-10
-1.06811e-09
7.93913e-10
2.00383e-08
-1.00281e-09
-1.56898e-10
-2.81086e-10
1.37192e-08
-4.32026e-10
-1.48728e-09
1.30384e-08
-5.21753e-10
-9.44792e-10
1.38292e-08
6.08157e-10
-3.8457e-10
1.60149e-08
-1.09972e-09
-1.60235e-09
1.55821e-08
-2.41858e-09
-1.94265e-09
1.80252e-08
-4.55311e-10
1.81647e-08
-1.01984e-09
-2.14047e-09
-4.11936e-09
1.85595e-08
-5.75988e-10
-7.70035e-10
-2.44222e-09
1.14644e-08
-3.23726e-10
-1.5499e-09
1.24768e-08
1.05836e-10
-1.8275e-09
1.34283e-08
-7.01005e-10
-1.73976e-09
1.4408e-08
-3.26201e-09
-3.04527e-09
1.31033e-08
-3.43789e-09
-1.25334e-09
1.60078e-08
1.02468e-09
1.75693e-08
-1.14257e-09
1.14875e-09
1.734e-09
2.5701e-08
3.93581e-09
8.2516e-10
-5.50758e-10
1.70278e-08
-7.94663e-10
-1.43219e-09
1.37204e-08
-4.79306e-10
-1.03367e-09
1.46814e-08
-8.86215e-10
-1.24263e-09
1.5871e-08
-1.74449e-09
-1.62376e-09
1.4607e-08
-1.27795e-09
-5.55944e-10
1.44972e-08
1.22548e-09
1.58249e-08
-9.71793e-10
-5.35132e-10
2.02978e-08
1.24623e-09
1.93894e-09
-9.08787e-10
1.80527e-08
-4.36619e-10
-1.85647e-09
1.42297e-08
-9.71663e-10
-1.22489e-09
1.37133e-08
6.40994e-11
-1.76162e-09
1.6234e-08
-2.02362e-10
-1.90483e-09
1.55427e-08
-4.52197e-10
-1.72785e-10
1.5684e-08
-7.01602e-10
2.11352e-08
-3.35709e-10
-9.66522e-11
1.16927e-09
1.65348e-09
1.68376e-08
-1.33453e-09
-2.01319e-09
1.80147e-09
1.70048e-09
1.69209e-08
-2.64942e-09
1.58244e-09
1.61582e-09
1.60319e-08
-2.3788e-09
-1.5856e-10
7.39316e-10
1.48383e-08
-2.78267e-09
6.60264e-11
2.29085e-09
1.59319e-08
-2.56319e-09
-5.03116e-10
1.47625e-09
1.52717e-08
-1.99558e-09
-1.96433e-09
6.8989e-10
1.53142e-08
-1.17556e-09
3.35794e-10
1.64989e-08
-1.07696e-10
-1.61622e-09
4.66965e-10
6.18285e-10
1.64856e-08
4.74943e-10
1.56639e-09
1.04877e-09
1.6678e-08
8.86004e-10
3.49714e-10
1.54085e-08
1.0742e-09
6.31063e-10
1.54761e-08
1.13176e-10
7.62619e-10
1.45663e-08
-1.3557e-09
-5.13841e-10
1.43601e-08
-2.48157e-09
-2.11772e-10
1.52325e-08
-2.3073e-10
1.64221e-08
-2.0765e-09
8.63797e-10
-3.70944e-10
1.62503e-08
-8.07506e-10
6.6146e-10
1.28634e-10
1.58343e-08
1.08132e-09
6.16038e-10
1.57147e-08
3.12763e-10
7.67733e-10
1.51933e-08
-7.24009e-10
5.96647e-10
1.49337e-08
-3.49854e-10
-2.19359e-10
1.59688e-08
-1.67068e-09
-8.77097e-10
1.59393e-08
-1.18242e-09
1.64512e-08
-1.24554e-09
7.2299e-10
-1.29768e-09
1.64675e-08
2.6383e-10
1.59484e-09
5.02117e-10
1.62433e-08
1.53248e-09
4.61605e-10
1.53903e-08
8.89179e-10
-2.02059e-10
1.45104e-08
-1.45567e-09
-1.76365e-09
1.3368e-08
-1.71558e-09
-1.25194e-09
1.50253e-08
-2.09865e-09
-9.12884e-10
1.63931e-08
-8.33177e-11
1.76567e-08
-1.99837e-10
3.05745e-09
-6.77563e-10
1.79994e-08
-1.63898e-09
1.73889e-09
-1.06088e-10
1.56461e-08
4.08801e-10
-9.8194e-11
1.49281e-08
-6.32915e-10
-2.83528e-10
1.49517e-08
-1.01841e-09
-7.18448e-10
1.53552e-08
-1.79178e-09
-4.22501e-10
1.55262e-08
-1.375e-09
-1.47674e-10
1.68425e-08
-2.33122e-10
1.73432e-08
-4.04058e-10
3.59658e-09
-1.33248e-09
1.80323e-08
-2.4147e-09
1.58272e-09
-1.83075e-09
1.52025e-08
2.25482e-10
-1.05762e-09
1.47933e-08
-6.78373e-10
-8.28173e-10
1.48765e-08
-1.04214e-09
-1.10512e-09
1.51583e-08
-2.19265e-09
-1.07403e-09
1.49055e-08
-2.04871e-09
-4.37825e-10
1.61543e-08
-6.89627e-10
1.71318e-08
-1.15475e-09
3.25081e-09
9.04846e-10
1.9855e-08
3.57503e-10
2.38969e-09
-1.00698e-09
1.70648e-08
4.42165e-10
-9.36161e-10
1.55463e-08
-7.87806e-10
-4.70092e-10
1.55531e-08
-9.82276e-10
-1.0395e-09
1.59994e-08
-1.72458e-09
-1.28916e-09
1.55647e-08
-2.18172e-09
-1.38712e-09
1.59037e-08
-2.01298e-09
1.68993e-08
-1.93289e-09
1.69715e-09
1.82933e-08
1.02436e-09
1.87276e-10
2.02949e-09
1.73266e-08
-6.13739e-10
5.0143e-10
1.57563e-08
-9.34951e-10
-1.37128e-09
1.55307e-08
-4.14665e-10
-1.54544e-09
1.64819e-08
-1.11396e-09
-2.3274e-09
1.63791e-08
-1.3436e-09
-3.18893e-09
1.69137e-08
-1.75535e-09
1.87922e-08
-1.3205e-09
-1.53865e-09
1.4462e-10
1.07182e-09
1.68727e-08
1.40977e-10
-1.39256e-09
6.6209e-10
1.154e-09
1.67961e-08
-1.54639e-09
6.56858e-10
1.16786e-09
1.6414e-08
-1.54475e-09
1.92954e-10
9.74304e-10
1.60849e-08
-1.75714e-09
2.07543e-10
1.32168e-09
1.62459e-08
-1.65051e-09
-1.33352e-10
8.39403e-10
1.60352e-08
-1.26216e-09
-6.18786e-10
2.36319e-10
1.60989e-08
-5.35756e-10
-1.21154e-10
1.64668e-08
1.26629e-10
-5.92256e-10
5.76461e-11
4.0323e-10
1.6522e-08
5.7489e-10
6.36658e-10
7.39192e-10
1.65139e-08
5.06911e-10
5.99732e-10
1.61063e-08
3.73183e-10
6.35464e-10
1.59484e-08
-6.97686e-11
5.78531e-10
1.57524e-08
-6.82874e-10
6.68188e-11
1.57455e-08
-1.07283e-09
-2.32027e-10
1.60907e-08
-3.28576e-10
1.64963e-08
-9.39845e-10
4.32284e-10
-8.9513e-11
1.6473e-08
-1.62167e-10
5.48914e-10
2.1656e-10
1.62404e-08
4.70585e-10
3.85404e-10
1.60073e-08
5.02093e-11
4.22121e-10
1.58269e-08
-5.55071e-10
3.48472e-10
1.57691e-08
-6.71738e-10
4.67761e-12
1.61472e-08
-1.02458e-09
-3.66112e-10
1.64261e-08
-6.16857e-10
1.66126e-08
-8.97546e-10
5.15674e-10
-6.70413e-10
1.65028e-08
2.99133e-11
7.78477e-10
-3.59881e-11
1.62327e-08
6.32708e-10
3.66888e-11
1.58843e-08
1.51262e-10
-1.72661e-10
1.55853e-08
-8.82943e-10
-6.01512e-10
1.53532e-08
-1.29329e-09
-4.43996e-10
1.58836e-08
-1.32923e-09
-4.53377e-10
1.65157e-08
-4.15565e-10
1.6889e-08
-7.63009e-10
1.28344e-09
-5.22584e-10
1.70782e-08
-5.10019e-10
9.48957e-10
-3.05977e-10
1.62508e-08
3.4827e-10
-2.74928e-10
1.58407e-08
-2.40495e-10
-3.63289e-10
1.5732e-08
-7.41316e-10
-5.6154e-10
1.58147e-08
-1.27957e-09
-4.10535e-10
1.60312e-08
-1.19509e-09
-3.126e-10
1.66174e-08
-4.28509e-10
1.69331e-08
-7.72027e-10
1.53706e-09
-4.78537e-10
1.7272e-08
-8.20979e-10
9.60663e-10
-7.86684e-10
1.62596e-08
2.87197e-10
-6.6144e-10
1.5853e-08
-2.9659e-10
-6.75146e-10
1.57715e-08
-6.98886e-10
-8.72426e-10
1.58716e-08
-1.32998e-09
-7.97411e-10
1.59235e-08
-1.39378e-09
-5.33197e-10
1.64386e-08
-5.33101e-10
1.69062e-08
-1.06374e-09
1.21569e-09
4.56585e-10
1.76782e-08
2.61023e-11
1.07147e-09
-3.75421e-10
1.67978e-08
2.7812e-10
-5.14666e-10
1.61928e-08
-3.85013e-10
-5.36939e-10
1.60774e-08
-6.42498e-10
-8.60945e-10
1.62454e-08
-1.12854e-09
-9.47046e-10
1.62003e-08
-1.36232e-09
-8.77448e-10
1.64817e-08
-8.21713e-10
1.69815e-08
-1.15615e-09
4.99696e-10
1.72774e-08
6.27729e-10
3.44978e-10
7.52612e-10
1.68882e-08
-1.89918e-10
1.04491e-10
1.63417e-08
-4.51959e-10
-6.84491e-10
1.62192e-08
-4.37071e-10
-8.34798e-10
1.65688e-08
-7.97599e-10
-1.20212e-09
1.66187e-08
-8.19695e-10
-1.39239e-09
1.69544e-08
-7.2809e-10
1.75922e-08
-3.35909e-10
-6.78398e-10
2.00567e-10
8.20701e-10
1.68717e-08
1.27796e-12
-1.02153e-09
3.67488e-10
7.74601e-10
1.67928e-08
-9.38131e-10
3.15582e-10
7.35447e-10
1.66257e-08
-8.9518e-10
1.36236e-10
6.72295e-10
1.65057e-08
-9.13899e-10
6.02137e-11
6.66746e-10
1.64991e-08
-8.43982e-10
-1.28051e-10
4.31356e-10
1.64314e-08
-6.39502e-10
-3.60437e-10
1.45918e-10
1.64637e-08
-2.78508e-10
4.82808e-12
1.65971e-08
-6.1484e-11
-4.34147e-10
1.19594e-10
4.07967e-10
1.6639e-08
1.76229e-10
3.15915e-10
4.96402e-10
1.65959e-08
2.50563e-10
4.67366e-10
1.64398e-08
9.793e-11
4.32004e-10
1.63411e-08
-1.23306e-10
3.53682e-10
1.62868e-08
-3.7763e-10
1.22987e-10
1.63079e-08
-5.25357e-10
-6.51136e-11
1.64493e-08
-1.30895e-10
1.66116e-08
-5.05056e-10
2.53502e-10
9.29105e-11
1.65898e-08
-5.51997e-11
3.06815e-10
2.12024e-10
1.64715e-08
1.92148e-10
2.52149e-10
1.63373e-08
-4.60213e-11
2.44256e-10
1.62523e-08
-3.44005e-10
1.79177e-10
1.62421e-08
-4.9162e-10
3.55564e-11
1.63818e-08
-5.58858e-10
-1.25571e-10
1.65537e-08
-2.41084e-10
1.66706e-08
-5.06627e-10
2.88477e-10
-2.43957e-10
1.65728e-08
-2.15837e-11
3.52676e-10
-5.04008e-11
1.64307e-08
2.16873e-10
-2.24964e-12
1.62739e-08
-6.1453e-11
-5.58424e-11
1.61601e-08
-4.80392e-10
-1.69869e-10
1.61247e-08
-7.07768e-10
-1.63778e-10
1.63107e-08
-6.93554e-10
-2.05126e-10
1.65811e-08
-2.65563e-10
1.67556e-08
-5.35877e-10
5.21175e-10
-2.75541e-10
1.67823e-08
-1.93857e-10
4.34709e-10
-1.99671e-10
1.64867e-08
1.58977e-10
-1.75502e-10
1.62903e-08
-1.64029e-10
-2.10056e-10
1.62128e-08
-4.75682e-10
-2.86721e-10
1.62395e-08
-7.28277e-10
-2.49848e-10
1.63693e-08
-7.10088e-10
-2.35506e-10
1.66293e-08
-3.09188e-10
1.68124e-08
-5.45671e-10
6.12634e-10
-2.28504e-10
1.6903e-08
-2.90667e-10
4.60489e-10
-3.3448e-10
1.65464e-08
1.39796e-10
-3.33759e-10
1.63316e-08
-1.95531e-10
-3.64724e-10
1.62618e-08
-4.63643e-10
-4.51989e-10
1.63045e-08
-7.44284e-10
-4.31616e-10
1.63858e-08
-7.92316e-10
-3.71206e-10
1.66222e-08
-3.90223e-10
1.68546e-08
-6.59848e-10
4.90594e-10
1.35715e-11
1.7011e-08
-6.54487e-11
4.43626e-10
-2.06143e-10
1.67164e-08
1.10508e-10
-2.84642e-10
1.64767e-08
-2.43398e-10
-3.38112e-10
1.64046e-08
-4.52367e-10
-4.7274e-10
1.6475e-08
-7.00185e-10
-5.07894e-10
1.65243e-08
-8.05296e-10
-4.88457e-10
1.67039e-08
-4.62842e-10
1.6951e-08
-7.02412e-10
2.63607e-10
1.69107e-08
9.67775e-11
1.98049e-11
3.07762e-10
1.67603e-08
-1.22449e-10
8.06246e-12
1.65615e-08
-2.04826e-10
-3.63985e-10
1.65065e-08
-2.53683e-10
-5.20491e-10
1.66446e-08
-3.92159e-10
-7.18825e-10
1.67206e-08
-4.11638e-10
-7.90926e-10
1.69097e-08
-3.71843e-10
1.71623e-08
-2.6911e-10
-5.54956e-10
6.803e-11
4.66864e-10
1.68269e-08
6.16925e-11
-5.5179e-10
1.47634e-10
4.48499e-10
1.67829e-08
-5.18155e-10
1.34398e-10
4.29796e-10
1.67114e-08
-5.02197e-10
7.35233e-11
3.98845e-10
1.66576e-08
-4.89666e-10
2.31164e-11
3.53207e-10
1.66373e-08
-4.41144e-10
-6.28621e-11
2.35064e-10
1.66129e-08
-3.30597e-10
-1.61982e-10
9.03227e-11
1.66256e-08
-1.53144e-10
-1.44331e-12
1.6678e-08
-3.94148e-11
-2.02057e-10
4.68546e-11
2.67513e-10
1.66946e-08
9.70191e-11
1.25146e-10
3.00039e-10
1.66663e-08
9.98583e-11
2.94204e-10
1.66008e-08
1.97379e-11
2.6623e-10
1.6554e-08
-8.49312e-11
2.10069e-10
1.65344e-08
-1.93049e-10
1.01356e-10
1.65497e-08
-2.57439e-10
-6.30417e-12
1.66104e-08
-7.12256e-11
1.66831e-08
-2.59097e-10
9.8304e-11
1.06313e-10
1.66511e-08
1.6163e-12
1.2551e-10
1.47206e-10
1.65973e-08
6.64239e-11
1.56928e-10
1.65338e-08
-5.05463e-11
1.41207e-10
1.64944e-08
-1.89756e-10
9.68732e-11
1.64944e-08
-2.81781e-10
2.29933e-11
1.6552e-08
-3.13747e-10
-5.88763e-11
1.66381e-08
-1.25788e-10
1.67099e-08
-2.98581e-10