/*--------------------------------*- C++ -*----------------------------------*\
| =========                 |                                                 |
| \\      /  F ield         | OpenFOAM: The Open Source CFD Toolbox           |
|  \\    /   O peration     | Version:  2506                                  |
|   \\  /    A nd           | Website:  www.openfoam.com                      |
|    \\/     M anipulation  |                                                 |
\*---------------------------------------------------------------------------*/
FoamFile
{
    version     2.0;
    format      ascii;
    arch        "LSB;label=32;scalar=64";
    class       volVectorField;
    location    "0.02";
    object      U;
}
// * * * * * * * * * * * * * * * * * * * * * * * * * * * * * * * * * * * * * //

dimensions      [0 1 -1 0 0 0 0];

internalField   nonuniform List<vector> 
4608
(
(-0.00131493 -0.000998362 0.00790858)
(-0.000946893 0.000218077 0.00645906)
(-0.000979394 -0.000609547 0.00647122)
(-0.000701154 -0.000274372 0.0100121)
(0.000327103 -0.000393332 0.00599702)
(0.000297389 -0.000513973 0.0105184)
(-0.000180133 -0.000478043 0.00653208)
(0.000755268 -0.00111806 0.00726194)
(0.000339272 -0.000948949 0.00687298)
(-0.000765263 -0.00100235 0.0101009)
(-0.00149961 -0.00145463 0.00866091)
(-0.000369707 -0.000363658 0.00632798)
(0.000197744 -0.000698839 0.0111087)
(-1.89238e-05 -0.000642522 0.00556275)
(-2.44974e-05 -0.000396171 0.00744245)
(0.000433736 2.32362e-05 0.00641401)
(0.000120287 -0.00053611 0.00669033)
(-0.00061132 -8.63685e-05 0.00493325)
(-0.000469093 -0.000176748 0.0052706)
(2.70008e-05 0.000530126 0.00730986)
(-0.000332775 -0.000305953 0.00748356)
(0.000215654 -0.000966861 0.00862013)
(0.000600801 0.000134015 0.00596668)
(0.000656348 -6.25155e-05 0.0113523)
(2.56316e-05 -0.000393922 0.00563808)
(-0.0006349 -0.00186284 0.0152702)
(-0.000233669 0.000261143 0.00640503)
(-0.000984462 0.000851776 0.0139826)
(-0.00124118 0.000444912 0.00650175)
(0.000166907 0.000434456 0.00487368)
(0.000508148 0.000575446 0.00463993)
(0.00031625 0.00017951 0.00189767)
(-0.000737574 -0.000659628 0.00850128)
(-7.39074e-05 -0.000455606 0.00353561)
(0.000166992 -0.000167128 0.00329483)
(0.000227053 -0.00120157 0.00781464)
(-6.20552e-05 0.000280634 0.00712234)
(0.000734889 0.00101966 0.0079137)
(0.001159 0.000979617 0.0119861)
(-5.37997e-05 0.00101472 0.00957214)
(-0.000633186 0.000523061 0.00600443)
(-6.24401e-05 0.0002561 0.00739377)
(-0.000299809 0.000332161 0.00740524)
(2.98007e-05 -0.000360899 0.00424561)
(0.000743409 0.000186446 0.0103539)
(0.000344277 7.30588e-05 0.00551333)
(0.00089563 0.000347645 0.00605617)
(0.000762154 0.000624601 0.00773632)
(-0.00200918 0.00084628 0.0114701)
(-0.000510344 0.000453287 0.00577991)
(-0.000653643 0.00037855 0.00835737)
(7.81877e-06 0.000313364 0.00414446)
(0.00111563 0.000555691 0.0105825)
(0.000676427 0.00134381 0.00588293)
(0.000933005 0.000868292 0.00718426)
(0.00054859 0.000619799 0.00759516)
(-0.00103538 0.000216638 0.00521034)
(-5.17134e-05 0.0016286 0.00556059)
(3.47941e-05 0.000395241 0.00535815)
(0.000295515 0.00146028 0.00793377)
(0.00100464 0.000362869 0.00529253)
(0.000661449 0.000642852 0.00506525)
(-4.97779e-05 0.000256803 0.00625961)
(0.000385736 0.00025143 0.0114819)
(-0.000419998 -0.000275067 0.0117271)
(-0.00119369 -0.00186657 0.0201774)
(-0.000884033 -0.00035393 0.00994556)
(-0.000241289 -0.000458076 0.00799323)
(4.81369e-05 -0.000375528 0.00751215)
(0.000189466 -1.87295e-05 0.0147915)
(0.00055199 -0.000528603 0.0107823)
(0.000374675 -0.000509213 0.0100463)
(-0.00154204 -0.000506398 0.0139717)
(-0.000600692 -0.000157348 0.00944918)
(-0.000290342 -0.000133313 0.0134176)
(-0.000695046 0.000777417 0.00968266)
(0.000250848 -0.000322738 0.00870891)
(0.00132803 0.000495892 0.015566)
(6.00699e-06 0.000309494 0.0118954)
(0.000496004 -0.000310251 0.00984389)
(-0.000275107 -0.000229981 0.01327)
(-0.000463796 -0.0013496 0.0162951)
(1.52609e-05 -0.000185426 0.0063566)
(-0.000446372 -4.18015e-05 0.00837094)
(-0.000163137 0.00046731 0.00670822)
(0.00073428 9.35048e-05 0.00841746)
(-0.000148908 0.000414846 0.0118099)
(0.000569194 0.000626179 0.0111429)
(-0.00189978 -0.000994322 0.0124351)
(-0.000800409 4.02902e-05 0.0114951)
(0.00065126 -2.01217e-05 0.00964275)
(0.000448595 -0.00103014 0.0130604)
(0.000361384 0.000247239 0.0105432)
(0.000342386 -0.000226515 0.00655244)
(0.000999413 -0.000574456 0.0173125)
(0.000264092 0.00103584 0.0147966)
(0.000152499 -0.000124131 0.00820228)
(0.000740918 0.00102064 0.0121983)
(-0.00121077 0.000350725 0.018976)
(-0.000506897 0.000107165 0.0149651)
(-0.000136768 0.000293428 0.013539)
(3.49463e-05 7.27386e-05 0.0137607)
(0.000990383 -3.08608e-05 0.0102884)
(0.000389789 -0.000315206 0.00755306)
(-0.00024938 0.00026681 0.00794093)
(-0.000122311 -0.000304821 0.00912436)
(-5.81496e-05 -0.000462128 0.0130545)
(0.000412362 0.00025596 0.0115611)
(0.00024294 -0.000364402 0.006576)
(8.47877e-05 0.000804373 0.0116226)
(0.000330307 0.000568991 0.0110482)
(0.000497055 -0.0003067 0.0117345)
(-6.53212e-05 0.000564988 0.0101535)
(5.76668e-05 0.000629999 0.013289)
(-0.000120383 0.000613792 0.0148242)
(-0.000524283 0.000271667 0.0116621)
(0.000236423 0.000181213 0.00883481)
(0.000961862 0.000556193 0.00963904)
(-1.29748e-05 0.000412249 0.0163965)
(0.000656135 -6.62849e-06 0.0095208)
(-2.23083e-05 0.000516106 0.00928914)
(-0.000366587 0.000174636 0.0108971)
(-0.000600099 0.000620717 0.0154225)
(8.07029e-05 0.000137386 0.00596207)
(0.000844437 0.00145599 0.0141153)
(0.000423154 0.000928701 0.0256004)
(-0.000354369 0.000864316 0.012445)
(0.000636796 0.00103363 0.00661612)
(0.00064491 -0.000292288 0.0143132)
(2.19067e-05 -0.000728081 0.0145572)
(0.000640946 4.16279e-05 0.0113348)
(-0.000597757 -0.000252299 0.0128842)
(-0.00136678 0.000196424 0.0150747)
(-0.000269497 -0.000287603 0.0131047)
(0.000265026 -8.63572e-05 0.0111698)
(-0.000353443 0.000931913 0.0132646)
(-0.000391431 -0.000630734 0.0127682)
(0.000190619 -0.000463955 0.00940138)
(0.000338699 -0.000906186 0.0135688)
(-0.000109239 -0.000737844 0.0103008)
(-0.00052893 -3.17696e-05 0.0112628)
(-2.43662e-05 0.000324986 0.0157515)
(0.00082969 -0.000246512 0.011763)
(0.000171102 -0.000132727 0.0089937)
(-0.000393017 -7.34943e-05 0.0101945)
(-0.000247697 -0.000813886 0.021766)
(0.000272228 -0.000640283 0.00978341)
(0.000338129 -0.00194559 0.0224945)
(0.000149558 -0.000117378 0.00961977)
(-0.000466538 0.000920205 0.0176155)
(7.71688e-06 -0.000449665 0.0142817)
(0.000395376 -0.000906139 0.0125272)
(-0.000499089 0.00124981 0.0168499)
(-0.000150687 0.000254798 0.00679257)
(-0.00013459 -8.3985e-05 0.00866825)
(0.000956643 -0.0007169 0.0228806)
(0.00112052 -0.000502072 0.0138332)
(-0.000128388 -0.000521388 0.00964303)
(-0.000582583 -0.000190533 0.0117129)
(0.000165943 -0.000243441 0.012166)
(2.06984e-07 0.000175544 0.0043692)
(-0.0018101 0.000637573 0.0200521)
(-0.00045614 0.000185581 0.0110322)
(-0.000202575 0.000270674 0.0106326)
(-0.000285437 9.19417e-07 0.0118013)
(-0.000110019 -0.000507987 0.00870922)
(0.000715925 -0.000409862 0.0174405)
(0.000298597 -8.71622e-05 0.0230791)
(0.000139669 -0.000796272 0.0121833)
(-0.000667151 -0.00035209 0.0107643)
(-0.000245189 -0.000282092 0.010967)
(0.000111361 0.000207061 0.004709)
(-0.000181682 0.000268365 0.0249486)
(-0.000559389 0.000377562 0.0108755)
(-4.42221e-05 -0.000193782 0.0139499)
(0.000482284 0.000186332 0.0131231)
(-0.000217866 -0.000169049 0.0153488)
(-0.000593443 -0.000190364 0.0139678)
(0.000416624 -1.32132e-05 0.00884685)
(0.000319254 0.000124734 0.0120053)
(-0.000192946 -7.41116e-05 0.00630221)
(-0.000467693 -0.000323376 0.0132676)
(0.000262251 0.00064961 0.0124182)
(0.00118629 0.000967525 0.0127149)
(0.000286763 0.000339287 0.0148599)
(-0.000722809 -0.0013761 0.0145168)
(0.000125578 0.000956805 0.0128027)
(0.00032135 4.44257e-06 0.0132705)
(-0.000552939 0.000273338 0.014085)
(0.000198966 0.000407653 0.0162147)
(0.00102396 0.000791883 0.0101434)
(0.000709254 0.000646297 0.0125499)
(-0.000236291 -0.000361541 0.0250577)
(0.000243157 0.000200011 0.0158419)
(0.00103117 0.000892767 0.0181763)
(-0.000457899 0.00109539 0.0174729)
(-0.000563526 -0.000451306 0.00958555)
(0.000100819 -0.00102343 0.015023)
(0.000254128 0.000347594 0.0103268)
(0.000153446 0.000287038 0.0134953)
(0.000248 -0.000261561 0.00912576)
(0.000453183 -0.000651835 0.0128349)
(0.000963521 -0.000560731 0.0139872)
(-0.000670907 -0.001182 0.0124068)
(-0.0013149 0.000145881 0.0121519)
(0.000174397 0.000146082 0.0121762)
(0.00083574 0.000328064 0.0140262)
(-8.66237e-05 0.000291528 0.0181496)
(1.11928e-05 -0.00115003 0.0178621)
(5.13108e-05 -0.000206319 0.00980303)
(0.0001113 -0.000711713 0.00953412)
(0.000359493 -0.00178636 0.0118275)
(0.000573712 -0.000160898 0.0106862)
(0.000331701 0.00085052 0.0120407)
(0.000199924 -9.23663e-05 0.00708951)
(-0.000538486 8.6779e-05 0.012825)
(0.000773943 0.000332168 0.0108635)
(0.000299863 0.000490017 0.0122842)
(-0.000487597 0.000292457 0.00851247)
(0.000105067 0.000290856 0.00540819)
(0.00180376 0.00048334 0.0149527)
(0.000418246 7.88162e-05 0.0153111)
(-7.57086e-05 -0.000959788 0.0145406)
(-0.000200286 -0.000791818 0.0100383)
(-0.000254619 0.00149763 0.02016)
(0.000216171 3.08996e-05 0.0134104)
(0.000651036 0.00085101 0.0196538)
(0.000393334 0.00190744 0.0154544)
(-0.000234321 -0.00010064 0.0118456)
(-0.000662088 -0.000543317 0.009193)
(-0.000671233 -0.00017817 0.0120067)
(0.000478964 -0.000855563 0.0150812)
(-3.60538e-05 0.00112419 0.0143804)
(-3.26417e-05 9.96895e-05 0.0111293)
(0.000648403 0.000171395 0.0121039)
(-0.000407261 3.29331e-05 0.00951074)
(-0.00119631 -0.000403513 0.0161693)
(0.000193402 -0.000177957 0.0121918)
(2.38752e-05 4.92114e-05 0.0066178)
(-0.00010145 0.000558673 0.0105503)
(5.59173e-05 -6.30243e-05 0.010635)
(-0.000407017 -0.000168209 0.0100771)
(0.000355682 -0.000392027 0.0121565)
(-0.000353174 -0.000671904 0.0179839)
(-0.000361748 0.000155114 0.00856825)
(-0.000618696 0.000105814 0.0149104)
(6.41185e-05 0.000476232 0.0108143)
(3.66003e-05 0.000232222 0.00975598)
(0.000357763 -0.00129624 0.017179)
(-0.000470697 0.000626096 0.0155509)
(0.000380206 -0.000410239 0.010642)
(4.93533e-05 -0.000256482 0.00336636)
(-0.000476075 -0.000169685 0.0178946)
(0.000596427 0.000355812 0.0148984)
(0.000280636 0.000822989 0.0144628)
(-0.000277089 -0.000757597 0.0140358)
(-0.00109929 -0.000225611 0.0153991)
(0.00017129 -0.000244732 0.00894554)
(0.000169648 -0.000269654 0.0111179)
(0.00165064 0.000127147 0.017222)
(0.000283818 -0.00112941 0.00938181)
(-0.000544649 -0.000512402 0.0081848)
(-4.14849e-05 -0.000796183 0.0139045)
(0.000553364 -5.586e-05 0.0100315)
(0.000494111 0.00056239 0.0189087)
(-8.75773e-05 0.000340344 0.0117039)
(7.40452e-05 0.000755427 0.0202621)
(0.000339091 0.00100473 0.024785)
(-0.000106307 -0.000380883 0.00607101)
(-0.000285349 6.79282e-05 0.00922063)
(0.000308159 -0.000116331 0.0124191)
(0.00158673 -0.000257104 0.0136604)
(-0.000298169 -0.000207476 0.0133439)
(0.000321545 0.000441304 0.0128688)
(0.000228487 0.000493575 0.00866006)
(1.29101e-05 0.0010139 0.0107167)
(-8.14814e-05 -0.000275747 0.0138112)
(-0.00017687 0.000367353 0.0122965)
(-0.000365387 0.000140799 0.0177144)
(0.000396248 0.000325104 0.0128022)
(5.60116e-05 3.78402e-05 0.011135)
(0.000716297 -0.000335707 0.0110459)
(0.000299105 -0.000208604 0.00502702)
(-0.000742431 -0.000228391 0.0119679)
(-0.00047833 5.46101e-05 0.00643292)
(-3.76995e-05 0.00177534 0.0197708)
(0.000244289 0.000317282 0.00922402)
(0.000935761 0.000353747 0.0222094)
(-0.000382123 0.000289086 0.00938161)
(-0.000380915 -0.000456331 0.0149401)
(0.00067703 -0.00142788 0.0204769)
(0.000630462 -0.00103808 0.0116003)
(0.00228352 0.000986357 0.0229879)
(8.0423e-05 0.000190948 0.0049611)
(-0.00121701 0.001245 0.0144672)
(0.000374786 0.000593125 0.00994324)
(-9.18835e-05 0.000992129 0.0126631)
(-0.000278344 0.000403518 0.00811835)
(2.66764e-05 0.000466152 0.0115705)
(0.000742541 0.000229545 0.0149041)
(0.000524069 0.000487901 0.0128719)
(0.000338858 -0.000443029 0.00827066)
(0.000648165 0.000514337 0.014651)
(4.97629e-05 0.00082843 0.0128765)
(0.00124154 0.000173856 0.0300232)
(-0.00037105 1.82936e-05 0.00896587)
(-0.000194478 0.000418644 0.0160769)
(0.000444767 0.000329558 0.0102849)
(0.000319144 0.000933105 0.0110255)
(4.82589e-05 1.68755e-06 0.0104579)
(0.000197005 -0.000374875 0.00814675)
(-0.000269358 -0.000893702 0.0125723)
(0.000387805 0.000113783 0.0166535)
(-9.79522e-05 -0.000134628 0.00669625)
(0.000276227 -0.000105572 0.010022)
(0.00161957 -0.000198831 0.0155256)
(0.000121412 1.60645e-05 0.00944402)
(-0.000929772 9.10355e-05 0.0119574)
(-0.000635814 0.000146841 0.019987)
(-0.000179712 -1.4877e-06 0.00978825)
(0.000274321 -1.71062e-05 0.00707383)
(-0.000441977 -0.00031451 0.00754092)
(-0.000698718 -0.00165355 0.00851683)
(8.58243e-06 -0.00104828 0.00594271)
(4.75203e-05 -0.00117473 0.0101725)
(-0.000142795 -0.000834224 0.00814401)
(0.000141438 -0.00114555 0.00564375)
(-0.000218041 -0.000537897 0.00726984)
(0.000323923 -0.000934498 0.0104005)
(-0.000634963 -0.000255602 0.00641271)
(-0.00173481 -0.000584247 0.00941022)
(0.000125501 -0.000650767 0.00549334)
(0.000132551 -0.000991851 0.00822336)
(-6.67063e-06 -0.000757775 0.005695)
(0.00049177 -0.00120389 0.00666512)
(0.000833726 -0.000749479 0.00907074)
(0.000412711 0.00118204 0.00872327)
(-0.000167982 0.000158507 0.00599987)
(-0.000804297 0.000476294 0.00636759)
(-0.000829137 0.00025995 0.00959038)
(-0.000285406 -1.05398e-05 0.00761483)
(-0.0010336 -0.000578456 0.0123599)
(0.000645325 -3.13379e-05 0.00604607)
(0.00146948 0.000185076 0.00499642)
(0.000441044 8.79606e-05 0.00413348)
(-0.00141766 -0.000221104 0.00985086)
(-0.00172792 0.000285433 0.00878752)
(-0.00117525 0.00105583 0.0137303)
(-0.000256868 0.000495466 0.00510296)
(0.000154984 0.000518981 0.00831157)
(0.000759689 0.000832995 0.00484896)
(0.00151776 0.00170013 0.00961532)
(-9.64978e-05 -0.00131227 0.0118359)
(-6.07647e-05 -7.67968e-05 0.00417883)
(-0.000268422 0.00025782 0.00494106)
(-0.00012128 0.000459272 0.00708416)
(-7.22514e-05 0.000291458 0.0057589)
(0.000558335 0.00222846 0.014855)
(0.00141886 0.00100716 0.00675116)
(0.000372897 0.000468402 0.00476903)
(0.00020988 0.000189529 0.00715809)
(0.000218168 0.000379477 0.00625627)
(-0.000542039 -0.000257635 0.00500025)
(-0.000232174 0.000250994 0.0042629)
(-8.31734e-05 0.000741653 0.0113382)
(0.000808368 0.00106881 0.00722847)
(0.00146679 0.000813674 0.00730735)
(0.000614368 -0.00025289 0.00984798)
(0.000544103 0.000134001 0.016041)
(-0.00037675 -0.000136726 0.0049609)
(-0.000542424 -0.000127379 0.00807146)
(0.000862977 0.00117622 0.0088611)
(0.00019406 0.000512763 0.00643216)
(0.000521772 0.000876992 0.00808741)
(0.00029897 0.000427795 0.00718808)
(-0.000348297 -0.000406472 0.00819809)
(0.000357259 -0.000897303 0.007083)
(-4.23031e-05 -0.000653177 0.00832329)
(0.000394259 0.000118797 0.00564651)
(2.71399e-05 -8.73793e-05 0.00241384)
(-0.00071792 0.000304571 0.0171559)
(0.000688231 0.000202823 0.0078963)
(0.000153905 -0.000403862 0.00452727)
(0.000134557 -0.000525145 0.00513932)
(0.000193111 -3.63523e-05 0.0122803)
(0.000360161 -0.000225011 0.0066778)
(-4.24963e-06 0.0003364 0.00934344)
(-1.24702e-05 -0.000262635 0.0090933)
(-0.00017549 0.000419657 0.00969632)
(5.39028e-05 -5.099e-05 0.0076247)
(-0.000142735 6.51578e-05 0.00526345)
(-0.000129264 0.000149271 0.0095575)
(0.000258679 0.000385178 0.00800646)
(0.000241792 0.000238542 0.00982671)
(0.000136618 -3.34073e-05 0.0052769)
(0.00184577 -0.00114042 0.010472)
(0.000107139 -1.17922e-05 0.0037651)
(0.000678105 -0.000309339 0.00424985)
(-8.67234e-05 -0.000192523 0.00636575)
(-7.2484e-05 9.13228e-05 0.00766373)
(-0.00203319 0.000690646 0.0075111)
(5.07953e-05 -0.00046683 0.00680316)
(5.95365e-05 -0.000289467 0.00709494)
(6.98418e-05 -5.18713e-05 0.00656336)
(-6.32276e-05 6.29739e-05 0.00752744)
(0.000140663 -0.000109975 0.00910289)
(0.00113044 0.000207567 0.00427331)
(-7.1383e-05 6.27792e-05 0.00567778)
(-0.000318936 -0.000111696 0.00794326)
(-0.00047794 -0.000147753 0.0126451)
(-0.00225633 -0.00507865 0.000116861)
(6.0521e-05 -0.000886802 0.00660988)
(0.000160623 -0.000106728 0.00335954)
(0.00133949 -0.000163848 0.00681361)
(0.0016661 4.31497e-05 0.00365558)
(0.000825001 -9.55635e-05 0.0130284)
(0.000202496 -0.000366723 0.00911269)
(-0.000715472 -0.000118002 0.00560914)
(-0.000669139 4.36976e-05 0.0100875)
(-0.000172092 -8.66407e-05 0.00717172)
(-3.99634e-05 -0.000283359 0.0129016)
(7.74436e-05 9.9573e-05 0.00617404)
(-4.85499e-05 0.000107905 0.0085213)
(-8.23234e-05 0.000628522 0.00738635)
(-0.00533753 0.00195321 0.00305457)
(0.00021402 -0.000120792 0.00647388)
(-0.000742664 -0.000419339 0.00673005)
(-6.13892e-05 -0.000165075 0.00661137)
(-0.000390884 0.00284529 0.00580783)
(0.000955226 -0.000745946 0.00380578)
(-0.000160897 0.000149947 0.00780682)
(7.09501e-05 0.00012672 0.0111568)
(-0.000189302 -0.000502408 0.0224137)
(0.000719547 -0.000351816 0.00757696)
(-0.000579465 -0.000559884 0.00475418)
(-0.000336481 -0.000241555 0.00845726)
(-0.00023457 0.000731518 0.0079218)
(0.00225524 0.000377607 0.00761652)
(8.1051e-05 0.000362382 0.00668351)
(1.43484e-06 -6.905e-05 0.00857089)
(-5.37786e-05 0.000103904 0.00999921)
(0.000201163 -0.000236435 0.00721585)
(-0.00156935 -0.00115926 0.00600949)
(-0.000471772 0.000120556 0.0083045)
(-2.8457e-05 0.00012847 0.00747844)
(0.000429313 0.000124513 0.00825413)
(0.000272386 -0.000104574 0.00961929)
(0.00516306 0.00273444 0.00524799)
(-0.000490497 -0.000281191 0.0110608)
(-8.20186e-05 0.000541471 0.0110666)
(0.000303982 0.000544468 0.0104978)
(6.56011e-05 0.000122759 0.00665587)
(-3.86722e-05 0.000317007 0.0113556)
(0.000106819 0.000316665 0.0100817)
(-0.000105269 0.000729303 0.00872123)
(6.45871e-05 0.000230715 0.0117774)
(-0.000776267 0.000336355 0.011485)
(-0.000185947 0.000417387 0.011827)
(0.000144141 0.000371592 0.00888906)
(0.000141183 0.000208997 0.0114368)
(0.00019597 0.000427283 0.00785593)
(0.000268564 0.000376233 0.00677502)
(-0.000104816 0.000679798 0.00885046)
(-0.000325777 -2.08949e-05 0.0109567)
(-0.000733586 -0.000119924 0.0104755)
(-0.000267408 -0.000125665 0.009944)
(6.99701e-05 0.000537542 0.0124291)
(0.000147887 0.000397256 0.0101929)
(0.000203444 0.000446509 0.00973321)
(0.000670313 0.000321234 0.0118801)
(0.00080386 0.000709366 0.00899666)
(-0.000718252 -0.000268757 0.010389)
(-0.000673067 -4.31138e-05 0.0112987)
(0.000440765 2.04837e-05 0.0126591)
(0.000253222 -0.000144311 0.0123715)
(-0.000140676 2.56659e-05 0.00956672)
(0.000418796 -0.000274275 0.00493132)
(0.00116586 -0.000714135 0.00958759)
(0.000638882 -0.000229697 0.0111073)
(-0.000472688 -9.80802e-05 0.0145763)
(-0.000249367 0.000418077 0.0129537)
(-3.13869e-05 0.000214123 0.00907279)
(-8.31673e-05 -0.000593883 0.00904914)
(-0.000177891 -0.000253014 0.00960194)
(7.16184e-05 -0.000421942 0.0117064)
(4.71195e-05 -0.000698119 0.0111207)
(-0.000516438 -0.00074643 0.0121243)
(-0.00050196 -3.50249e-05 0.0116057)
(-0.000323548 -0.000509035 0.0125571)
(-0.000264588 -0.000437766 0.00700058)
(-0.00017067 -0.000426478 0.00866977)
(-1.12966e-05 -0.000344256 0.00918857)
(-3.01465e-05 -7.24291e-05 0.0101838)
(-0.000438734 -0.000537539 0.00892948)
(-0.00095707 -0.000393468 0.0109338)
(-0.000548476 6.74397e-05 0.0113992)
(-0.000416117 -0.000416391 0.0177899)
(0.000571615 -0.000402183 0.0112317)
(-5.34296e-05 -0.000281693 0.0090849)
(-0.000199207 -0.000376171 0.0100884)
(-0.00017005 -0.00044521 0.0107901)
(-0.000267753 -0.000590079 0.00969009)
(-0.000479681 -0.00022215 0.00973143)
(-0.000283422 0.000227151 0.0100164)
(-0.000402985 0.000648365 0.013762)
(4.08651e-05 -7.63833e-05 0.0119419)
(-0.000383536 -0.000309437 0.00855926)
(-0.000425101 -5.12076e-05 0.00879845)
(-0.000366189 -0.000220257 0.0108567)
(-0.000475811 -0.000238112 0.0102482)
(-0.000378779 -3.11767e-05 0.00971992)
(1.33173e-05 0.000352772 0.0135645)
(0.000292048 0.000507246 0.00343954)
(0.000376737 0.000595711 0.00359529)
(0.000512976 0.000567042 0.00330437)
(0.000101431 0.000443364 0.00281708)
(-5.7121e-05 0.000685642 0.00331088)
(3.36023e-05 0.000541627 0.00301087)
(-0.000343051 0.000371149 0.0030106)
(-0.000503629 0.000147587 0.00348587)
(-3.75148e-07 0.000270378 0.00325045)
(0.000298492 0.000344138 0.00348969)
(0.000348491 0.000193266 0.00294431)
(0.000237275 7.51969e-05 0.0030981)
(0.000180554 0.000283113 0.0027526)
(-0.000153104 2.12183e-05 0.00266694)
(-0.000500895 4.52821e-06 0.00302806)
(-0.00063088 2.53661e-05 0.00345918)
(0.000235405 4.6425e-05 0.00314534)
(0.00021806 0.000106947 0.00307725)
(0.000234707 9.28253e-05 0.00306682)
(0.000205408 0.00022296 0.00291194)
(-7.0867e-05 0.000240256 0.00287123)
(-0.000172783 -8.33867e-05 0.00336604)
(-0.000184458 -0.000142161 0.00330067)
(-0.000409617 -0.000208942 0.00354727)
(5.80389e-05 -0.00026669 0.00332291)
(0.000342991 3.50058e-05 0.00333555)
(0.000411238 0.000140951 0.00268901)
(0.000372103 6.57218e-05 0.00261597)
(-6.32336e-05 -0.000132049 0.00216659)
(-0.000487195 -0.000178781 0.002881)
(-0.000497279 -0.000236515 0.00343228)
(-0.000217862 -0.000159928 0.0041306)
(0.000652533 -0.000218461 0.00385176)
(0.000707324 0.000141631 0.00297144)
(0.000254827 7.34173e-05 0.00272948)
(-5.26265e-05 -8.89775e-05 0.00280116)
(-0.000195799 -0.000391942 0.00302691)
(-0.000395216 -0.000219315 0.00302343)
(-0.000457068 -0.000127171 0.00362987)
(-0.00014968 4.58864e-06 0.00391586)
(0.000858003 -0.000280456 0.00377792)
(0.000752208 -0.000264385 0.00281359)
(0.000192687 -0.000161755 0.00274738)
(-0.000103143 -0.000131198 0.00280953)
(-0.000195166 -0.000165566 0.00285897)
(-0.000403413 -0.000118528 0.00270219)
(-0.000608493 1.82555e-05 0.00333538)
(-0.000388717 -4.83618e-05 0.00385102)
(0.000361644 -8.54458e-05 0.00489585)
(0.000899725 -0.000417393 0.00369538)
(0.00037088 -0.00027323 0.00308627)
(-0.000120793 -0.00018288 0.0031763)
(-0.000230492 -0.000289965 0.00331615)
(-0.000300219 -0.000330138 0.00308701)
(-0.000542299 -0.000255805 0.00322103)
(-0.000584999 -0.000412685 0.00362143)
(0.000177381 0.000327636 0.00409215)
(0.00059507 -0.000221751 0.00376415)
(0.000382525 -0.000280744 0.00316412)
(-0.000177475 -0.000122162 0.00320848)
(-0.000395928 -0.000305662 0.0035614)
(-0.000447983 -0.000367054 0.00347985)
(-0.000775506 -0.00046303 0.00365239)
(-0.000743473 -0.000490862 0.00439203)
(-1.61776e-05 0.000330767 0.00619421)
(0.000111766 0.000357441 0.00610781)
(0.000196992 0.000362912 0.0058892)
(8.23394e-05 0.000358021 0.00569355)
(3.94251e-05 0.000405557 0.00583029)
(3.49482e-05 0.000300708 0.00572505)
(-0.000102229 0.000136586 0.00576708)
(-0.000170338 -1.62041e-05 0.00600377)
(-6.76515e-05 0.000168143 0.00602977)
(0.000108749 0.000236319 0.00599851)
(0.000169312 0.000215389 0.00576023)
(0.000114156 0.000180359 0.00571223)
(4.97585e-05 0.000208279 0.00558323)
(-9.83831e-05 6.60934e-05 0.00557662)
(-0.000230153 -2.38067e-05 0.00576748)
(-0.000273084 -5.82111e-05 0.00599661)
(9.17889e-05 4.80512e-05 0.00599552)
(0.000142743 0.000119098 0.00586005)
(0.000142338 0.000121427 0.00577337)
(7.97929e-05 0.000145463 0.00567463)
(-6.60107e-05 0.000136718 0.00563909)
(-0.000182925 2.74823e-06 0.00584072)
(-0.000206489 -8.50375e-05 0.00594626)
(-0.000240956 -0.000126259 0.00603202)
(7.4095e-05 -0.000113086 0.00601617)
(0.000186524 8.39742e-06 0.0058905)
(0.000191898 4.91215e-05 0.0057099)
(0.000130218 3.02704e-05 0.0055449)
(-8.27972e-05 -2.47108e-05 0.00539382)
(-0.000314187 -3.87357e-05 0.00568982)
(-0.00034334 -0.000103922 0.00600326)
(-0.000244125 -0.000135945 0.00619958)
(0.000265113 -0.000177597 0.00632916)
(0.000325454 -3.97779e-05 0.00585153)
(0.000166976 -2.80561e-05 0.00565313)
(1.07614e-05 -8.01853e-05 0.00561625)
(-0.000120942 -0.000174976 0.00568015)
(-0.000279078 -0.000115248 0.00577517)
(-0.000339855 -9.3166e-05 0.00605058)
(-0.000231464 -9.85233e-05 0.00615551)
(0.000346797 -0.00015019 0.00636216)
(0.000364885 -0.000156811 0.00579929)
(0.000156759 -0.000130314 0.00562315)
(-1.83819e-05 -0.000135668 0.00560089)
(-0.000121023 -0.000172536 0.00566361)
(-0.000260123 -0.000136451 0.00566933)
(-0.000374046 -8.15793e-05 0.00591407)
(-0.000310049 -0.000102937 0.00611273)
(0.000151948 -2.03331e-06 0.00661886)
(0.000356628 -0.000162627 0.0061005)
(0.000185373 -0.000162457 0.00578238)
(-4.2573e-05 -0.000167019 0.00573282)
(-0.000134351 -0.000233731 0.00582479)
(-0.000210567 -0.000239193 0.00578321)
(-0.000337087 -0.000198034 0.00589431)
(-0.000343437 -0.000202725 0.00612255)
(9.72061e-06 0.000173073 0.00639868)
(0.000208425 -6.6711e-05 0.00616116)
(0.000143352 -0.000133588 0.00585475)
(-0.000101164 -0.000129637 0.00577014)
(-0.000205127 -0.000223756 0.00594881)
(-0.000241491 -0.000243632 0.00596157)
(-0.000356593 -0.000236434 0.00612221)
(-0.000304859 -0.000169678 0.00648313)
(3.34554e-05 0.00025038 0.00561197)
(8.22372e-05 0.000226909 0.00560354)
(9.58428e-05 0.000215718 0.0055308)
(5.306e-05 0.000208928 0.00546806)
(2.60487e-05 0.000203031 0.00548251)
(-9.06819e-07 0.000148378 0.00543868)
(-6.4411e-05 7.05478e-05 0.00544481)
(-0.000114275 2.01429e-05 0.00550136)
(-1.56152e-07 0.000151328 0.00553033)
(6.71402e-05 0.000162157 0.00552953)
(8.18062e-05 0.000152159 0.00545266)
(4.66898e-05 0.000135216 0.00541191)
(-1.84098e-07 0.00012094 0.0053733)
(-6.6226e-05 5.6671e-05 0.00537168)
(-0.00011864 2.21742e-06 0.00543809)
(-0.000140709 -1.59411e-05 0.00551776)
(4.9665e-05 6.63989e-05 0.00552253)
(8.14641e-05 9.03199e-05 0.00547421)
(7.10034e-05 9.0481e-05 0.00541853)
(2.36804e-05 8.78047e-05 0.00537622)
(-5.05512e-05 7.14774e-05 0.00536276)
(-0.000116653 1.83767e-05 0.00542747)
(-0.000133778 -2.83034e-05 0.00549531)
(-0.000136037 -4.94087e-05 0.00554896)
(4.91107e-05 -2.47297e-05 0.00552411)
(9.27827e-05 1.44424e-05 0.00546526)
(7.97826e-05 2.82941e-05 0.00539086)
(2.84448e-05 2.26085e-05 0.00532751)
(-6.79599e-05 3.88552e-06 0.00528796)
(-0.000164786 -9.63953e-06 0.00538157)
(-0.000183632 -4.0234e-05 0.00551296)
(-0.00015228 -6.49645e-05 0.00560546)
(0.000107691 -8.27501e-05 0.00563757)
(0.000138494 -3.76867e-05 0.00548343)
(8.03041e-05 -2.55827e-05 0.00539282)
(1.55173e-07 -3.86511e-05 0.00535964)
(-8.13979e-05 -6.50923e-05 0.00537235)
(-0.000162786 -5.35782e-05 0.00542337)
(-0.000192964 -5.33365e-05 0.00554647)
(-0.000157188 -6.98173e-05 0.00562979)
(0.000133456 -7.19077e-05 0.00568509)
(0.000156065 -7.55163e-05 0.00549905)
(8.02863e-05 -7.06969e-05 0.00540605)
(-1.12191e-05 -7.68633e-05 0.0053783)
(-8.37112e-05 -9.41656e-05 0.00539831)
(-0.00015697 -8.37728e-05 0.00542344)
(-0.000206343 -7.13915e-05 0.00553506)
(-0.000187683 -8.57842e-05 0.00564193)
(8.16794e-05 -2.15228e-05 0.00575167)
(0.000142014 -7.32581e-05 0.00559562)
(7.85361e-05 -8.50216e-05 0.00547824)
(-2.49424e-05 -9.63439e-05 0.00544767)
(-9.0534e-05 -0.000125118 0.00548257)
(-0.000144008 -0.00012827 0.00549043)
(-0.000200759 -0.000119119 0.00556337)
(-0.00020253 -0.000121473 0.00566989)
(3.76417e-05 2.07509e-05 0.00567216)
(9.29067e-05 -4.43042e-05 0.00560998)
(5.48024e-05 -6.74587e-05 0.00551298)
(-5.30468e-05 -7.91225e-05 0.00548821)
(-0.000117127 -0.000116743 0.00555926)
(-0.000153461 -0.000127491 0.0055816)
(-0.000203112 -0.000126204 0.00565774)
(-0.000188451 -0.000107976 0.00576884)
(4.80274e-06 0.000136831 0.00566373)
(3.27626e-05 0.000127075 0.00564147)
(3.93888e-05 0.000122086 0.00560488)
(2.62399e-05 0.000116468 0.00557762)
(1.30889e-05 0.000105351 0.00557195)
(-2.95877e-06 7.64915e-05 0.00555934)
(-2.8937e-05 3.67308e-05 0.00556685)
(-5.25964e-05 8.2836e-06 0.00559594)
(-2.03326e-06 9.23676e-05 0.00560287)
(2.73289e-05 9.60528e-05 0.00559005)
(3.28721e-05 9.25563e-05 0.00555677)
(1.68081e-05 8.38655e-05 0.00553458)
(-7.35166e-06 6.97223e-05 0.00552351)
(-3.63307e-05 3.93424e-05 0.00552894)
(-5.87794e-05 8.40106e-06 0.00555897)
(-7.05582e-05 -9.58175e-06 0.00559534)
(1.71428e-05 4.73907e-05 0.00558522)
(3.34848e-05 5.67465e-05 0.00555908)
(2.8351e-05 5.69422e-05 0.00552892)
(4.24221e-06 5.18459e-05 0.00550989)
(-3.07739e-05 3.92641e-05 0.00550853)
(-6.33564e-05 1.51384e-05 0.00553593)
(-7.69136e-05 -9.65778e-06 0.00557445)
(-7.96233e-05 -2.58828e-05 0.00560609)
(2.02372e-05 2.13285e-06 0.00557699)
(3.73408e-05 1.49595e-05 0.00554694)
(2.83499e-05 1.91391e-05 0.00551314)
(-5.07389e-07 1.52676e-05 0.00548966)
(-4.36854e-05 5.30452e-06 0.00548507)
(-8.4941e-05 -5.92179e-06 0.00552261)
(-9.91191e-05 -2.20747e-05 0.00557997)
(-9.26057e-05 -3.65323e-05 0.00562395)
(3.77251e-05 -2.99177e-05 0.00561543)
(5.09843e-05 -1.70373e-05 0.00555948)
(2.89371e-05 -1.30518e-05 0.00551797)
(-9.4003e-06 -1.81925e-05 0.00550026)
(-5.18119e-05 -2.81764e-05 0.00550708)
(-9.10031e-05 -3.02816e-05 0.00553732)
(-0.000107952 -3.49762e-05 0.00559405)
(-9.86735e-05 -4.41981e-05 0.00563995)
(4.40753e-05 -2.91948e-05 0.00564141)
(5.53384e-05 -3.29708e-05 0.00557522)
(2.76149e-05 -3.48581e-05 0.00553032)
(-1.55861e-05 -4.04486e-05 0.00551388)
(-5.59195e-05 -4.92597e-05 0.00552425)
(-9.23835e-05 -4.90972e-05 0.00554773)
(-0.000114337 -4.79052e-05 0.00560167)
(-0.000108932 -5.28925e-05 0.00565605)
(2.72927e-05 -1.2201e-05 0.00566388)
(4.57938e-05 -3.21576e-05 0.00560838)
(2.16175e-05 -4.16255e-05 0.00556111)
(-2.39313e-05 -5.08983e-05 0.00554554)
(-6.07072e-05 -6.34059e-05 0.00556186)
(-9.03159e-05 -6.57248e-05 0.00558067)
(-0.000113262 -6.27403e-05 0.00562595)
(-0.000111848 -5.99426e-05 0.00568221)
(7.41407e-06 1.34189e-06 0.00565014)
(2.6005e-05 -2.26215e-05 0.00561956)
(8.40292e-06 -3.39198e-05 0.00558083)
(-3.74035e-05 -4.42487e-05 0.00557026)
(-7.03884e-05 -5.91746e-05 0.00559962)
(-9.16178e-05 -6.30893e-05 0.00562302)
(-0.000109119 -5.95993e-05 0.00566906)
(-0.000101258 -4.82957e-05 0.00572482)
(-1.6104e-06 7.67153e-05 0.00564898)
(1.18448e-05 7.17825e-05 0.00563934)
(1.52791e-05 6.88183e-05 0.0056244)
(1.08692e-05 6.43577e-05 0.00561243)
(4.28523e-06 5.62029e-05 0.00560669)
(-4.25913e-06 4.11256e-05 0.00560197)
(-1.61709e-05 2.14273e-05 0.00560457)
(-2.80404e-05 6.29009e-06 0.0056156)
(-3.43888e-06 5.6636e-05 0.00561686)
(8.99356e-06 5.71364e-05 0.00561022)
(1.1083e-05 5.48135e-05 0.00559671)
(3.79045e-06 4.93318e-05 0.00558658)
(-7.99923e-06 4.00525e-05 0.0055827)