/*--------------------------------*- C++ -*----------------------------------*\
| =========                 |                                                 |
| \\      /  F ield         | OpenFOAM: The Open Source CFD Toolbox           |
|  \\    /   O peration     | Version:  2506                                  |
|   \\  /    A nd           | Website:  www.openfoam.com                      |
|    \\/     M anipulation  |                                                 |
\*---------------------------------------------------------------------------*/
FoamFile
{
    version     2.0;
    format      ascii;
    arch        "LSB;label=32;scalar=64";
    class       volVectorField;
    location    "0.09";
    object      Us;
}
// * * * * * * * * * * * * * * * * * * * * * * * * * * * * * * * * * * * * * //

dimensions      [0 1 -1 0 0 0 0];

internalField   nonuniform List<vector> 
1152
(
(-0.000153588 -1.507e-05 -4.97453e-05)
(0.000840018 -0.0011546 -0.000120705)
(0.000393402 -4.11988e-05 0.000307517)
(-2.5235e-05 1.59802e-05 -0.000239421)
(0.000251114 0.000242452 0.000115127)
(0.000861498 0.00035327 -0.000283291)
(5.59151e-06 -0.000249992 -9.87359e-05)
(-0.000268195 0.00108393 -0.0013045)
(-0.000143357 0.000465191 -0.000324061)
(-0.000159611 0.000645229 -0.000719631)
(0.00022989 -0.000462004 0.000241456)
(0.000162027 7.20869e-05 -0.000617404)
(-0.000309464 -0.000167673 1.1612e-06)
(0.000317124 -0.000108427 -0.00032628)
(0.000800036 -0.00030961 -1.57516e-05)
(0.000715862 -0.000106619 -1.40721e-05)
(0.00124232 0.00150835 0.0136696)
(0.00149296 0.0014665 0.0122935)
(0.00096275 0.000513864 0.0135134)
(0.000432783 -0.000964286 0.0138855)
(0.000490808 0.00132283 0.0133698)
(0.000705244 0.000389719 0.0133581)
(-0.00013964 -0.000787895 0.0145273)
(2.20254e-05 -0.000482968 0.0139316)
(-2.93181e-05 0.00140936 0.0113328)
(0.000845585 -0.000769451 0.0131691)
(-0.000208101 -0.000181177 0.0141059)
(-0.000402654 0.000492404 0.0139736)
(0.00104185 2.15666e-05 0.0116237)
(0.00145572 0.000683109 0.0124655)
(0.00033474 0.000223009 0.0128247)
(0.000114369 0.00136956 0.0118402)
(0.000918934 0.000778701 0.0127886)
(0.000782595 -0.000864764 0.0143469)
(-0.000384446 -0.000248947 0.0154751)
(-0.00013412 -6.69567e-06 0.0149896)
(0.00043086 0.000448413 0.0139704)
(0.000858943 -0.000427009 0.013828)
(0.00119605 -0.000408587 0.014792)
(0.00124031 -5.12951e-05 0.0146837)
(0.00100467 -0.001415 0.0134919)
(0.00188851 -0.000554662 0.0142092)
(0.0013319 -0.000305583 0.0135493)
(0.00115666 -0.000146571 0.0135732)
(0.00134917 -0.00139803 0.0129652)
(0.00165656 -0.000955663 0.0133002)
(0.00109673 -0.0003944 0.0136326)
(0.000879127 -0.0005126 0.013283)
(0.00153385 0.000179377 0.0141858)
(0.00121712 0.00021329 0.0151667)
(0.00100053 0.000144585 0.0151431)
(0.000626209 -0.000157507 0.0151538)
(0.00144812 -0.000344275 0.0142272)
(0.00128328 2.40173e-05 0.0146089)
(0.00101613 0.000196125 0.0148252)
(0.000849956 -0.00029386 0.015352)
(0.00064814 -0.000568794 0.0142387)
(0.00105879 -0.000189583 0.0143698)
(0.00109141 7.83712e-06 0.0143649)
(0.00104663 -0.000169066 0.0147926)
(0.00125844 -0.000718807 0.0139312)
(0.000987217 -0.000843376 0.0140668)
(0.000955907 -0.000210702 0.0143124)
(0.00107469 -0.000604326 0.0144529)
(0.00102111 -6.84696e-06 0.0146227)
(0.000693955 -0.000208433 0.0153369)
(0.000646391 0.000212243 0.0153933)
(0.000257941 -0.000107469 0.0156329)
(0.00114396 -0.00054399 0.0148799)
(0.00103213 -0.00046878 0.0152826)
(0.000555792 0.000163613 0.0152293)
(0.000639997 0.000104576 0.0157689)
(0.00133331 -0.000752794 0.0145064)
(0.00097789 -0.000470009 0.0148822)
(0.000775661 -0.000133911 0.0149746)
(0.000429628 -0.000184205 0.015116)
(0.001537 -0.000933754 0.013996)
(0.0011305 -0.000579984 0.0144654)
(0.000928165 -0.000232673 0.0146968)
(0.000242234 -0.000865574 0.0150852)
(0.00089822 -0.00010658 0.0148912)
(0.00055764 -0.000108394 0.0156456)
(0.000363412 0.000267515 0.015585)
(-9.17319e-06 0.000213715 0.015655)
(0.0008568 -0.000362465 0.0152553)
(0.000383673 -0.000142858 0.0154223)
(-7.47491e-06 0.000255667 0.0150603)
(0.000112233 0.000224876 0.0156242)
(0.000720839 -0.000125901 0.0146977)
(0.000241007 -3.48389e-05 0.0151383)
(6.65302e-05 -7.91646e-05 0.0153557)
(2.83918e-05 1.00137e-06 0.0156885)
(0.000175813 8.88977e-06 0.0135709)
(5.28913e-05 3.81889e-05 0.0143414)
(0.000193556 -0.000586516 0.0148108)
(-0.000591609 -0.000132106 0.0150819)
(0.000497453 0.000503621 0.0150588)
(0.000150573 0.000462886 0.01558)
(6.95451e-05 0.000347369 0.0154419)
(-0.000202746 0.000386305 0.0153608)
(-0.000371817 0.00046483 0.0146255)
(0.000124804 0.000519298 0.0151311)
(3.8426e-05 0.000334901 0.0153848)
(-0.00026945 0.000640453 0.0154155)
(-0.000261927 0.000415535 0.0141885)
(-0.000230035 0.000641755 0.014799)
(-0.00058672 0.000643934 0.0156634)
(-0.000573958 0.00056758 0.0160041)
(-0.000686918 0.000352771 0.0145967)
(-0.000220916 0.000876884 0.0144081)
(-0.000420598 -0.00011168 0.0150436)
(9.1786e-06 0.000490969 0.015079)
(0 0 0)
(0 0 0)
(0 0 0)
(0 0 0)
(0 0 0)
(0 0 0)
(0 0 0)
(0 0 0)
(0 0 0)
(0 0 0)
(0 0 0)
(0 0 0)
(0 0 0)
(0 0 0)
(0 0 0)
(0 0 0)
(0 0 0)
(0 0 0)
(0 0 0)
(0 0 0)
(0 0 0)
(0 0 0)
(0 0 0)
(0 0 0)
(0 0 0)
(0 0 0)
(0 0 0)
(0 0 0)
(0 0 0)
(0 0 0)
(0 0 0)
(0 0 0)
(0 0 0)
(0 0 0)
(0 0 0)
(0 0 0)
(0 0 0)
(0 0 0)
(0 0 0)
(0 0 0)
(0 0 0)
(0 0 0)
(0 0 0)
(0 0 0)
(0 0 0)
(0 0 0)
(0 0 0)
(0 0 0)
(0 0 0)
(0 0 0)
(0 0 0)
(0 0 0)
(0 0 0)
(0 0 0)
(0 0 0)
(0 0 0)
(0 0 0)
(0 0 0)
(0 0 0)
(0 0 0)
(0 0 0)
(0 0 0)
(0 0 0)
(0 0 0)
(0 0 0)
(0 0 0)
(0 0 0)
(0 0 0)
(0 0 0)
(0 0 0)
(0 0 0)
(0 0 0)
(0 0 0)
(0 0 0)
(0 0 0)
(0 0 0)
(0 0 0)
(0 0 0)
(0 0 0)
(0 0 0)
(0 0 0)
(0 0 0)
(0 0 0)
(0 0 0)
(0 0 0)
(0 0 0)
(0 0 0)
(0 0 0)
(0 0 0)
(0 0 0)
(0 0 0)
(0 0 0)
(0 0 0)
(0 0 0)
(0 0 0)
(0 0 0)
(0 0 0)
(0 0 0)
(0 0 0)
(0 0 0)
(0 0 0)
(0 0 0)
(0 0 0)
(0 0 0)
(0 0 0)
(0 0 0)
(0 0 0)
(0 0 0)
(0 0 0)
(0 0 0)
(0 0 0)
(0 0 0)
(0 0 0)
(0 0 0)
(0 0 0)
(0 0 0)
(0 0 0)
(0 0 0)
(0 0 0)
(0 0 0)
(0 0 0)
(0 0 0)
(0 0 0)
(0 0 0)
(0 0 0)
(0 0 0)
(0 0 0)
(0 0 0)
(0 0 0)
(0 0 0)
(0 0 0)
(0 0 0)
(0 0 0)
(0 0 0)
(0 0 0)
(0 0 0)
(0 0 0)
(0 0 0)
(0 0 0)
(0 0 0)
(0 0 0)
(0 0 0)
(0 0 0)
(0 0 0)
(0 0 0)
(0 0 0)
(0 0 0)
(0 0 0)
(0 0 0)
(0 0 0)
(0 0 0)
(0 0 0)
(0 0 0)
(0 0 0)
(0 0 0)
(0 0 0)
(0 0 0)
(0 0 0)
(0 0 0)
(0 0 0)
(0 0 0)
(0 0 0)
(0 0 0)
(0 0 0)
(0 0 0)
(0 0 0)
(0 0 0)
(0 0 0)
(0 0 0)
(0 0 0)
(0 0 0)
(0 0 0)
(0 0 0)
(0 0 0)
(0 0 0)
(0 0 0)
(0 0 0)
(0 0 0)
(0 0 0)
(0 0 0)
(0 0 0)
(0 0 0)
(0 0 0)
(0 0 0)
(0 0 0)
(0 0 0)
(0 0 0)
(0 0 0)
(0 0 0)
(0 0 0)
(0 0 0)
(0 0 0)
(0 0 0)
(0 0 0)
(0 0 0)
(0 0 0)
(0 0 0)
(0 0 0)
(0 0 0)
(0 0 0)
(0 0 0)
(0 0 0)
(0 0 0)
(0 0 0)
(0 0 0)
(0 0 0)
(0 0 0)
(0 0 0)
(0 0 0)
(0 0 0)
(0 0 0)
(0 0 0)
(0 0 0)
(0 0 0)
(0 0 0)
(0 0 0)
(0 0 0)
(0 0 0)
(0 0 0)
(0 0 0)
(0 0 0)
(0 0 0)
(0 0 0)
(0 0 0)
(0 0 0)
(0 0 0)
(0 0 0)
(0 0 0)
(0 0 0)
(0 0 0)
(0 0 0)
(0 0 0)
(0 0 0)
(0 0 0)
(0 0 0)
(0 0 0)
(0 0 0)
(0 0 0)
(0 0 0)
(0 0 0)
(0 0 0)
(0 0 0)
(0 0 0)
(0 0 0)
(0 0 0)
(0 0 0)
(0 0 0)
(0 0 0)
(0 0 0)
(0 0 0)
(0 0 0)
(0 0 0)
(0 0 0)
(0 0 0)
(0 0 0)
(0 0 0)
(0 0 0)
(0 0 0)
(0 0 0)
(0 0 0)
(0 0 0)
(0 0 0)
(0 0 0)
(0 0 0)
(0 0 0)
(0 0 0)
(0 0 0)
(0 0 0)
(0 0 0)
(0 0 0)
(0 0 0)
(0 0 0)
(-0.000105608 -0.000146028 0.000302266)
(-0.000237619 0.000309083 -0.000189889)
(5.97571e-05 -0.000395895 -3.87247e-05)
(0.000755123 -0.000181751 -0.000282013)
(-0.000270414 -0.000117513 0.000224112)
(-0.000447963 3.80217e-05 -0.000296514)
(-0.000526997 -0.000588523 -2.90431e-05)
(-0.000360382 -0.000160017 -0.000261051)
(-2.33191e-05 -0.00015535 0.000172141)
(-0.000358454 6.38183e-05 4.78243e-05)
(5.44189e-06 -0.000403763 -9.12857e-05)
(-0.000348345 -0.000412216 -4.94579e-05)
(3.32045e-06 -5.88634e-05 0.000229811)
(-6.42134e-05 -1.56787e-05 -4.20506e-05)
(0.00020536 -0.00012697 -0.000415976)
(0.000205253 1.67446e-05 -0.000179124)
(0.000204783 -0.000193783 0.0106724)
(0.00109292 0.000567958 0.0133133)
(0.000170774 3.41087e-05 0.0122533)
(-0.000126108 0.00171917 0.0121338)
(-3.83011e-05 -0.00017115 0.00991238)
(0.00147401 -5.99539e-05 0.0100139)
(0.00103643 -5.47009e-05 0.0122752)
(0.000291976 0.000462742 0.0112342)
(-0.000105473 0.000159265 0.00954151)
(0.00116944 0.000167603 0.010308)
(0.000891734 3.27757e-05 0.0117576)
(0.000429971 -0.000245205 0.0120268)
(-0.000625129 -0.000654619 0.00983601)
(0.00317531 0.00135205 0.0103763)
(0.0026171 0.000917192 0.0112933)
(0.000988281 -0.00011608 0.0111818)
(0.00281739 -0.00158904 0.0119873)
(0.00215293 -0.000861359 0.0125848)
(0.00153789 -3.52596e-05 0.0132377)
(0.000974909 -0.000155916 0.0140514)
(0.00316045 -0.00129553 0.0105752)
(0.00213656 7.25637e-05 0.0118454)
(0.000979093 0.00013282 0.0134856)
(0.000693628 -0.000140587 0.0133447)
(0.00234199 -0.000783795 0.0114957)
(0.00149465 0.00105616 0.0116347)
(0.00145477 -0.000108234 0.0122571)
(0.00182121 -0.0011452 0.0128265)
(0.00193847 0.000550822 0.0112019)
(0.000992555 0.000296333 0.00934366)
(0.00165935 -0.000229596 0.0126877)
(0.00302099 -0.000335458 0.0119974)
(0.00310219 -0.000685087 0.0127631)
(0.00182443 -0.000565299 0.0124839)
(0.00122343 -0.000204545 0.0144836)
(0.00170596 -0.00126338 0.0148284)
(0.00329002 -0.0016245 0.0106287)
(0.00172326 -0.000211592 0.0123318)
(0.00193812 0.000113028 0.0133999)
(0.00039727 -0.00118976 0.0147421)
(0.00142515 -0.000322204 0.0112214)
(0.00206318 6.38393e-05 0.0120466)
(0.00169345 -0.00101425 0.0130099)
(0.000952375 -0.00146678 0.0126507)
(0.000370102 -0.000580069 0.00957759)
(0.00094807 6.71892e-05 0.0103994)
(0.000980229 -0.000670066 0.0110826)
(0.00071098 -0.0009635 0.010375)
(0.00138852 -0.00170349 0.0124021)
(0.00136116 -0.000493072 0.0135841)
(0.000666901 -0.000168918 0.0143342)
(0.000357315 -0.000825627 0.0144186)
(0.00188546 -0.00157384 0.0097351)
(0.00184871 -0.00100458 0.0124305)
(0.00155424 0.000384935 0.0142328)
(0.000914745 -0.000935692 0.0139597)
(0.00154485 -0.000832834 0.0092849)
(0.00209713 -0.00117363 0.00994329)
(0.00099522 -0.000413061 0.0134241)
(0.00107814 -0.00134624 0.0121614)
(0.00028013 -0.000124397 0.00903826)
(0.00055108 0.00070831 0.0103834)
(0.00164319 0.000436876 0.012323)
(0.00192577 0.000254957 0.00995177)
(-0.000179183 -0.00111184 0.0119962)
(0.000239885 -0.000545678 0.0130582)
(-0.000293913 -0.000500652 0.0140001)
(-0.000311387 7.42677e-05 0.0143522)
(0.000416569 -0.00101665 0.00892029)
(-0.000282656 -0.000361946 0.0114737)
(0.000264465 0.000182481 0.0143488)
(0.000476151 4.38089e-05 0.0144079)
(7.04615e-05 -0.00145666 0.00911887)
(0.000773199 -0.0012767 0.00913396)
(0.00117755 -0.000456673 0.0122407)
(0.000744912 -0.000779229 0.0128775)
(0.000223623 -0.000356595 0.00846719)
(-0.000211695 -0.00124392 0.00871616)
(-0.000848747 -0.000788983 0.0100062)
(0.000827763 -0.000195971 0.00900789)
(-0.000659704 0.00107577 0.0126234)
(0.000579672 0.00183471 0.0128046)
(-0.00147863 -0.000640784 0.0140625)
(-0.000691849 2.98525e-05 0.0139772)
(-0.00146072 0.000746084 0.0106448)
(-0.00248766 0.00114268 0.0108353)
(-0.00181425 -0.00029097 0.0129561)
(-0.000618241 -0.00118337 0.0145368)
(0.000173358 3.58807e-06 0.0100601)
(-0.000923936 0.000573002 0.010037)
(-0.00148337 0.000758577 0.0117107)
(-0.000674363 -0.000979867 0.0131015)
(0.00029537 7.80065e-06 0.0076094)
(-0.000801715 -0.000127542 0.00781542)
(0.000353231 0.000220859 0.00899172)
(-7.73631e-05 -0.000260625 0.00986577)
(0 0 0)
(0 0 0)
(0 0 0)
(0 0 0)
(0 0 0)
(0 0 0)
(0 0 0)
(0 0 0)
(0 0 0)
(0 0 0)
(0 0 0)
(0 0 0)
(0 0 0)
(0 0 0)
(0 0 0)
(-0.00238569 -0.00221855 0.00786074)
(0 0 0)
(0 0 0)
(0 0 0)
(0 0 0)
(0 0 0)
(0 0 0)
(0 0 0)
(0 0 0)
(0 0 0)
(0 0 0)
(0 0 0)
(0 0 0)
(0 0 0)
(0 0 0)
(0 0 0)
(0 0 0)
(0 0 0)
(0 0 0)
(0 0 0)
(0 0 0)
(0 0 0)
(0 0 0)
(0 0 0)
(0 0 0)
(0 0 0)
(0 0 0)
(0 0 0)
(0 0 0)
(0 0 0)
(0 0 0)
(0 0 0)
(0 0 0)
(0 0 0)
(0 0 0)
(0 0 0)
(0 0 0)
(0 0 0)
(0 0 0)
(0 0 0)
(0 0 0)
(0 0 0)
(0 0 0)
(0 0 0)
(0 0 0)
(0 0 0)
(0 0 0)
(0 0 0)
(0 0 0)
(0 0 0)
(0 0 0)
(0 0 0)
(0 0 0)
(0 0 0)
(0 0 0)
(0 0 0)
(0 0 0)
(0 0 0)
(0 0 0)
(0 0 0)
(0 0 0)
(0 0 0)
(0 0 0)
(0 0 0)
(0 0 0)
(0 0 0)
(0 0 0)
(0 0 0)
(0 0 0)
(0 0 0)
(0 0 0)
(0 0 0)
(0 0 0)
(0 0 0)
(0 0 0)
(0 0 0)
(0 0 0)
(0 0 0)
(0 0 0)
(0 0 0)
(0 0 0)
(0 0 0)
(0 0 0)
(0 0 0)
(0 0 0)
(0 0 0)
(0 0 0)
(0 0 0)
(0 0 0)
(0 0 0)
(0 0 0)
(0 0 0)
(0 0 0)
(0 0 0)
(0 0 0)
(0 0 0)
(0 0 0)
(0 0 0)
(0 0 0)
(0 0 0)
(0 0 0)
(0 0 0)
(0 0 0)
(0 0 0)
(0 0 0)
(0 0 0)
(0 0 0)
(0 0 0)
(0 0 0)
(0 0 0)
(0 0 0)
(0 0 0)
(0 0 0)
(0 0 0)
(0 0 0)
(0 0 0)
(0 0 0)
(0 0 0)
(0 0 0)
(0 0 0)
(0 0 0)
(0 0 0)
(0 0 0)
(0 0 0)
(0 0 0)
(0 0 0)
(0 0 0)
(0 0 0)
(0 0 0)
(0 0 0)
(0 0 0)
(0 0 0)
(0 0 0)
(0 0 0)
(0 0 0)
(0 0 0)
(0 0 0)
(0 0 0)
(0 0 0)
(0 0 0)
(0 0 0)
(0 0 0)
(0 0 0)
(0 0 0)
(0 0 0)
(0 0 0)
(0 0 0)
(0 0 0)
(0 0 0)
(0 0 0)
(0 0 0)
(0 0 0)
(0 0 0)
(0 0 0)
(0 0 0)
(0 0 0)
(0 0 0)
(0 0 0)
(0 0 0)
(0 0 0)
(0 0 0)
(0 0 0)
(0 0 0)
(0 0 0)
(0 0 0)
(0 0 0)
(0 0 0)
(0 0 0)
(0 0 0)
(0 0 0)
(0 0 0)
(0 0 0)
(0 0 0)
(0 0 0)
(0 0 0)
(0 0 0)
(0 0 0)
(0 0 0)
(0 0 0)
(0 0 0)
(0 0 0)
(0 0 0)
(0 0 0)
(0 0 0)
(0 0 0)
(0 0 0)
(0 0 0)
(0 0 0)
(0 0 0)
(0 0 0)
(0 0 0)
(0 0 0)
(0 0 0)
(0 0 0)
(0 0 0)
(0 0 0)
(0 0 0)
(0 0 0)
(0 0 0)
(0 0 0)
(0 0 0)
(0 0 0)
(0 0 0)
(0 0 0)
(0 0 0)
(0 0 0)
(0 0 0)
(0 0 0)
(0 0 0)
(0 0 0)
(0 0 0)
(0 0 0)
(0 0 0)
(0 0 0)
(0 0 0)
(0 0 0)
(0 0 0)
(0 0 0)
(0 0 0)
(0 0 0)
(0 0 0)
(0 0 0)
(0 0 0)
(0 0 0)
(0 0 0)
(0 0 0)
(0 0 0)
(0 0 0)
(0 0 0)
(0 0 0)
(0 0 0)
(0 0 0)
(0 0 0)
(0 0 0)
(0 0 0)
(0 0 0)
(0 0 0)
(0 0 0)
(0 0 0)
(0 0 0)
(0 0 0)
(0 0 0)
(0 0 0)
(0 0 0)
(0 0 0)
(0 0 0)
(0 0 0)
(0 0 0)
(0 0 0)
(0 0 0)
(0 0 0)
(0 0 0)
(0 0 0)
(0 0 0)
(0 0 0)
(0 0 0)
(0 0 0)
(5.20041e-05 -8.79868e-05 0.000692944)
(0.000548783 -8.87516e-05 0.00041113)
(-8.80673e-05 0.000350228 0.000397521)
(-0.000555057 0.000277665 -0.000328379)
(0.00026885 -0.000124974 0.000123603)
(-0.000132053 -0.000109763 6.21382e-05)
(-0.000682741 0.000256333 0.000305791)
(-0.000167882 0.000308857 -4.02884e-05)
(0.000100967 -0.000317078 1.37567e-05)
(0.000256618 -8.08428e-06 4.53458e-05)
(-1.84323e-05 -0.000531541 -6.93344e-05)
(-0.000625909 2.89859e-05 6.52711e-05)
(6.76415e-05 4.56205e-05 -7.75128e-06)
(-3.48099e-06 3.16809e-05 -1.73693e-06)
(-0.000177539 0.000347995 0.000173245)
(-0.000351043 3.97696e-05 2.33178e-05)
(-0.000343638 -0.00059299 0.0107805)
(-0.000568725 -0.000363696 0.0145465)
(2.29769e-05 0.000465638 0.013875)
(-0.0003651 0.000569228 0.0101948)
(-0.000383165 -0.00195121 0.00866817)
(-0.00159535 -0.000724765 0.00941074)
(-0.00228712 -0.00187559 0.0112503)
(-0.000884966 -0.000473461 0.00900448)
(-0.00205317 -0.00372127 0.0109106)
(-0.0025667 -0.00183152 0.00932028)
(-0.00279556 -0.00116446 0.00669427)
(-0.00125316 0.000168941 0.00983966)
(-0.000939212 -0.000572669 0.0100013)
(-0.000598159 9.20898e-05 0.00820419)
(-0.00121557 0.00018959 0.0101913)
(-0.000614908 0.000309172 0.0110059)
(-0.000757877 0.000872744 0.0135975)
(-0.00038294 -0.000676811 0.0126585)
(0.00111855 -0.00116065 0.0127401)
(0.00205491 0.000158549 0.0128032)
(-0.00194305 -0.00131075 0.0153622)
(-0.00197088 -0.00252804 0.0142086)
(0.000708143 -0.000684749 0.0127919)
(0.000784198 -0.000302806 0.0118575)
(-0.000724473 -0.00325169 0.011265)
(0.00157772 -0.00215167 0.0104055)
(0.000842613 -0.00175856 0.0109843)
(-7.86869e-05 -0.000616234 0.0133614)
(0.000998637 -0.000791665 0.0108826)
(0.00229437 -0.0010772 0.0103653)
(0.00244334 -0.00164857 0.0114405)
(0.00217838 -0.00254144 0.0122283)
(-0.000262142 -0.00261307 0.0126295)
(0.00267867 -0.000103576 0.0139304)
(0.00285884 -0.000424102 0.0126995)
(0.00222256 -0.000459091 0.0138348)
(-0.000507959 -0.00178911 0.014591)
(0.002093 -0.000380839 0.0118637)
(0.00197408 -0.000771253 0.0121765)
(0.00158771 -0.00047026 0.0134654)
(0.00136494 -0.00214637 0.00962388)
(0.00165907 -0.00111404 0.0110295)
(0.00238849 -0.000330776 0.0133143)
(0.000762369 -0.00103022 0.0132663)
(9.18213e-05 -0.000974525 0.00866091)
(0.00171714 -0.00142013 0.0100358)
(0.00263367 -0.00173005 0.0101983)
(0.00204192 -0.00153185 0.0127077)
(2.84794e-06 0.000189916 0.00862242)
(0.00187973 -0.000190796 0.0132671)
(0.00219296 0.000643007 0.0143705)
(0.00145945 -6.36617e-05 0.01454)
(-0.000119909 -0.00040594 0.0103773)
(0.00127855 -0.000803132 0.0117024)
(0.00125868 -0.000550785 0.013249)
(0.00131867 -0.00042721 0.0140589)
(0.000652443 9.1559e-05 0.00898068)
(0.00161912 1.58046e-05 0.0110006)
(0.00124366 -0.000910134 0.0128699)
(0.00117169 -0.00125518 0.0140389)
(0.000313316 -0.000435514 0.00866773)
(0.000294838 -0.000688299 0.00859206)
(0.0012535 -0.0018773 0.0100157)
(0.00155605 -0.00168623 0.0123999)
(0.000508567 -0.000876116 0.0082977)
(0.000914259 -0.00025616 0.0118176)
(0.000473077 0.000545151 0.0139787)
(0.000986746 0.000316698 0.0145683)
(-7.24236e-06 -0.000697645 0.00840813)
(0.000987982 -0.000137045 0.0115378)
(0.000997991 -4.08049e-06 0.013236)
(0.000588915 -0.000257063 0.0144732)
(0.000803002 -0.000198571 0.00780081)
(0.000639017 -0.000140313 0.010922)
(0.000308173 -0.000218022 0.0131027)
(0.000614758 -0.000360914 0.0136106)
(0.000289962 -0.00012407 0.00693445)
(0.000912421 -0.000759841 0.00929096)
(0.000677047 -0.000354994 0.010501)
(0.000330969 -0.000401791 0.0123759)
(-0.000284009 0.000487234 0.00745823)
(0.00081455 -0.000924037 0.0109903)
(0.000293404 -0.000365512 0.0133735)
(-0.000131235 -0.000422206 0.0142249)
(0.000245929 -0.00128112 0.00808836)
(0.0003293 -0.00121471 0.011459)
(-8.85503e-05 -0.000500011 0.0128567)
(-0.000494278 0.000503291 0.0140885)
(0.00110844 -0.000427082 0.00707337)
(-0.00125323 0.00044368 0.00973877)
(-0.000235461 0.000723296 0.0126908)
(-0.000230483 0.000376974 0.0136944)
(0.000923036 0.000634817 0.00510795)
(0.00023518 0.00106841 0.008035)
(0.00033337 0.000562779 0.00965394)
(-0.000754625 -4.81913e-05 0.0132983)
(-0.00378836 0.00345408 0.00767394)
(0 0 0)
(0 0 0)
(0 0 0)
(0 0 0)
(0 0 0)
(0 0 0)
(0 0 0)
(0 0 0)
(0 0 0)
(0 0 0)
(0 0 0)
(0 0 0)
(0 0 0)
(0 0 0)
(0 0 0)
(0 0 0)
(0 0 0)
(0 0 0)
(0 0 0)
(0 0 0)
(0 0 0)
(0 0 0)
(0 0 0)
(0 0 0)
(0 0 0)
(0 0 0)
(0 0 0)
(0 0 0)
(0 0 0)
(0 0 0)
(0 0 0)
(0 0 0)
(0 0 0)
(0 0 0)
(0 0 0)
(0 0 0)
(0 0 0)
(0 0 0)
(0 0 0)
(0 0 0)
(0 0 0)
(0 0 0)
(0 0 0)
(0 0 0)
(0 0 0)
(0 0 0)
(0 0 0)
(0 0 0)
(0 0 0)
(0 0 0)
(0 0 0)
(0 0 0)
(0 0 0)
(0 0 0)
(0 0 0)
(0 0 0)
(0 0 0)
(0 0 0)
(0 0 0)
(0 0 0)
(0 0 0)
(0 0 0)
(0 0 0)
(0 0 0)
(0 0 0)
(0 0 0)
(0 0 0)
(0 0 0)
(0 0 0)
(0 0 0)
(0 0 0)
(0 0 0)
(0 0 0)
(0 0 0)
(0 0 0)
(0 0 0)
(0 0 0)
(0 0 0)
(0 0 0)
(0 0 0)
(0 0 0)
(0 0 0)
(0 0 0)
(0 0 0)
(0 0 0)
(0 0 0)
(0 0 0)
(0 0 0)
(0 0 0)
(0 0 0)
(0 0 0)
(0 0 0)
(0 0 0)
(0 0 0)
(0 0 0)
(0 0 0)
(0 0 0)
(0 0 0)
(0 0 0)
(0 0 0)
(0 0 0)
(0 0 0)
(0 0 0)
(0 0 0)
(0 0 0)
(0 0 0)
(0 0 0)
(0 0 0)
(0 0 0)
(0 0 0)
(0 0 0)
(0 0 0)
(0 0 0)
(0 0 0)
(0 0 0)
(0 0 0)
(0 0 0)
(0 0 0)
(0 0 0)
(0 0 0)
(0 0 0)
(0 0 0)
(0 0 0)
(0 0 0)
(0 0 0)
(0 0 0)
(0 0 0)
(0 0 0)
(0 0 0)
(0 0 0)
(0 0 0)
(0 0 0)
(0 0 0)
(0 0 0)
(0 0 0)
(0 0 0)
(0 0 0)
(0 0 0)
(0 0 0)
(0 0 0)
(0 0 0)
(0 0 0)
(0 0 0)
(0 0 0)
(0 0 0)
(0 0 0)
(0 0 0)
(0 0 0)
(0 0 0)
(0 0 0)
(0 0 0)
(0 0 0)
(0 0 0)
(0 0 0)
(0 0 0)
(0 0 0)
(0 0 0)
(0 0 0)
(0 0 0)
(0 0 0)
(0 0 0)
(0 0 0)
(0 0 0)
(0 0 0)
(0 0 0)
(0 0 0)
(0 0 0)
(0 0 0)
(0 0 0)
(0 0 0)
(0 0 0)
(0 0 0)
(0 0 0)
(0 0 0)
(0 0 0)
(0 0 0)
(0 0 0)
(0 0 0)
(0 0 0)
(0 0 0)
(0 0 0)
(0 0 0)
(0 0 0)
(0 0 0)
(0 0 0)
(0 0 0)
(0 0 0)
(0 0 0)
(0 0 0)
(0 0 0)
(0 0 0)
(0 0 0)
(0 0 0)
(0 0 0)
(0 0 0)
(0 0 0)
(0 0 0)
(0 0 0)
(0 0 0)
(0 0 0)
(0 0 0)
(0 0 0)
(0 0 0)
(0 0 0)
(0 0 0)
(0 0 0)
(0 0 0)
(0 0 0)
(0 0 0)
(0 0 0)
(0 0 0)
(0 0 0)
(0 0 0)
(0 0 0)
(0 0 0)
(0 0 0)
(0 0 0)
(0 0 0)
(0 0 0)
(0 0 0)
(0 0 0)
(0 0 0)
(0 0 0)
(0 0 0)
(0 0 0)
(0 0 0)
(0 0 0)
(0 0 0)
(0 0 0)
(0 0 0)
(0 0 0)
(0 0 0)
(0 0 0)
(0 0 0)
(0 0 0)
(0 0 0)
(0 0 0)
(0 0 0)
(0 0 0)
(0 0 0)
(0 0 0)
(0 0 0)
(0 0 0)
(0 0 0)
(0 0 0)
(0 0 0)
(0 0 0)
(0 0 0)
(0 0 0)
(0 0 0)
(0 0 0)
(0 0 0)
(0 0 0)
(0 0 0)
(0 0 0)
(0 0 0)
(0 0 0)
(0 0 0)
(0 0 0)
(0 0 0)
(0 0 0)
(0 0 0)
(0 0 0)
(0 0 0)
(0 0 0)
(0 0 0)
(0 0 0)
(0 0 0)
(0 0 0)
(0 0 0)
(0 0 0)
)
;

boundaryField
{
    inlet
    {
        type            zeroGradient;
    }
    outlet
    {
        type            zeroGradient;
    }
    wall
    {
        type            zeroGradient;
    }
    procBoundary2to0
    {
        type            processor;
        value           nonuniform List<vector> 
192
(
(6.44179e-05 -4.63804e-05 7.25228e-05)
(-0.000133811 -0.000115444 -2.71671e-05)
(4.56017e-05 -7.19686e-05 0.000278719)
(2.32658e-05 -4.03107e-05 -9.57479e-06)
(-0.00101412 -0.000106852 0.0139027)
(-3.95659e-05 -0.000242422 0.013457)
(0.00219969 0.000551814 0.012123)
(0.000823733 1.62415e-05 0.0135129)
(0.000948996 0.00048454 0.0137327)
(0.000813083 9.52139e-06 0.0143067)
(0.000563519 0.000153551 0.0143505)
(0.000517881 0.000392621 0.0152843)
(0.00180272 0.000197427 0.0142723)
(0.00150066 0.000273204 0.0150202)
(0.00106963 0.000388494 0.0152988)
(0.000543253 -1.13814e-05 0.0156574)
(0.000896732 0.000366119 0.014794)
(0.00109577 0.000187564 0.015363)
(0.000595234 0.000396136 0.0153106)
(2.25891e-05 6.9258e-05 0.0159167)
(0.000522194 0.000203372 0.0147317)
(0.000317115 9.06703e-05 0.0152719)
(0.000156553 0.000161209 0.0155133)
(7.02607e-05 2.06016e-05 0.0157085)
(0.000552182 -2.1345e-05 0.0148963)
(-0.000122714 -0.000264748 0.0152885)
(-2.97272e-05 0.000185152 0.0154982)
(-0.000218192 0.000335266 0.0154905)
(0 0 0)
(0 0 0)
(0 0 0)
(0 0 0)
(0 0 0)
(0 0 0)
(0 0 0)
(0 0 0)
(0 0 0)
(0 0 0)
(0 0 0)
(0 0 0)
(0 0 0)
(0 0 0)
(0 0 0)
(0 0 0)
(0 0 0)
(0 0 0)
(0 0 0)
(0 0 0)
(0 0 0)
(0 0 0)
(0 0 0)
(0 0 0)
(0 0 0)
(0 0 0)
(0 0 0)
(0 0 0)
(0 0 0)
(0 0 0)
(0 0 0)
(0 0 0)
(0 0 0)
(0 0 0)
(0 0 0)
(0 0 0)
(0 0 0)
(0 0 0)
(0 0 0)
(0 0 0)
(0 0 0)
(0 0 0)
(0 0 0)
(0 0 0)
(0 0 0)
(0 0 0)
(0 0 0)
(0 0 0)
(0 0 0)
(0 0 0)
(0 0 0)
(0 0 0)
(0 0 0)
(0 0 0)
(0 0 0)
(0 0 0)
(0 0 0)
(0 0 0)
(0 0 0)
(0 0 0)
(0 0 0)
(0 0 0)
(0 0 0)
(0 0 0)
(0 0 0)
(0 0 0)
(0 0 0)
(0 0 0)
(0.000362351 0.000439786 3.9002e-05)
(0.000188699 0.000338449 5.04545e-05)
(-4.76841e-05 0.000370703 -0.000280799)
(0.000328536 -0.000271261 0.000235301)
(0.000417406 0.000864584 0.0103611)
(0.00125477 0.000363476 0.00979949)
(-0.000301993 0.000423097 0.00965455)
(-0.000804207 3.96992e-05 0.0123996)
(0.000809309 0.00242168 0.011116)
(0.00173099 0.000514364 0.0114096)
(0.000128078 -0.000736077 0.0120836)
(0.00077394 -0.000217901 0.0128916)
(0.000771324 -9.1367e-07 0.0098733)
(0.00157518 -0.000181107 0.0108174)
(0.00187349 -0.000235001 0.0136229)
(0.00191356 -0.000347391 0.0141599)
(0.00148077 -0.00089743 0.00862786)
(0.00115232 0.000276876 0.0112012)
(0.00136948 0.00107676 0.0137395)
(0.00103041 0.000274654 0.0144213)
(0.000894441 -0.000358298 0.0064779)
(0.00119113 -0.000230976 0.0114923)
(0.000464988 0.000631865 0.0135302)
(0.000758153 0.000364214 0.0144035)
(-0.000168102 -0.000304629 0.0056227)
(-0.000564192 5.6688e-05 0.0107284)
(-0.000729617 -0.000492488 0.0124336)
(6.82739e-05 0.000313811 0.0139995)
(1.53723e-18 -2.95642e-18 -6.69126e-18)
(-0.00132408 -0.000563387 0.0120525)
(-0.00132408 -0.000563387 0.0120525)
(0 0 0)
(0 0 0)
(0 0 0)
(0 0 0)
(0 0 0)
(0 0 0)
(0 0 0)
(0 0 0)
(0 0 0)
(0 0 0)
(0 0 0)
(0 0 0)
(0 0 0)
(0 0 0)
(0 0 0)
(0 0 0)
(0 0 0)
(0 0 0)
(0 0 0)
(0 0 0)
(0 0 0)
(0 0 0)
(0 0 0)
(0 0 0)
(0 0 0)
(0 0 0)
(0 0 0)
(0 0 0)
(0 0 0)
(0 0 0)
(0 0 0)
(0 0 0)
(0 0 0)
(0 0 0)
(0 0 0)
(0 0 0)
(0 0 0)
(0 0 0)
(0 0 0)
(0 0 0)
(0 0 0)
(0 0 0)
(0 0 0)
(0 0 0)
(0 0 0)
(0 0 0)
(0 0 0)
(0 0 0)
(0 0 0)
(0 0 0)
(0 0 0)
(0 0 0)
(0 0 0)
(0 0 0)
(0 0 0)
(0 0 0)
(0 0 0)
(0 0 0)
(0 0 0)
(0 0 0)
(0 0 0)
(0 0 0)
(0 0 0)
(0 0 0)
(0 0 0)
)
;
    }
    procBoundary2to3
    {
        type            processor;
        value           nonuniform List<vector> 
192
(
(-5.65425e-05 0.00026342 -1.33182e-05)
(0.000159088 0.000406842 0.000191269)
(0.000366788 3.91872e-05 0.000282476)
(0.000594821 -0.000444017 -1.94134e-05)
(0.000444431 -0.000352365 0.0133326)
(0.00162504 -0.000508687 0.0125103)
(0.000850446 0.00118564 0.0115532)
(0.00213164 0.000882547 0.0130331)
(0.000125406 -0.000801259 0.0152628)
(0.000225928 -0.000726151 0.0155549)
(0.000465881 -0.000441444 0.0148579)
(0.000333412 0.000734148 0.0146041)
(0.000226033 -0.000146996 0.0155633)
(0.000266631 -1.33518e-06 0.0154948)
(0.000697662 -0.000376138 0.01494)
(0.00068343 -0.000907022 0.0146019)
(0.00010193 -2.50548e-05 0.0156491)
(0.000204047 0.000114483 0.0155381)
(0.00046396 2.51486e-05 0.015483)
(3.10715e-05 -0.000332988 0.0150425)
(-1.8188e-05 0.000263499 0.0156959)
(-0.000100734 0.000129738 0.0155311)
(-0.000206668 -0.000129592 0.0155423)
(-0.000776817 -0.000402847 0.0152201)
(-0.000383904 0.000269634 0.0156699)
(-0.000355361 0.000427755 0.0155198)
(-0.000363708 -0.000367445 0.0157124)
(-0.0010199 -0.000451939 0.0157891)
(0 0 0)
(0 0 0)
(0 0 0)
(0 0 0)
(0 0 0)
(0 0 0)
(0 0 0)
(0 0 0)
(0 0 0)
(0 0 0)
(0 0 0)
(0 0 0)
(0 0 0)
(0 0 0)
(0 0 0)
(0 0 0)
(0 0 0)
(0 0 0)
(0 0 0)
(0 0 0)
(0 0 0)
(0 0 0)
(0 0 0)
(0 0 0)
(0 0 0)
(0 0 0)
(0 0 0)
(0 0 0)
(0 0 0)
(0 0 0)
(0 0 0)
(0 0 0)
(0 0 0)
(0 0 0)
(0 0 0)
(0 0 0)
(0 0 0)
(0 0 0)
(0 0 0)
(0 0 0)
(0 0 0)
(0 0 0)
(0 0 0)
(0 0 0)
(0 0 0)
(0 0 0)
(0 0 0)
(0 0 0)
(0 0 0)
(0 0 0)
(0 0 0)
(0 0 0)
(0 0 0)
(0 0 0)
(0 0 0)
(0 0 0)
(0 0 0)
(0 0 0)
(0 0 0)
(0 0 0)
(0 0 0)
(0 0 0)
(0 0 0)
(0 0 0)
(0 0 0)
(0 0 0)
(0 0 0)
(0 0 0)
(-0.00033641 -0.000279068 -0.000346666)
(0.000461886 -0.000774942 -0.000706917)
(-0.00042699 -0.000593592 1.39232e-05)
(-4.7347e-05 -0.000388343 0.000255029)
(0.000433765 -0.00020797 0.0133927)
(0.000993617 -0.000623556 0.0105152)
(0.000780123 -0.000176268 0.0115493)
(0.00177778 -0.000652478 0.0104273)
(0.000928779 -0.00096991 0.0137447)
(0.000865131 -0.00190098 0.0128567)
(0.00151077 -0.000103323 0.0128411)
(0.00178229 0.000194073 0.0114382)
(0.000741207 -0.000815632 0.0150508)
(0.000233998 -0.00111764 0.0134186)
(0.000914818 -0.00102384 0.0122285)
(0.000719535 -0.000365393 0.0122905)
(0.000400777 -0.000503543 0.0147167)
(0.000693605 -0.00122754 0.0132147)
(0.000783183 -0.00168606 0.0127572)
(0.000475689 -2.77345e-05 0.00919856)
(-0.000314729 -0.000492672 0.0152436)
(0.00019474 -0.00124718 0.0140839)
(-8.62044e-05 -0.00104189 0.0118109)
(0.000472011 -5.99454e-05 0.00955859)
(-0.000345026 7.39288e-05 0.0149541)
(-0.000585615 -0.00130278 0.0140441)
(0.000322025 -0.00152321 0.0116403)
(0.000578707 5.5131e-05 0.00819172)
(0 0 0)
(0 0 0)
(0 0 0)
(0 0 0)
(0 0 0)
(0 0 0)
(0 0 0)
(0 0 0)
(0 0 0)
(0 0 0)
(0 0 0)
(0 0 0)
(0 0 0)
(0 0 0)
(0 0 0)
(0 0 0)
(0 0 0)
(0 0 0)
(0 0 0)
(0 0 0)
(0 0 0)
(0 0 0)
(0 0 0)
(0 0 0)
(0 0 0)
(0 0 0)
(0 0 0)
(0 0 0)
(0 0 0)
(0 0 0)
(0 0 0)
(0 0 0)
(0 0 0)
(0 0 0)
(0 0 0)
(0 0 0)
(0 0 0)
(0 0 0)
(0 0 0)
(0 0 0)
(0 0 0)
(0 0 0)
(0 0 0)
(0 0 0)
(0 0 0)
(0 0 0)
(0 0 0)
(0 0 0)
(0 0 0)
(0 0 0)
(0 0 0)
(0 0 0)
(0 0 0)
(0 0 0)
(0 0 0)
(0 0 0)
(0 0 0)
(0 0 0)
(0 0 0)
(0 0 0)
(0 0 0)
(0 0 0)
(0 0 0)
(0 0 0)
(0 0 0)
(0 0 0)
(0 0 0)
(0 0 0)
)
;
    }
}


// ************************************************************************* //
