/*--------------------------------*- C++ -*----------------------------------*\
| =========                 |                                                 |
| \\      /  F ield         | OpenFOAM: The Open Source CFD Toolbox           |
|  \\    /   O peration     | Version:  2506                                  |
|   \\  /    A nd           | Website:  www.openfoam.com                      |
|    \\/     M anipulation  |                                                 |
\*---------------------------------------------------------------------------*/
FoamFile
{
    version     2.0;
    format      ascii;
    arch        "LSB;label=32;scalar=64";
    class       volScalarField;
    location    "0.09";
    object      voidfraction;
}
// * * * * * * * * * * * * * * * * * * * * * * * * * * * * * * * * * * * * * //

dimensions      [0 0 0 0 0 0 0];

internalField   nonuniform List<scalar> 
1152
(
0.499664
0.399596
0.349563
0.46543
0.475963
0.407496
0.499664
0.462797
0.49703
0.48123
0.46543
0.391696
0.41013
0.39433
0.460163
0.478597
0.428563
0.45753
0.48913
0.478597
0.42593
0.44963
0.47333
0.43383
0.428563
0.507564
0.446997
0.468063
0.460163
0.444363
0.50493
0.420663
0.304796
0.431196
0.40223
0.428563
0.423296
0.396963
0.399596
0.399596
0.381163
0.381163
0.360096
0.333763
0.383796
0.475963
0.420663
0.341663
0.40223
0.428563
0.452263
0.428563
0.42593
0.360096
0.415396
0.375896
0.396963
0.39433
0.428563
0.44173
0.444363
0.360096
0.412763
0.375896
0.352196
0.399596
0.47333
0.381163
0.349563
0.370629
0.41013
0.399596
0.48123
0.362729
0.404863
0.415396
0.407496
0.346929
0.354829
0.431196
0.454897
0.333763
0.381163
0.420663
0.452263
0.378529
0.357463
0.341663
0.478597
0.391696
0.44173
0.412763
0.420663
0.375896
0.344296
0.304796
0.636598
0.589197
0.597097
0.549697
0.589197
0.649764
0.568131
0.565497
0.770899
0.726132
0.557597
0.615531
0.631331
0.655031
0.547064
0.731398
1
1
1
1
1
1
1
1
1
1
1
1
1
1
1
1
1
1
1
1
1
1
1
1
1
1
1
1
1
1
1
1
1
1
1
1
1
1
1
1
1
1
1
1
1
1
1
1
1
1
1
1
1
1
1
1
1
1
1
1
1
1
1
1
1
1
1
1
1
1
1
1
1
1
1
1
1
1
1
1
1
1
1
1
1
1
1
1
1
1
1
1
1
1
1
1
1
1
1
1
1
1
1
1
1
1
1
1
1
1
1
1
1
1
1
1
1
1
1
1
1
1
1
1
1
1
1
1
1
1
1
1
1
1
1
1
1
1
1
1
1
1
1
1
1
1
1
1
1
1
1
1
1
1
1
1
1
1
1
1
1
1
1
1
1
1
1
1
1
1
1
1
1
1
1
1
1
1
1
1
1
1
1
1
1
1
1
1
1
1
1
1
1
1
1
1
1
1
1
1
1
1
1
1
1
1
1
1
1
1
1
1
1
1
1
1
1
1
1
1
1
1
1
1
1
1
1
1
1
1
1
1
1
1
1
1
1
1
1
1
1
1
1
1
1
1
1
1
1
1
1
1
1
1
1
1
1
1
1
1
1
1
1
1
1
1
1
1
1
1
1
1
0.491801
0.435116
0.4505
0.488804
0.419719
0.487571
0.508544
0.438422
0.483292
0.476226
0.477765
0.469863
0.460439
0.473844
0.434003
0.491734
0.347228
0.515355
0.431552
0.443699
0.408839
0.407244
0.453937
0.394203
0.427599
0.478662
0.490451
0.45206
0.490115
0.441231
0.496892
0.475627
0.377895
0.396601
0.369293
0.486298
0.365318
0.385085
0.437318
0.445055
0.446164
0.422631
0.420679
0.416454
0.406483
0.347741
0.462589
0.450572
0.456753
0.370924
0.4505
0.416134
0.376198
0.443252
0.370841
0.36325
0.378095
0.386088
0.435479
0.48371
0.390296
0.462973
0.338717
0.466679
0.408562
0.435116
0.461327
0.323417
0.383452
0.426633
0.418325
0.372094
0.368812
0.398269
0.391079
0.368979
0.406483
0.349915
0.407323
0.448782
0.539993
0.40302
0.461327
0.313394
0.390705
0.404474
0.43257
0.447266
0.399753
0.437248
0.380507
0.349198
0.425368
0.426012
0.489269
0.45952
0.61447
0.646947
0.604793
0.624121
0.561163
0.595596
0.582143
0.577711
0.619431
0.739331
0.621538
0.596463
0.625005
0.660825
0.597894
0.506051
1
1
1
1
1
1
1
1
1
1
1
1
1
1
1
0.99821
1
1
1
1
1
1
1
1
1
1
1
1
1
1
1
1
1
1
1
1
1
1
1
1
1
1
1
1
1
1
1
1
1
1
1
1
1
1
1
1
1
1
1
1
1
1
1
1
1
1
1
1
1
1
1
1
1
1
1
1
1
1
1
1
1
1
1
1
1
1
1
1
1
1
1
1
1
1
1
1
1
1
1
1
1
1
1
1
1
1
1
1
1
1
1
1
1
1
1
1
1
1
1
1
1
1
1
1
1
1
1
1
1
1
1
1
1
1
1
1
1
1
1
1
1
1
1
1
1
1
1
1
1
1
1
1
1
1
1
1
1
1
1
1
1
1
1
1
1
1
1
1
1
1
1
1
1
1
1
1
1
1
1
1
1
1
1
1
1
1
1
1
1
1
1
1
1
1
1
1
1
1
1
1
1
1
1
1
1
1
1
1
1
1
1
1
1
1
1
1
1
1
1
1
1
1
1
1
1
1
1
1
1
1
1
1
1
1
1
1
1
1
1
1
1
1
1
1
1
1
1
1
1
1
1
1
1
1
1
1
1
1
1
1
1
1
1
1
1
1
1
1
1
1
1
1
0.450572
0.521294
0.493696
0.436181
0.481646
0.452394
0.451563
0.428845
0.467322
0.510332
0.50142
0.486469
0.490115
0.415223
0.492255
0.439229
0.429096
0.467885
0.573289
0.38857
0.424475
0.424908
0.520415
0.420724
0.521676
0.47379
0.404474
0.483259
0.549467
0.45854
0.550283
0.500563
0.479206
0.382826
0.372094
0.386064
0.456872
0.458737
0.41595
0.358465
0.469496
0.437248
0.404474
0.422277
0.428065
0.375
0.379825
0.456753
0.438044
0.558879
0.467164
0.411122
0.432097
0.367821
0.427821
0.369293
0.417315
0.415322
0.421093
0.386972
0.436159
0.433788
0.365318
0.395419
0.421937
0.418432
0.40968
0.381052
0.392077
0.40165
0.408828
0.409896
0.367308
0.437248
0.393394
0.374134
0.441554
0.316213
0.45236
0.299036
0.40762
0.424366
0.442844
0.416134
0.393983
0.374164
0.427821
0.404483
0.384702
0.432375
0.349076
0.412649
0.455043
0.439976
0.372572
0.334084
0.504262
0.580638
0.608664
0.548945
0.57312
0.627881
0.653369
0.6075
0.526025
0.71497
0.659304
0.643738
0.552164
0.535891
0.662712
0.623232
0.99821
1
1
1
1
1
1
1
1
1
1
1
1
1
1
1
1
1
1
1
1
1
1
1
1
1
1
1
1
1
1
1
1
1
1
1
1
1
1
1
1
1
1
1
1
1
1
1
1
1
1
1
1
1
1
1
1
1
1
1
1
1
1
1
1
1
1
1
1
1
1
1
1
1
1
1
1
1
1
1
1
1
1
1
1
1
1
1
1
1
1
1
1
1
1
1
1
1
1
1
1
1
1
1
1
1
1
1
1
1
1
1
1
1
1
1
1
1
1
1
1
1
1
1
1
1
1
1
1
1
1
1
1
1
1
1
1
1
1
1
1
1
1
1
1
1
1
1
1
1
1
1
1
1
1
1
1
1
1
1
1
1
1
1
1
1
1
1
1
1
1
1
1
1
1
1
1
1
1
1
1
1
1
1
1
1
1
1
1
1
1
1
1
1
1
1
1
1
1
1
1
1
1
1
1
1
1
1
1
1
1
1
1
1
1
1
1
1
1
1
1
1
1
1
1
1
1
1
1
1
1
1
1
1
1
1
1
1
1
1
1
1
1
1
1
1
1
1
1
1
1
1
1
1
1
1
1
1
1
1
1
1
1
1
1
1
1
1
1
1
1
1
)
;

boundaryField
{
    inlet
    {
        type            fixedValue;
        value           uniform 1;
    }
    outlet
    {
        type            fixedValue;
        value           uniform 1;
    }
    wall
    {
        type            zeroGradient;
    }
    procBoundary2to0
    {
        type            processor;
        value           nonuniform List<scalar> 
192
(
0.470697
0.589197
0.470697
0.539164
0.478597
0.470697
0.46543
0.491764
0.41803
0.328496
0.349563
0.46543
0.420663
0.370629
0.328496
0.315329
0.381163
0.375896
0.341663
0.360096
0.320596
0.44963
0.423296
0.478597
0.715598
0.749832
0.623431
0.578664
1
1
1
1
1
1
1
1
1
1
1
1
1
1
1
1
1
1
1
1
1
1
1
1
1
1
1
1
1
1
1
1
1
1
1
1
1
1
1
1
1
1
1
1
1
1
1
1
1
1
1
1
1
1
1
1
1
1
1
1
1
1
1
1
1
1
1
1
0.507841
0.448104
0.405258
0.496322
0.502472
0.412498
0.365461
0.476275
0.370037
0.446126
0.447266
0.456228
0.373616
0.339307
0.391992
0.38857
0.472048
0.412498
0.391992
0.37604
0.421937
0.440191
0.425157
0.413628
0.609852
0.513382
0.577711
0.591544
1
0.996044
0.991156
1
1
1
1
1
1
1
1
1
1
1
1
1
1
1
1
1
1
1
1
1
1
1
1
1
1
1
1
1
1
1
1
1
1
1
1
1
1
1
1
1
1
1
1
1
1
1
1
1
1
1
1
1
1
1
1
1
1
1
1
1
1
1
1
1
)
;
    }
    procBoundary2to3
    {
        type            processor;
        value           nonuniform List<scalar> 
192
(
0.428563
0.525997
0.539164
0.40223
0.462797
0.44173
0.431196
0.507564
0.381163
0.349563
0.378529
0.45753
0.383796
0.38643
0.333763
0.378529
0.491764
0.412763
0.407496
0.357463
0.415396
0.454897
0.383796
0.47333
0.607631
0.568131
0.620798
0.639231
1
1
1
1
1
1
1
1
1
1
1
1
1
1
1
1
1
1
1
1
1
1
1
1
1
1
1
1
1
1
1
1
1
1
1
1
1
1
1
1
1
1
1
1
1
1
1
1
1
1
1
1
1
1
1
1
1
1
1
1
1
1
1
1
1
1
1
1
0.488804
0.445055
0.457994
0.45952
0.436181
0.482641
0.459973
0.409409
0.338452
0.361039
0.374913
0.420147
0.408616
0.321243
0.368979
0.378985
0.446204
0.436211
0.448104
0.384354
0.471263
0.33893
0.485688
0.346771
0.674238
0.59761
0.727019
0.690387
1
1
1
1
1
1
1
1
1
1
1
1
1
1
1
1
1
1
1
1
1
1
1
1
1
1
1
1
1
1
1
1
1
1
1
1
1
1
1
1
1
1
1
1
1
1
1
1
1
1
1
1
1
1
1
1
1
1
1
1
1
1
1
1
1
1
1
1
)
;
    }
}


// ************************************************************************* //
