/*--------------------------------*- C++ -*----------------------------------*\
| =========                 |                                                 |
| \\      /  F ield         | OpenFOAM: The Open Source CFD Toolbox           |
|  \\    /   O peration     | Version:  2506                                  |
|   \\  /    A nd           | Website:  www.openfoam.com                      |
|    \\/     M anipulation  |                                                 |
\*---------------------------------------------------------------------------*/
FoamFile
{
    version     2.0;
    format      ascii;
    arch        "LSB;label=32;scalar=64";
    class       surfaceScalarField;
    location    "0.07";
    object      phi;
}
// * * * * * * * * * * * * * * * * * * * * * * * * * * * * * * * * * * * * * //

dimensions      [0 3 -1 0 0 0 0];

oriented        oriented;

internalField   nonuniform List<scalar> 
3120
(
1.15186e-09
-6.24009e-12
4.71815e-08
7.1254e-10
-3.86557e-09
5.65155e-08
-8.90041e-09
-5.10849e-09
6.81047e-08
4.70883e-09
2.76819e-08
9.30453e-10
-1.81862e-09
2.71211e-09
4.55934e-08
9.73485e-10
2.22845e-09
3.45777e-08
3.08832e-09
3.0312e-09
3.25795e-08
5.71332e-10
5.03452e-08
1.84467e-09
7.41768e-10
-9.89097e-10
5.19452e-08
4.69685e-09
6.93453e-09
3.56345e-08
-4.63854e-10
6.82842e-10
5.08853e-08
2.11996e-09
3.85814e-08
4.20299e-09
5.76114e-09
3.72203e-08
1.11286e-09
-2.35249e-09
6.27687e-08
-3.86352e-09
-1.71126e-09
4.64123e-08
-2.81498e-09
4.5389e-08
-1.46716e-09
3.33223e-10
-5.07129e-10
5.1073e-10
4.32724e-08
2.25063e-09
5.17557e-09
4.53345e-08
1.04322e-08
4.67662e-09
4.74463e-08
-5.08067e-09
4.84688e-08
-2.12594e-09
2.90271e-09
-4.01529e-09
4.99239e-08
2.97306e-09
5.58395e-10
3.91246e-08
3.78125e-09
9.63559e-10
3.54844e-08
1.31005e-09
4.52858e-08
2.44994e-09
6.7022e-09
1.01742e-08
2.58897e-08
1.95743e-09
3.6892e-09
3.72485e-08
1.53792e-09
2.04958e-09
5.02188e-08
4.53577e-09
3.47071e-08
2.18651e-09
3.83586e-09
5.17416e-08
-1.98681e-09
-3.18466e-09
7.6798e-08
-3.31952e-09
1.05019e-09
3.98659e-08
4.36109e-09
3.56766e-08
9.68123e-09
5.61733e-09
-1.45396e-09
4.31622e-09
3.7896e-08
4.01364e-09
1.56345e-09
3.34714e-08
8.28166e-09
-2.77531e-10
4.36405e-08
-3.73043e-09
6.87429e-08
-1.29299e-09
-2.88399e-09
5.99481e-10
6.18435e-08
-3.60098e-10
2.11601e-09
3.60482e-08
1.11333e-09
-4.4763e-10
3.41812e-08
4.94753e-09
3.58999e-08
1.82141e-09
6.96326e-10
9.64507e-10
2.56381e-08
-2.75783e-09
-3.31765e-09
4.61364e-08
4.89992e-09
4.9156e-09
3.71979e-08
5.98717e-09
3.37115e-08
4.85596e-09
-4.05521e-09
5.72168e-08
2.49712e-09
5.74351e-09
5.91232e-08
4.55843e-09
5.28482e-09
4.19216e-08
3.3185e-09
4.80478e-08
-9.40591e-10
-1.58463e-10
-3.93584e-09
-5.38157e-09
6.15431e-08
-2.03695e-09
-1.16332e-09
2.76436e-08
-2.92681e-09
1.40089e-09
4.30419e-08
4.44885e-09
4.97841e-08
4.31777e-09
-7.47717e-10
8.37747e-10
5.28857e-08
5.50691e-10
4.91226e-11
3.35374e-08
-7.56044e-10
-3.88058e-10
3.72769e-08
9.29432e-10
4.02619e-08
-1.59869e-09
-1.09165e-09
-3.99027e-09
3.25101e-08
-7.288e-10
-3.43168e-09
4.92544e-08
1.13525e-09
4.49037e-09
3.04554e-08
-9.12003e-10
4.01003e-08
-3.41215e-09
-1.3207e-09
4.99576e-08
4.17855e-09
6.88605e-09
4.45961e-08
2.88864e-09
-4.29041e-09
5.59767e-08
1.61172e-09
5.03675e-08
-8.53918e-09
1.01724e-09
7.401e-09
-1.02853e-10
6.08398e-08
-3.01014e-09
-1.90894e-09
4.95387e-08
-2.89649e-09
4.92907e-09
4.12962e-08
7.12369e-09
3.02908e-08
5.35006e-09
-1.18071e-12
1.90719e-09
5.14381e-08
4.3929e-09
-5.16783e-10
2.77511e-08
1.86472e-09
-2.27411e-09
4.70083e-08
-1.87984e-09
5.08618e-08
2.68383e-10
-2.18995e-09
4.75066e-09
3.29993e-08
1.60974e-09
1.21417e-09
4.37238e-08
1.96346e-09
-2.19833e-09
3.00259e-08
-6.93235e-09
4.97526e-08
-2.63646e-09
-5.32713e-09
7.33126e-08
-6.71652e-09
-2.37183e-09
4.38896e-08
-1.0346e-09
-4.72607e-09
5.16189e-08
4.51357e-09
3.4499e-08
2.93553e-09
1.27455e-09
-1.64849e-09
1.01696e-09
6.09738e-08
8.13697e-09
7.07703e-09
4.00523e-08
5.44642e-09
3.02309e-09
4.50495e-08
-1.75033e-09
4.97672e-08
-3.1246e-09
3.27773e-09
7.92997e-09
3.90918e-08
3.52153e-09
3.50504e-09
3.10792e-08
5.8632e-09
4.29601e-09
4.33937e-08
-1.18932e-09
5.66158e-08
-4.51859e-10
9.82586e-10
-4.62129e-09
4.50276e-08
2.05854e-09
-1.12227e-10
4.62651e-08
-4.21645e-10
-3.63073e-10
3.71651e-08
9.88228e-10
4.90361e-08
-1.88275e-09
7.70566e-09
4.30478e-08
3.84971e-09
1.41971e-09
4.97457e-08
3.17555e-10
4.64293e-10
5.84774e-08
-6.2661e-09
3.70982e-08
-2.13431e-09
9.87575e-10
1.21585e-09
1.50487e-09
5.09822e-08
-1.1242e-09
3.90386e-11
4.14864e-08
-1.32952e-09
2.89512e-10
4.09947e-08
2.35545e-10
5.10533e-08
-3.38601e-10
-2.26214e-10
-8.71521e-10
4.03801e-08
-2.04575e-09
-1.99484e-09
3.49329e-08
-2.82811e-09
1.71576e-09
4.27498e-08
1.79562e-09
5.29769e-08
-7.49288e-10
7.42809e-11
3.28013e-10
4.30287e-08
7.45333e-10
-6.63828e-10
4.42633e-08
-2.22644e-09
-1.61177e-09
4.34645e-08
1.67768e-09
4.67853e-08
1.4158e-10
-1.54527e-09
4.77316e-08
-3.24267e-09
-1.07067e-09
4.94048e-08
-7.97319e-10
1.94451e-09
5.42369e-08
-3.87093e-10
4.23718e-08
3.44134e-10
-1.99585e-09
-2.91769e-09
2.68943e-09
4.74105e-08
-9.66601e-10
4.45724e-09
3.96227e-08
4.21404e-10
3.86311e-09
4.11269e-08
2.31872e-09
4.76514e-08
2.27317e-09
-2.1765e-09
2.29743e-09
3.99929e-08
-2.25177e-09
3.02708e-09
3.64371e-08
-1.90479e-09
3.38353e-09
4.28811e-08
4.03148e-09
4.85182e-08
8.39476e-10
-1.60518e-09
2.17674e-09
4.30678e-08
-1.56695e-09
2.73905e-09
4.45119e-08
-1.17131e-09
2.48666e-09
4.3964e-08
4.49391e-09
4.5134e-08
1.55711e-11
-1.41652e-09
4.57044e-08
3.54175e-09
-1.77267e-09
4.8859e-08
3.64001e-09
5.78196e-11
5.0547e-08
4.34465e-09
4.24162e-08
4.29257e-09
2.13465e-10
6.60433e-10
-2.54789e-09
4.24359e-08
-1.68259e-09
-3.60497e-09
4.01956e-08
-4.73478e-09
-5.06971e-09
4.10102e-08
-2.72793e-09
4.43209e-08
-2.21581e-09
-1.28235e-09
-3.5207e-09
4.06908e-08
-3.48722e-09
-4.95852e-09
3.99946e-08
-4.04287e-09
-4.10254e-09
4.24687e-08
-1.75239e-09
4.49959e-08
-1.49771e-09
-2.12509e-09
-3.21345e-09
4.24842e-08
-2.10468e-09
-3.75489e-09
4.32869e-08
-2.06307e-09
-4.06886e-09
4.38868e-08
-2.10503e-09
4.44717e-08
-1.04978e-09
-2.91226e-09
4.41232e-08
-2.44108e-09
-2.10899e-09
4.56435e-08
-1.34384e-09
-3.40693e-10
4.6817e-08
-2.10838e-09
4.44449e-08
-4.50055e-09
2.47715e-11
-3.77842e-10
-1.99868e-09
4.14572e-08
-1.6032e-09
-2.60135e-09
4.10953e-08
-3.01822e-09
-3.20366e-09
4.15628e-08
-2.14825e-09
4.31673e-08
-2.1929e-09
-1.26035e-09
-2.59308e-09
4.14896e-08
-2.27717e-09
-3.17615e-09
4.15858e-08
-2.61339e-09
-2.9224e-09
4.2523e-08
-1.73827e-09
4.36827e-08
-1.71069e-09
-1.71308e-09
-2.47387e-09
4.24669e-08
-1.80352e-09
-2.73208e-09
4.29325e-08
-1.64521e-09
-2.70501e-09
4.351e-08
-1.72276e-09
4.39588e-08
-1.14892e-09
-2.08266e-09
4.34293e-08
-2.08369e-09
-1.61592e-09
4.41265e-08
-1.68246e-09
-5.8628e-10
4.47879e-08
-1.70683e-09
4.45514e-08
-2.17951e-09
-2.36846e-10
-5.14544e-10
-1.35826e-09
4.18898e-08
-1.14396e-09
-1.68671e-09
4.19311e-08
-1.74215e-09
-1.9448e-09
4.22518e-08
-1.64455e-09
4.30118e-08
-1.46573e-09
-9.34682e-10
-1.68169e-09
4.21607e-08
-1.4187e-09
-1.96637e-09
4.23487e-08
-1.64418e-09
-2.00513e-09
4.28079e-08
-1.68625e-09
4.33991e-08
-1.31958e-09
-1.1946e-09
-1.65019e-09
4.27042e-08
-1.39345e-09
-1.84007e-09
4.30042e-08
-1.38636e-09
-1.90727e-09
4.34039e-08
-1.73794e-09
4.37666e-08
-1.14335e-09
-1.43221e-09
4.32431e-08
-1.35579e-09
-1.42575e-09
4.36333e-08
-1.35404e-09
-1.16305e-09
4.40524e-08
-1.43537e-09
4.42477e-08
-1.73338e-09
-8.64685e-10
-4.52207e-10
-8.48916e-10
4.24175e-08
-7.85702e-10
-1.03256e-09
4.24988e-08
-1.05266e-09
-1.15535e-09
4.2708e-08
-1.08644e-09
4.30761e-08
-9.6955e-10
-6.57656e-10
-1.03926e-09
4.26186e-08
-9.14018e-10
-1.18951e-09
4.27618e-08
-1.03908e-09
-1.23914e-09
4.30164e-08
-1.14318e-09
4.33333e-08
-9.16852e-10
-8.01789e-10
-1.04108e-09
4.29186e-08
-9.45999e-10
-1.14846e-09
4.31069e-08
-9.57044e-10
-1.17964e-09
4.33549e-08
-1.12232e-09
4.3602e-08
-8.13637e-10
-9.24126e-10
4.32166e-08
-8.87051e-10
-9.65118e-10
4.34439e-08
-9.18414e-10
-8.68444e-10
4.36996e-08
-9.23925e-10
4.39022e-08
-9.90531e-10
-6.54862e-10
-3.31949e-10
-5.00289e-10
4.27732e-08
-5.06446e-10
-6.05349e-10
4.28384e-08
-6.23541e-10
-6.75779e-10
4.29663e-08
-6.7795e-10
4.31534e-08
-5.90135e-10
-4.40498e-10
-6.13119e-10
4.28976e-08
-5.77938e-10
-6.98488e-10
4.29925e-08
-6.38499e-10
-7.38034e-10
4.31392e-08
-7.19054e-10
4.33147e-08
-5.78668e-10
-5.2354e-10
-6.2112e-10
4.30637e-08
-6.12247e-10
-6.83753e-10
4.31808e-08
-6.20641e-10
-7.05929e-10
4.3331e-08
-6.90035e-10
4.34872e-08
-5.34843e-10
-5.90649e-10
4.32301e-08
-5.38505e-10
-6.31829e-10
4.33659e-08
-5.64714e-10
-5.93491e-10
4.3521e-08
-5.65818e-10
4.36664e-08
-5.81134e-10
-4.66436e-10
-2.29753e-10
-2.9497e-10
4.29833e-08
-3.17869e-10
-3.55281e-10
4.30284e-08
-3.68525e-10
-3.98219e-10
4.31046e-08
-4.14108e-10
4.32044e-08
-3.50584e-10
-2.90093e-10
-3.59565e-10
4.30563e-08
-3.60722e-10
-4.08748e-10
4.31171e-08
-3.8697e-10
-4.35801e-10
4.32033e-08
-4.3691e-10
4.33027e-08
-3.51946e-10
-3.38092e-10
-3.66575e-10
4.31494e-08
-3.85948e-10
-4.02289e-10
4.32224e-08
-3.87239e-10
-4.16567e-10
4.33132e-08
-4.11556e-10
4.34082e-08
-3.33327e-10
-3.75235e-10
4.32435e-08
-3.21644e-10
-3.99812e-10
4.33265e-08
-3.38122e-10
-3.78464e-10
4.34205e-08
-3.37367e-10
4.3513e-08
-3.35044e-10
-3.01326e-10
-1.5648e-10
-1.77239e-10
4.31013e-08
-1.99944e-10
-2.12302e-10
4.31315e-08
-2.21313e-10
-2.38727e-10
4.3177e-08
-2.52885e-10
4.32324e-08
-2.09317e-10
-1.91215e-10
-2.13728e-10
4.31439e-08
-2.2618e-10
-2.4236e-10
4.31828e-08
-2.35739e-10
-2.59712e-10
4.32344e-08
-2.64263e-10
4.32918e-08
-2.12954e-10
-2.19249e-10
-2.18509e-10
4.31971e-08
-2.42837e-10
-2.38816e-10
4.3243e-08
-2.3954e-10
-2.47534e-10
4.3298e-08
-2.45615e-10
4.33551e-08
-2.04686e-10
-2.40055e-10
4.32512e-08
-1.937e-10
-2.51641e-10
4.33027e-08
-2.02935e-10
-2.36493e-10
4.33599e-08
-2.01627e-10
4.34165e-08
-1.96188e-10
-1.88873e-10
-1.0648e-10
-1.0887e-10
4.31667e-08
-1.27509e-10
-1.29552e-10
4.31867e-08
-1.3581e-10
-1.45741e-10
4.32143e-08
-1.55657e-10
4.32461e-08
-1.26913e-10
-1.26945e-10
-1.29378e-10
4.31918e-08
-1.43585e-10
-1.46165e-10
4.32169e-08
-1.45585e-10
-1.56909e-10
4.32481e-08
-1.60823e-10
4.32819e-08
-1.29979e-10
-1.43443e-10
-1.32206e-10
4.32227e-08
-1.54053e-10
-1.4374e-10
4.32519e-08
-1.4904e-10
-1.48879e-10
4.32855e-08
-1.47931e-10
4.33198e-08
-1.26061e-10
-1.55178e-10
4.32543e-08
-1.18069e-10
-1.59342e-10
4.32867e-08
-1.22922e-10
-1.47833e-10
4.33217e-08
-1.21571e-10
4.3356e-08
-1.16721e-10
-1.1784e-10
-7.29292e-11
-6.84432e-11
4.32028e-08
-8.28976e-11
-8.07895e-11
4.32161e-08
-8.54176e-11
-9.06091e-11
4.3233e-08
-9.69237e-11
4.32519e-08
-7.86069e-11
-8.51661e-11
-7.99287e-11
4.32178e-08
-9.26633e-11
-8.9791e-11
4.32341e-08
-9.15801e-11
-9.62763e-11
4.32534e-08
-9.89247e-11
4.32736e-08
-8.06385e-11
-9.48924e-11
-8.13669e-11
4.32361e-08
-9.90332e-11
-8.78724e-11
4.32548e-08
-9.39709e-11
-9.07788e-11
4.32756e-08
-9.01581e-11
4.32964e-08
-7.8596e-11
-1.01492e-10
4.32549e-08
-7.29566e-11
-1.02058e-10
4.32754e-08
-7.53526e-11
-9.33488e-11
4.3297e-08
-7.41378e-11
4.33179e-08
-7.05006e-11
-7.40875e-11
-5.05165e-11
-4.41148e-11
4.32224e-08
-5.5051e-11
-5.14885e-11
4.32314e-08
-5.50906e-11
-5.73336e-11
4.32422e-08
-6.11169e-11
4.32537e-08
-4.98405e-11
-5.78367e-11
-5.04568e-11
4.32316e-08
-6.08694e-11
-5.61982e-11
4.32424e-08
-5.87674e-11
-5.9999e-11
4.32546e-08
-6.15789e-11
4.32671e-08
-5.10002e-11
-6.35132e-11
-5.09772e-11
4.32427e-08
-6.46187e-11
-5.45658e-11
4.32549e-08
-6.02024e-11
-5.60977e-11
4.3268e-08
-5.55831e-11
4.32808e-08
-4.97777e-11
-6.71497e-11
4.32541e-08
-4.57193e-11
-6.62267e-11
4.32674e-08
-4.67702e-11
-5.97397e-11
4.32809e-08
-4.57131e-11
4.32937e-08
-4.31122e-11
-4.71198e-11
-3.5354e-11
-2.90799e-11
4.32329e-08
-3.71981e-11
-3.34182e-11
4.32392e-08
-3.6262e-11
-3.68067e-11
4.32463e-08
-3.89653e-11
4.32537e-08
-3.22317e-11
-3.96636e-11
-3.24803e-11
4.32388e-08
-4.0571e-11
-3.57456e-11
4.32462e-08
-3.83516e-11
-3.78871e-11
4.32541e-08
-3.873e-11
4.3262e-08
-3.27984e-11
-4.28966e-11
-3.24472e-11
4.32458e-08
-4.26867e-11
-3.43437e-11
4.32539e-08
-3.91082e-11
-3.50575e-11
4.32624e-08
-3.45885e-11
4.32704e-08
-3.19625e-11
-4.48191e-11
4.32529e-08
-2.90013e-11
-4.34446e-11
4.32616e-08
-2.93325e-11
-3.86823e-11
4.32702e-08
-2.8428e-11
4.32782e-08
-2.65898e-11
-3.02702e-11
-2.47146e-11
-1.93443e-11
4.32384e-08
-2.52449e-11
-2.18546e-11
4.32429e-08
-2.40582e-11
-2.37824e-11
4.32479e-08
-2.49779e-11
4.32529e-08
-2.1047e-11
-2.72078e-11
-2.11098e-11
4.32424e-08
-2.71615e-11
-2.29195e-11
4.32476e-08
-2.52083e-11
-2.4078e-11
4.3253e-08
-2.44771e-11
4.32582e-08
-2.12725e-11
-2.90009e-11
-2.08243e-11
4.32469e-08
-2.83047e-11
-2.17702e-11
4.32525e-08
-2.55503e-11
-2.20345e-11
4.32582e-08
-2.16172e-11
4.32634e-08
-2.066e-11
-2.99624e-11
4.32516e-08
-1.85182e-11
-2.85912e-11
4.32574e-08
-1.84911e-11
-2.51519e-11
4.32631e-08
-1.77439e-11
4.32682e-08
-1.64437e-11
-1.95312e-11
-1.68796e-11
-1.26613e-11
4.32412e-08
-1.68374e-11
-1.41257e-11
4.32446e-08
-1.57684e-11
-1.52341e-11
4.32483e-08
-1.59017e-11
4.32518e-08
-1.36423e-11
-1.83332e-11
-1.35734e-11
4.3244e-08
-1.7937e-11
-1.45752e-11
4.32478e-08
-1.64046e-11
-1.51917e-11
4.32517e-08
-1.53613e-11
4.32553e-08
-1.37071e-11
-1.93268e-11
-1.32607e-11
4.32472e-08
-1.85431e-11
-1.37118e-11
4.32512e-08
-1.65326e-11
-1.37666e-11
4.3255e-08
-1.34262e-11
4.32586e-08
-1.32597e-11
-1.97884e-11
4.32503e-08
-1.17574e-11
-1.86062e-11
4.32544e-08
-1.15911e-11
-1.619e-11
4.32582e-08
-1.10133e-11
4.32616e-08
-1.01309e-11
-1.24748e-11
-1.09402e-11
-7.88907e-12
4.32426e-08
-1.07307e-11
-8.77151e-12
4.32454e-08
-9.94008e-12
-9.43154e-12
4.32481e-08
-9.81867e-12
4.32507e-08
-8.55978e-12
-1.18147e-11
-8.37858e-12
4.32447e-08
-1.13829e-11
-8.95071e-12
4.32476e-08
-1.03048e-11
-9.28575e-12
4.32505e-08
-9.35377e-12
4.32531e-08
-8.56617e-12
-1.2383e-11
-8.1543e-12
4.3247e-08
-1.17101e-11
-8.37008e-12
4.325e-08
-1.03419e-11
-8.352e-12
4.32528e-08
-8.10293e-12
4.32554e-08
-8.25674e-12
-1.26065e-11
4.32492e-08
-7.24395e-12
-1.16933e-11
4.32522e-08
-7.06316e-12
-1.00787e-11
4.3255e-08
-6.65258e-12
4.32573e-08
-6.08426e-12
-7.71794e-12
-6.52865e-12
-4.5275e-12
4.32433e-08
-6.33072e-12
-5.05253e-12
4.32455e-08
-5.8298e-12
-5.43836e-12
4.32477e-08
-5.65882e-12
4.32498e-08
-5.02235e-12
-7.04776e-12
-4.78212e-12
4.32449e-08
-6.70963e-12
-5.10569e-12
4.32473e-08
-6.0336e-12
-5.28485e-12
4.32496e-08
-5.30914e-12
4.32517e-08
-5.01009e-12
-7.36966e-12
-4.65402e-12
4.32466e-08
-6.88293e-12
-4.75652e-12
4.32491e-08
-6.03583e-12
-4.7236e-12
4.32513e-08
-4.55939e-12
4.32533e-08
-4.81661e-12
-7.47886e-12
4.32483e-08
-4.15675e-12
-6.84988e-12
4.32508e-08
-4.01633e-12
-5.85564e-12
4.32529e-08
-3.75689e-12
4.32547e-08
-3.42165e-12
-4.47641e-12
-3.61654e-12
-2.47715e-12
-3.48876e-12
-2.73827e-12
-3.1987e-12
-2.9215e-12
-3.01578e-12
-2.75257e-12
-3.87401e-12
-2.58752e-12
-3.66657e-12
-2.73847e-12
-3.28049e-12
-2.80823e-12
-2.79198e-12
-2.72147e-12
-4.02465e-12
-2.50675e-12
-3.73247e-12
-2.53923e-12
-3.25069e-12
-2.49357e-12
-2.36932e-12
-2.58598e-12
-4.06356e-12
-2.24126e-12
-3.68713e-12
-2.14587e-12
-3.11592e-12
-1.97845e-12
-1.76055e-12
-2.3657e-12
3.7359e-09
3.38707e-09
3.90849e-08
7.55842e-10
-1.22638e-09
4.24745e-08
1.51657e-09
-1.23903e-09
3.24588e-08
-3.34385e-10
2.50551e-08
6.77657e-10
4.15079e-10
-3.20216e-09
5.21834e-08
-3.49862e-10
-2.61983e-09
4.97797e-08
5.17992e-10
5.4496e-09
3.3635e-08
1.38394e-09
2.86643e-08
1.39278e-09
5.01733e-10
-2.01956e-09
4.8121e-08
3.28445e-09
-4.4783e-10
4.90383e-08
-1.5773e-09
3.65985e-09
5.34071e-08
7.03624e-09
2.95912e-08
-1.96642e-10
1.25826e-09
5.16548e-08
4.93366e-09
5.47617e-08
6.1416e-10
5.61749e-08
5.10141e-08
-3.27843e-10
3.96592e-09
2.94113e-09
2.76785e-08
3.89759e-09
6.27005e-09
3.29535e-08
5.11228e-09
1.56789e-09
3.40374e-08
-4.7747e-09
4.77841e-08
-3.16104e-09
4.84738e-09
4.93045e-09
4.30275e-08
-1.74632e-10
1.01633e-08
5.09084e-08
1.47243e-09
2.8006e-09
3.07552e-08
4.55391e-09
2.0423e-08
3.85185e-10
4.12077e-09
4.21096e-09
4.71775e-08
-3.75845e-09
-6.80672e-09
7.38875e-08
9.44413e-10
-1.28292e-09
5.27875e-08
7.97987e-09
2.76402e-08
-5.30521e-10
4.1365e-10
5.98828e-08
4.08287e-11
5.02622e-08
4.19873e-09
5.02378e-08
6.26268e-08
-1.06415e-09
-8.50584e-11
-3.63414e-09
3.78744e-08
2.57606e-09
3.10305e-09
3.17478e-08
2.90899e-09
3.8434e-09
3.31801e-08
2.34925e-09
4.71297e-08
2.72591e-10
4.59053e-09
1.71265e-09
2.96989e-08
1.18737e-09
6.34492e-10
5.678e-08
-6.38733e-10
4.38875e-09
3.20361e-08
6.21169e-09
1.61627e-08
-2.41112e-10
6.7332e-09
4.23117e-09
3.47103e-08
6.13933e-09
2.99317e-09
7.21226e-08
9.0204e-10
5.65486e-09
5.67587e-08
4.34485e-09
3.16169e-08
-1.20788e-09
2.84355e-09
6.11081e-08
4.01871e-09
5.19872e-08
4.84998e-10
5.93169e-08
6.94775e-08
-1.81367e-09
4.96178e-10
7.51528e-10
5.18631e-08
3.24321e-09
-1.28133e-09
3.31708e-08
-6.75625e-09
-1.37818e-09
4.61695e-08
1.10319e-08
1.68801e-08
3.92223e-09
-5.78957e-10
-2.11873e-09
3.97586e-08
3.46611e-09
-4.7343e-09
5.61878e-08
7.24376e-10
5.70598e-10
3.28291e-08
2.42199e-09
2.86004e-08
-3.10348e-09
-2.03145e-10
-7.00013e-09
5.13232e-08
4.0427e-09
-9.44278e-10
6.40867e-08
2.484e-09
8.07469e-10
5.80804e-08
8.55534e-09
3.14694e-08
-3.50182e-09
4.44355e-09
5.159e-08
3.09072e-09
5.34226e-08
4.40365e-09
5.98394e-08
8.85269e-08
-6.19573e-09
-8.4689e-10
-3.29377e-09
5.41302e-08
2.25309e-09
-5.39689e-09
3.44331e-08
-2.69379e-09
6.40645e-10
5.49892e-08
4.37919e-09
1.46517e-08
-1.9091e-09
-3.17404e-09
3.539e-09
4.17127e-08
4.48228e-09
8.72053e-10
4.22625e-08
2.23017e-10
-1.00104e-08
4.77393e-08
-1.24449e-08
5.01925e-08
-4.54508e-09
-7.34629e-09
-1.38094e-08
9.09932e-08
1.05114e-09
-3.00409e-09
5.95654e-08
5.56514e-10
-3.79414e-09
5.23587e-08
-7.2112e-09
2.73513e-08
-5.59144e-10
8.52067e-10
4.19402e-08
-6.03174e-10
5.30055e-08
1.37713e-10
5.54059e-08
8.45769e-08
-7.7441e-10
1.83059e-09
-3.1074e-09
5.8404e-08
-4.08935e-09
-9.79041e-10
4.16496e-08
2.9376e-09
4.56296e-09
3.71332e-08
-8.07597e-09
2.15245e-08
2.00643e-09
2.31593e-09
-9.01698e-09
4.59894e-08
-1.41911e-09
-9.61836e-09
5.46369e-08
-2.03934e-09
-1.61768e-08
6.90993e-08
-7.52178e-09
4.68014e-08
7.97558e-10
1.43671e-09
1.16009e-08
6.5689e-08
-3.79863e-10
-3.88568e-10
5.21522e-08
1.45777e-09
-1.45726e-08
4.89169e-08
-1.81252e-08
3.80612e-08
1.35133e-09
-8.52672e-10
6.6263e-08
-6.73264e-09
5.96853e-08
-1.53263e-09
3.59719e-08
6.22834e-08
4.53424e-09
-8.0532e-10
-7.67238e-10
5.2426e-08
2.99302e-11
-4.93625e-09
4.49531e-08
2.04176e-09
-6.42287e-09
4.11572e-08
-3.85122e-09
2.79041e-08
-1.43353e-10
-1.1695e-09
-1.20801e-08
5.67813e-08
-2.52488e-09
-3.87862e-09
5.49342e-08
2.87231e-10
-1.06727e-09
6.09312e-08
1.46664e-09
4.0833e-08
9.37795e-10
4.19109e-09
-6.47939e-09
6.16265e-08
4.06154e-10
-2.03346e-09
5.40915e-08
-3.68218e-10
-1.00696e-09
4.9631e-08
-3.42567e-09
4.28084e-08
-2.23793e-10
-2.77013e-10
6.04458e-08
2.29922e-10
5.70106e-08
-2.54069e-09
3.87531e-08
5.63163e-08
-8.43178e-13
-1.96649e-09
5.22521e-09
5.05651e-08
-1.68908e-09
3.2818e-09
4.50334e-08
-1.27377e-09
2.53817e-09
4.25476e-08
3.77955e-09
2.90587e-08
-1.91754e-09
-3.30304e-09
6.45099e-09
5.74276e-08
-2.729e-09
5.37907e-09
5.2262e-08
-6.38051e-10
7.28158e-09
5.40976e-08
6.45952e-09
3.87404e-08
-1.22643e-09
-2.40709e-09
-5.98491e-10
7.21501e-08
-1.31494e-09
3.1839e-09
5.51935e-08
-7.68311e-10
5.50967e-09
5.08567e-08
3.40921e-09
4.6566e-08
-1.47462e-09
-1.26814e-09
5.97591e-08
-7.99854e-10
5.97259e-08
-1.11991e-09
4.45836e-08
6.01035e-08
-1.49851e-09
-2.10932e-09
-1.53034e-09
4.78305e-08
-2.04786e-09
-6.12931e-10
4.42402e-08
8.50587e-11
-6.52061e-10
3.89569e-08
-4.584e-09
2.75628e-08
1.66447e-09
-2.16738e-09
-8.27768e-10
5.48997e-08
-2.95246e-09
1.1778e-09
5.12556e-08
-8.41773e-10
4.32747e-09
4.70067e-08
-3.64148e-09
3.50882e-08
1.86749e-09
-4.9366e-10
4.61417e-09
6.40632e-08
-1.99414e-09
1.57046e-09
5.63008e-08
-2.83682e-09
5.52973e-09
5.04964e-08
-3.57715e-09
4.25935e-08
1.0721e-09
-1.97501e-09
6.34744e-08
-2.02754e-09
6.13484e-08
-4.55291e-09
5.26392e-08
5.1385e-08
5.88725e-10
-1.58766e-09
-1.74992e-09
4.64213e-08
-9.81533e-10
-1.47213e-09
4.34229e-08
2.21903e-10
-1.42069e-09
3.74662e-08
-2.80441e-09
2.76342e-08
7.74634e-10
-1.62787e-09
-1.23321e-09
5.31673e-08
-1.30004e-09
-4.51454e-10
4.99063e-08
-1.54967e-10
4.45839e-10
4.3994e-08
-2.64899e-09
3.39905e-08
7.86708e-10
-1.09081e-09
1.218e-09
6.00779e-08
-1.19585e-09
2.07722e-10
5.5746e-08
-9.82562e-10
1.32299e-09
4.94049e-08
-2.0937e-09
4.05179e-08
5.36847e-10
-1.80384e-09
6.39797e-08
-1.38106e-09
6.11332e-08
-1.67014e-09
5.42509e-08
4.72565e-08
3.64606e-10
-1.2965e-09
-1.07886e-09
4.59101e-08
-1.0051e-09
-1.06581e-09
4.28427e-08
-3.86618e-10
-1.11443e-09
3.65261e-08
-1.72926e-09
2.69135e-08
3.29291e-10
-1.39131e-09
-6.06003e-10
5.23951e-08
-1.19713e-09
-5.02384e-10
4.9148e-08
-5.92347e-10
-3.90148e-10
4.26643e-08
-1.51164e-09
3.28544e-08
3.25533e-10
-1.30383e-09
3.40554e-10
5.87661e-08
-1.25875e-09
2.67396e-12
5.51952e-08
-8.75295e-10
1.2448e-10
4.85061e-08
-1.01426e-09
3.88837e-08
2.60936e-10
-1.5503e-09
6.42235e-08
-1.37388e-09
6.09592e-08
-1.10256e-09
5.41038e-08
4.49291e-08
2.10243e-10
-8.40654e-10
-7.50101e-10
4.56838e-08
-6.35132e-10
-7.95963e-10
4.25145e-08
-2.73651e-10
-8.37191e-10
3.60777e-08
-1.04366e-09
2.65658e-08
1.26806e-10
-9.05765e-10
-4.66343e-10
5.19891e-08
-7.23171e-10
-5.00618e-10
4.86697e-08
-3.50038e-10
-5.48526e-10
4.20023e-08
-9.25657e-10
3.22613e-08
1.24696e-10
-9.18671e-10
-4.63863e-11
5.82122e-08
-7.82163e-10
-1.59287e-10
5.47169e-08
-4.52544e-10
-2.12598e-10
4.78402e-08
-5.93351e-10
3.79929e-08
1.05709e-10
-1.00258e-09
6.4132e-08
-8.3763e-10
6.06348e-08
-5.27631e-10
5.3581e-08
4.37175e-08
9.06806e-11
-5.41022e-10
-4.69388e-10
4.55825e-08
-4.17727e-10
-5.11115e-10
4.23376e-08
-2.05682e-10
-5.36827e-10
3.58366e-08
-6.04459e-10
2.63405e-08
4.27646e-11
-5.80492e-10
-3.1331e-10
5.17863e-08
-4.58852e-10
-3.58264e-10
4.8395e-08
-2.33312e-10
-4.03031e-10
4.1643e-08
-5.27615e-10
3.19094e-08
4.16859e-11
-5.97221e-10
-9.8247e-11
5.79462e-08
-4.87003e-10
-1.58426e-10
5.44067e-08
-2.66783e-10
-2.0491e-10
4.74217e-08
-3.30026e-10
3.74926e-08
3.58969e-11
-6.21553e-10
6.40021e-08
-5.0433e-10
6.03591e-08
-2.87164e-10
5.31589e-08
4.30683e-08
3.20413e-11
-3.43476e-10
-2.8723e-10
4.55317e-08
-2.65522e-10
-3.15824e-10
4.22376e-08
-1.36274e-10
-3.29792e-10
3.56999e-08
-3.48874e-10
2.62064e-08
1.17327e-11
-3.65214e-10
-2.02862e-10
5.1679e-08
-2.84017e-10
-2.35752e-10
4.82339e-08
-1.45264e-10
-2.62589e-10
4.14373e-08
-3.02168e-10
3.17066e-08
1.09124e-11
-3.74621e-10
-8.73251e-11
5.78052e-08
-2.95396e-10
-1.18733e-10
5.42105e-08
-1.55337e-10
-1.45875e-10
4.7165e-08
-1.86819e-10
3.72128e-08
9.12027e-12
-3.80102e-10
6.38926e-08
-2.9873e-10
6.01592e-08
-1.58978e-10
5.28735e-08
4.27139e-08
8.80696e-12
-2.18724e-10
-1.77038e-10
4.55032e-08
-1.67553e-10
-1.94403e-10
4.21782e-08
-8.70772e-11
-2.01044e-10
3.56192e-08
-2.04541e-10
2.61261e-08
2.00421e-12
-2.29733e-10
-1.3083e-10
5.16178e-08
-1.75302e-10
-1.51284e-10
4.81367e-08
-8.92522e-11
-1.65051e-10
4.13156e-08
-1.764e-10
3.15879e-08
1.51929e-12
-2.33637e-10
-6.47654e-11
5.77225e-08
-1.7893e-10
-8.15909e-11
5.40865e-08
-9.15197e-11
-9.541e-11
4.70083e-08
-1.08345e-10
3.70525e-08
8.9646e-13
-2.3338e-10
6.38111e-08
-1.77694e-10
6.00222e-08
-9.05156e-11
5.26912e-08
4.25139e-08
1.36373e-12
-1.40613e-10
-1.09981e-10
4.54856e-08
-1.06367e-10
-1.19999e-10
4.21416e-08
-5.53893e-11
-1.22835e-10
3.557e-08
-1.21898e-10
2.60774e-08
-9.69831e-13
-1.45823e-10
-8.39669e-11
5.15806e-08
-1.09273e-10
-9.59689e-11
4.80766e-08
-5.52567e-11
-1.02562e-10
4.12418e-08
-1.04884e-10
3.15173e-08
-1.17355e-12
-1.46875e-10
-4.45278e-11
5.7671e-08
-1.09777e-10
-5.37502e-11
5.40077e-08
-5.51253e-11
-6.04328e-11
4.6912e-08
-6.41385e-11
3.69584e-08
-1.3576e-12
-1.4515e-10
6.37537e-08
-1.07507e-10
5.99313e-08
-5.32617e-11
5.25769e-08
4.23976e-08
-8.07846e-13
-9.14856e-11
-6.88631e-11
4.5474e-08
-6.83516e-11
-7.45001e-11
4.21183e-08
-3.56026e-11
-7.55427e-11
3.55394e-08
-7.37403e-11
2.60476e-08
-1.78686e-12
-9.37535e-11
-5.36977e-11
5.15571e-08
-6.91915e-11
-6.05815e-11
4.80389e-08
-3.48332e-11
-6.3619e-11
4.11963e-08
-6.33358e-11
3.14745e-08
-1.77136e-12
-9.35629e-11
-2.94774e-11
5.7638e-08
-6.86275e-11
-3.4608e-11
5.39576e-08
-3.41274e-11
-3.77886e-11
4.68524e-08
-3.85644e-11
3.69021e-08
-1.77808e-12
-9.17273e-11
6.37147e-08
-6.64937e-11
5.9872e-08
-3.24561e-11
5.25056e-08
4.23284e-08
-1.31627e-12
-6.02264e-11
-4.34948e-11
4.54661e-08
-4.45178e-11
-4.65982e-11
4.21032e-08
-2.32326e-11
-4.68265e-11
3.552e-08
-4.51518e-11
2.6029e-08
-1.91753e-12
-6.10549e-11
-3.43529e-11
5.15418e-08
-4.45251e-11
-3.82442e-11
4.80148e-08
-2.23981e-11
-3.95689e-11
4.11679e-08
-3.8717e-11
3.14482e-08
-1.74839e-12
-6.04195e-11
-1.91981e-11
5.76164e-08
-4.3713e-11
-2.20548e-11
5.39255e-08
-2.16831e-11
-2.35373e-11
4.68153e-08
-2.34499e-11
3.68677e-08
-1.67476e-12
-5.88508e-11
6.36886e-08
-4.20022e-11
5.98336e-08
-2.04048e-11
5.2461e-08
4.22865e-08
-1.31718e-12
-3.9994e-11
-2.76902e-11
4.54606e-08
-2.93077e-11
-2.93475e-11
4.20933e-08
-1.53554e-11
-2.92239e-11
3.55077e-08
-2.7891e-11
2.60174e-08
-1.75178e-12
-4.01512e-11
-2.20309e-11
5.15317e-08
-2.90182e-11
-2.42025e-11
4.79993e-08
-1.46333e-11
-2.4719e-11
4.11499e-08
-2.38957e-11
3.14318e-08
-1.50775e-12
-3.94385e-11
-1.24277e-11
5.76022e-08
-2.82605e-11
-1.40085e-11
5.39049e-08
-1.40565e-11
-1.46749e-11
4.6792e-08
-1.43913e-11
3.68465e-08
-1.42154e-12
-3.8207e-11
6.36712e-08
-2.69827e-11
5.98088e-08
-1.31417e-11
5.24329e-08
4.22607e-08
-1.16387e-12
-2.65969e-11
-1.77103e-11
4.54567e-08
-1.93387e-11
-1.85534e-11
4.20867e-08
-1.01657e-11
-1.83093e-11
3.54996e-08
-1.73407e-11
2.60099e-08
-1.37316e-12
-2.64714e-11
-1.41549e-11
5.15249e-08
-1.89886e-11
-1.53486e-11
4.79893e-08
-9.61187e-12
-1.55031e-11
4.11385e-08
-1.48534e-11
3.14215e-08
-1.2202e-12
-2.58382e-11
-8.0273e-12
5.75927e-08
-1.8384e-11
-8.89628e-12
5.38915e-08
-9.19351e-12
-9.18393e-12
4.67772e-08
-8.90674e-12
3.68332e-08
-1.14855e-12
-2.49223e-11
6.36597e-08
-1.74779e-11
5.97928e-08
-8.5694e-12
5.24152e-08
4.22446e-08
-9.68484e-13
-1.74798e-11
-1.12788e-11
4.54538e-08
-1.2603e-11
-1.16782e-11
4.20822e-08
-6.6382e-12
-1.14257e-11
3.54944e-08
-1.07519e-11
2.60052e-08
-1.02136e-12
-1.72679e-11
-9.05452e-12
5.15202e-08
-1.22915e-11
-9.6975e-12
4.79826e-08
-6.24149e-12
-9.70345e-12
4.11311e-08
-9.2266e-12
3.1415e-08
-9.26412e-13
-1.67701e-11
-5.15808e-12
5.75864e-08
-1.18527e-11
-5.6349e-12
5.38829e-08
-5.95828e-12
-5.75381e-12
4.67677e-08
-5.53316e-12
3.68248e-08
-8.79659e-13
-1.6125e-11
6.3652e-08
-1.12428e-11
5.97825e-08
-5.5524e-12
5.24039e-08
4.22345e-08
-7.6244e-13
-1.10936e-11
-6.99651e-12
4.54518e-08
-7.92478e-12
-7.16815e-12
4.20792e-08
-4.17369e-12
-6.96054e-12
3.5491e-08
-6.51662e-12
2.60022e-08
-7.01686e-13
-1.0893e-11
-5.6505e-12
5.15171e-08
-7.68809e-12
-5.9867e-12
4.79783e-08
-3.91035e-12
-5.94546e-12
4.11264e-08
-5.61692e-12
3.14109e-08
-6.54708e-13
-1.0541e-11
-3.23811e-12
5.75823e-08
-7.39663e-12
-3.49999e-12
5.38774e-08
-3.73155e-12
-3.54773e-12
4.67618e-08
-3.39038e-12
3.68196e-08
-6.30272e-13
-1.0119e-11
6.3647e-08
-7.01396e-12
5.97759e-08
-3.48381e-12
5.23968e-08
4.22282e-08
-5.62694e-13
-6.56731e-12
-4.05527e-12
4.54504e-08
-4.64975e-12
-4.11522e-12
4.20774e-08
-2.44978e-12
-3.96953e-12
3.54889e-08
-3.70539e-12
2.60003e-08
-4.43353e-13
-6.41744e-12
-3.30188e-12
5.15151e-08
-4.49337e-12
-3.46652e-12
4.79757e-08
-2.2956e-12
-3.42226e-12
4.11236e-08
-3.22089e-12
3.14084e-08
-4.30713e-13
-6.19876e-12
-1.90767e-12
5.75797e-08
-4.31959e-12
-2.04992e-12
5.38741e-08
-2.19265e-12
-2.07119e-12
4.67583e-08
-1.97551e-12
3.68165e-08
-4.2157e-13
-5.95724e-12
6.36439e-08
-4.10621e-12
5.9772e-08
-2.0561e-12
5.23927e-08
4.22245e-08
-3.89772e-13
-3.5551e-12
-2.20442e-12
-2.48331e-12
-2.22379e-12
-1.28472e-12
-2.1234e-12
-1.94016e-12
-2.51892e-13
-3.47228e-12
-1.81119e-12
-2.39284e-12
-1.8925e-12
-1.20299e-12
-1.85079e-12
-1.7133e-12
-2.48817e-13
-3.37059e-12
-1.06417e-12
-2.30642e-12
-1.14111e-12
-1.1482e-12
-1.1411e-12
-1.07256e-12
-2.4844e-13
-3.27389e-12
-2.2159e-12
-1.08944e-12
-2.41463e-13
9.63679e-09
2.40349e-09
3.13719e-08
5.3825e-09
-5.04664e-09
6.46022e-08
-6.66348e-09
-1.74804e-09
7.53817e-08
4.69796e-09
4.66628e-08
6.60186e-10
-4.75309e-10
4.57907e-08
7.05804e-09
7.60241e-10
3.47643e-08
6.00386e-09
2.61885e-10
5.22765e-08
-4.47413e-09
7.46085e-08
3.61663e-09
-3.51198e-09
3.83399e-08
5.77754e-09
-2.51926e-09
4.27663e-08
-9.18353e-09
-3.18665e-09
6.58218e-08
1.51798e-09
3.6919e-08
5.08582e-09
1.77973e-08
-7.04429e-10
3.52204e-08
4.67e-09
2.83956e-08
4.88591e-08
-1.16444e-10
1.13329e-09
2.79469e-08
6.46052e-09
3.24032e-09
5.07997e-08
8.26143e-09
6.40698e-09
7.64985e-08
7.92611e-10
6.05091e-08
4.17404e-09
2.67844e-09
4.25216e-08
2.03263e-09
4.46112e-09
3.56848e-08
-4.18886e-09
8.60159e-09
5.63034e-08
7.96043e-09
6.37262e-08
4.90681e-09
2.91474e-09
3.53834e-08
1.20409e-08
1.04538e-09
3.90478e-08
-1.97397e-09
-6.80974e-10
8.91192e-08
1.1057e-09
4.13541e-08
2.0527e-09
2.11157e-08
5.77007e-09
3.29335e-08
3.23628e-09
2.97178e-08
5.18345e-08
-3.55012e-09
1.88363e-09
3.03637e-08
-3.14252e-09
5.68637e-09
4.18599e-08
4.48602e-09
6.41575e-09
5.71613e-08
4.117e-09
6.31609e-08
1.72063e-09
7.67123e-09
3.68348e-08
-2.86018e-09
1.37173e-09
4.45802e-08
-3.18777e-09
4.54516e-09
5.85015e-08
5.02396e-09
6.0585e-08
-5.99537e-09
8.17169e-10
5.30889e-08
1.91875e-09
3.26566e-09
2.92396e-08
1.3839e-08
2.59966e-09
7.91443e-08
4.99807e-10
5.96654e-08
5.28383e-11
2.19945e-08
3.25581e-10
3.56853e-08
3.94969e-09
2.74854e-08
5.4275e-08
1.40285e-09
1.00849e-10
3.42249e-08
-2.55953e-09
-5.14833e-10
4.76979e-08
-9.26514e-10
-5.92476e-10
5.83563e-08
-7.57268e-10
6.35527e-08
-2.17522e-10
6.48263e-11
3.54897e-08
-2.57577e-09
-8.13921e-10
4.72375e-08
7.60882e-10
-2.91884e-09
5.74913e-08
-5.67804e-10
6.2338e-08
-2.98706e-09
1.58629e-09
5.11424e-08
-4.2569e-09
2.33144e-09
2.73641e-08
1.25507e-08
3.27639e-09
5.61415e-08
-2.30733e-10
7.38388e-08
-1.336e-09
2.98562e-08
-1.74263e-09
3.53197e-08
7.05266e-10
2.4812e-08
4.82266e-08
-2.48302e-09
9.47168e-10
4.88937e-08
-3.63334e-09
-1.33584e-09
5.68852e-08
1.74773e-09
1.85929e-09
5.87501e-08
-1.7986e-09
7.5823e-08