/*--------------------------------*- C++ -*----------------------------------*\
| =========                 |                                                 |
| \\      /  F ield         | OpenFOAM: The Open Source CFD Toolbox           |
|  \\    /   O peration     | Version:  2506                                  |
|   \\  /    A nd           | Website:  www.openfoam.com                      |
|    \\/     M anipulation  |                                                 |
\*---------------------------------------------------------------------------*/
FoamFile
{
    version     2.0;
    format      ascii;
    arch        "LSB;label=32;scalar=64";
    class       volScalarField;
    location    "0.07";
    object      voidfraction;
}
// * * * * * * * * * * * * * * * * * * * * * * * * * * * * * * * * * * * * * //

dimensions      [0 0 0 0 0 0 0];

internalField   nonuniform List<scalar> 
1152
(
0.470697
0.483863
0.549697
0.41803
0.483863
0.399596
0.42593
0.468063
0.525997
0.446997
0.44963
0.46543
0.396963
0.423296
0.468063
0.491764
0.44963
0.460163
0.412763
0.341663
0.40223
0.42593
0.389063
0.452263
0.378529
0.404863
0.460163
0.391696
0.43383
0.502297
0.428563
0.373263
0.373263
0.352196
0.436463
0.483863
0.452263
0.375896
0.407496
0.40223
0.333763
0.41803
0.391696
0.396963
0.452263
0.45753
0.39433
0.415396
0.404863
0.389063
0.381163
0.44963
0.44173
0.40223
0.341663
0.38643
0.378529
0.420663
0.391696
0.378529
0.439097
0.423296
0.420663
0.44963
0.486497
0.260029
0.41803
0.378529
0.423296
0.357463
0.41803
0.399596
0.38643
0.41803
0.344296
0.407496
0.367996
0.38643
0.452263
0.399596
0.41803
0.483863
0.39433
0.346929
0.45753
0.381163
0.444363
0.454897
0.389063
0.389063
0.39433
0.444363
0.533897
0.431196
0.373263
0.341663
0.649764
0.578664
0.649764
0.786699
0.612898
0.594464
0.689265
0.818299
0.678731
0.694531
0.747198
0.770899
0.702431
0.736665
0.807765
0.734032
1
1
1
1
1
1
1
1
1
1
1
1
1
1
1
1
1
1
1
1
1
1
1
1
1
1
1
1
1
1
1
1
1
1
1
1
1
1
1
1
1
1
1
1
1
1
1
1
1
1
1
1
1
1
1
1
1
1
1
1
1
1
1
1
1
1
1
1
1
1
1
1
1
1
1
1
1
1
1
1
1
1
1
1
1
1
1
1
1
1
1
1
1
1
1
1
1
1
1
1
1
1
1
1
1
1
1
1
1
1
1
1
1
1
1
1
1
1
1
1
1
1
1
1
1
1
1
1
1
1
1
1
1
1
1
1
1
1
1
1
1
1
1
1
1
1
1
1
1
1
1
1
1
1
1
1
1
1
1
1
1
1
1
1
1
1
1
1
1
1
1
1
1
1
1
1
1
1
1
1
1
1
1
1
1
1
1
1
1
1
1
1
1
1
1
1
1
1
1
1
1
1
1
1
1
1
1
1
1
1
1
1
1
1
1
1
1
1
1
1
1
1
1
1
1
1
1
1
1
1
1
1
1
1
1
1
1
1
1
1
1
1
1
1
1
1
1
1
1
1
1
1
1
1
1
1
1
1
1
1
1
1
1
1
1
1
1
1
1
1
1
1
0.471263
0.466741
0.444744
0.456753
0.453899
0.406454
0.434943
0.459614
0.386782
0.418565
0.468918
0.427599
0.427306
0.437815
0.491238
0.441554
0.366017
0.412603
0.412649
0.351609
0.427367
0.456311
0.390625
0.387079
0.432279
0.41645
0.434812
0.387377
0.389723
0.407323
0.391225
0.460439
0.361005
0.390948
0.412649
0.518087
0.367672
0.370841
0.385085
0.358065
0.35711
0.486223
0.422631
0.387377
0.446992
0.407323
0.43036
0.463137
0.413628
0.380121
0.39981
0.377895
0.321243
0.472931
0.401704
0.347184
0.365023
0.391079
0.456737
0.418317
0.386144
0.422569
0.456451
0.479324
0.426158
0.388241
0.460792
0.338465
0.422946
0.361344
0.368465
0.426973
0.422388
0.456622
0.417758
0.405941
0.398671
0.397795
0.426012
0.530582
0.441193
0.396362
0.457583
0.373514
0.345563
0.408828
0.470951
0.492255
0.511404
0.35725
0.437248
0.375
0.355719
0.41304
0.44558
0.44695
0.731873
0.775328
0.70472
0.710852
0.661727
0.800568
0.789488
0.771515
0.711194
0.644796
0.666246
0.662748
0.699336
0.676029
0.567335
0.649285
1
1
1
1
1
1
1
1
1
1
1
1
1
1
1
1
1
1
1
1
1
1
1
1
1
1
1
1
1
1
1
1
1
1
1
1
1
1
1
1
1
1
1
1
1
1
1
1
1
1
1
1
1
1
1
1
1
1
1
1
1
1
1
1
1
1
1
1
1
1
1
1
1
1
1
1
1
1
1
1
1
1
1
1
1
1
1
1
1
1
1
1
1
1
1
1
1
1
1
1
1
1
1
1
1
1
1
1
1
1
1
1
1
1
1
1
1
1
1
1
1
1
1
1
1
1
1
1
1
1
1
1
1
1
1
1
1
1
1
1
1
1
1
1
1
1
1
1
1
1
1
1
1
1
1
1
1
1
1
1
1
1
1
1
1
1
1
1
1
1
1
1
1
1
1
1
1
1
1
1
1
1
1
1
1
1
1
1
1
1
1
1
1
1
1
1
1
1
1
1
1
1
1
1
1
1
1
1
1
1
1
1
1
1
1
1
1
1
1
1
1
1
1
1
1
1
1
1
1
1
1
1
1
1
1
1
1
1
1
1
1
1
1
1
1
1
1
1
1
1
1
1
1
1
1
1
1
1
1
1
1
1
1
1
1
1
1
1
1
1
1
1
0.41864
0.476008
0.412498
0.40404
0.469448
0.41595
0.441822
0.491174
0.499307
0.434943
0.466482
0.397747
0.377895
0.474121
0.390471
0.44695
0.383558
0.45611
0.509426
0.409409
0.41531
0.392208
0.433365
0.456872
0.354876
0.448792
0.456737
0.399921
0.408562
0.401586
0.427599
0.436159
0.358499
0.378727
0.345241
0.441623
0.412603
0.382712
0.414336
0.390172
0.451164
0.379545
0.510332
0.410792
0.373514
0.437853
0.378095
0.44695
0.386064
0.387571
0.434257
0.366457
0.380121
0.427821
0.433365
0.43972
0.473631
0.398934
0.415322
0.469496
0.430467
0.4306
0.412129
0.460439
0.361005
0.411891
0.37887
0.439834
0.380121
0.377963
0.38685
0.384455
0.393391
0.332457
0.439684
0.452102
0.426086
0.405212
0.32859
0.401087
0.458734
0.449477
0.45206
0.445203
0.461327
0.38746
0.477765
0.449249
0.464002
0.385085
0.415322
0.386876
0.373514
0.390705
0.390471
0.457741
0.776978
0.761219
0.677566
0.704705
0.7645
0.753085
0.780112
0.750352
0.77854
0.786719
0.751512
0.713006
0.842283
0.669965
0.678218
0.687055
1
1
1
1
1
1
1
1
1
1
1
1
1
1
1
1
1
1
1
1
1
1
1
1
1
1
1
1
1
1
1
1
1
1
1
1
1
1
1
1
1
1
1
1
1
1
1
1
1
1
1
1
1
1
1
1
1
1
1
1
1
1
1
1
1
1
1
1
1
1
1
1
1
1
1
1
1
1
1
1
1
1
1
1
1
1
1
1
1
1
1
1
1
1
1
1
1
1
1
1
1
1
1
1
1
1
1
1
1
1
1
1
1
1
1
1
1
1
1
1
1
1
1
1
1
1
1
1
1
1
1
1
1
1
1
1
1
1
1
1
1
1
1
1
1
1
1
1
1
1
1
1
1
1
1
1
1
1
1
1
1
1
1
1
1
1
1
1
1
1
1
1
1
1
1
1
1
1
1
1
1
1
1
1
1
1
1
1
1
1
1
1
1
1
1
1
1
1
1
1
1
1
1
1
1
1
1
1
1
1
1
1
1
1
1
1
1
1
1
1
1
1
1
1
1
1
1
1
1
1
1
1
1
1
1
1
1
1
1
1
1
1
1
1
1
1
1
1
1
1
1
1
1
1
1
1
1
1
1
1
1
1
1
1
1
1
1
1
1
1
1
1
)
;

boundaryField
{
    inlet
    {
        type            fixedValue;
        value           uniform 1;
    }
    outlet
    {
        type            fixedValue;
        value           uniform 1;
    }
    wall
    {
        type            zeroGradient;
    }
    procBoundary3to1
    {
        type            processor;
        value           nonuniform List<scalar> 
192
(
0.44963
0.399596
0.391696
0.378529
0.375896
0.360096
0.428563
0.439097
0.446997
0.336396
0.431196
0.412763
0.404863
0.446997
0.396963
0.341663
0.346929
0.468063
0.383796
0.475963
0.367996
0.40223
0.373263
0.460163
0.45753
0.562864
0.518097
0.689265
1
0.997367
0.997367
1
1
1
1
1
1
1
1
1
1
1
1
1
1
1
1
1
1
1
1
1
1
1
1
1
1
1
1
1
1
1
1
1
1
1
1
1
1
1
1
1
1
1
1
1
1
1
1
1
1
1
1
1
1
1
1
1
1
1
1
1
1
1
1
1
0.486298
0.38536
0.523272
0.51142
0.423652
0.398625
0.400629
0.463099
0.446204
0.453899
0.434257
0.359299
0.423652
0.316821
0.469863
0.427306
0.451216
0.464953
0.42041
0.421937
0.350982
0.378727
0.359088
0.361088
0.634144
0.754586
0.667675
0.659963
1
1
1
1
1
1
1
1
1
1
1
1
1
1
1
1
1
1
1
1
1
1
1
1
1
1
1
1
1
1
1
1
1
1
1
1
1
1
1
1
1
1
1
1
1
1
1
1
1
1
1
1
1
1
1
1
1
1
1
1
1
1
1
1
1
1
1
1
)
;
    }
    procBoundary3to2
    {
        type            processor;
        value           nonuniform List<scalar> 
192
(
0.460163
0.431196
0.365363
0.470697
0.446997
0.431196
0.41803
0.325862
0.396963
0.286362
0.373263
0.38643
0.452263
0.362729
0.42593
0.304796
0.344296
0.412763
0.375896
0.404863
0.41013
0.370629
0.420663
0.317962
0.631331
0.583931
0.689265
0.773532
1
1
1
1
1
1
1
1
1
1
1
1
1
1
1
1
1
1
1
1
1
1
1
1
1
1
1
1
1
1
1
1
1
1
1
1
1
1
1
1
1
1
1
1
1
1
1
1
1
1
1
1
1
1
1
1
1
1
1
1
1
1
1
1
1
1
1
1
0.483792
0.436211
0.491623
0.489944
0.403605
0.383149
0.414476
0.450572
0.498828
0.460531
0.38876
0.382564
0.373534
0.380938
0.529207
0.470258
0.343464
0.38536
0.365023
0.439834
0.338452
0.403047
0.35711
0.479206
0.654191
0.66836
0.693391
0.529317
1
1
1
1
1
1
1
1
1
1
1
1
1
1
1
1
1
1
1
1
1
1
1
1
1
1
1
1
1
1
1
1
1
1
1
1
1
1
1
1
1
1
1
1
1
1
1
1
1
1
1
1
1
1
1
1
1
1
1
1
1
1
1
1
1
1
1
1
)
;
    }
}


// ************************************************************************* //
