FoamFile
{version 2.0; format ascii;class Cloud<passiveParticle>; location 0;object  positions;}
1000
(
( 0.0292648 0.0356565 0.087733 ) 0 
( 0.0321122 0.0811189 0.0992193 ) 0 
( 0.0405792 0.0923153 0.0986036 ) 0 
( 0.0929176 0.00891769 0.0887669 ) 0 
( 0.00760777 0.00384245 0.099469 ) 0 
( 0.094819 0.0400708 0.0990619 ) 0 
( 0.0189741 0.0613573 0.0887834 ) 0 
( 0.0205023 0.0942623 0.0988292 ) 0 
( 0.0235118 0.0972807 0.0995002 ) 0 
( 0.0655004 0.0170129 0.0929439 ) 0 
( 0.00203093 0.0301628 0.0946498 ) 0 
( 0.0209955 0.018488 0.0905047 ) 0 
( 0.0506466 0.0566125 0.0995002 ) 0 
( 0.0183288 0.0673761 0.0995002 ) 0 
( 0.0754729 0.0747272 0.095204 ) 0 
( 0.0586349 0.0159153 0.0995002 ) 0 
( 0.0186237 0.0262129 0.099473 ) 0 
( 0.0210419 0.0696308 0.0995002 ) 0 
( 0.00618452 0.0542022 0.0989904 ) 0 
( 0.0157333 0.0794032 0.0887837 ) 0 
( 0.0836094 0.0102921 0.089203 ) 0 
( 0.062338 0.012878 0.0938942 ) 0 
( 0.0996293 0.0953372 0.0891956 ) 0 
( 0.0803339 0.0519931 0.0972672 ) 0 
( 0.0303369 0.00346853 0.0995002 ) 0 
( 0.083691 0.0728471 0.0966622 ) 0 
( 0.0279617 0.0759173 0.0995002 ) 0 
( 0.0898943 0.035317 0.0990311 ) 0 
( 0.104097 0.0019642 0.0990648 ) 0 
( 0.0880927 0.0320385 0.0990073 ) 0 
( 0.0648125 0.00457067 0.0890991 ) 0 
( 0.0648312 0.0231682 0.0885085 ) 0 
( 0.0145887 0.0708615 0.0995003 ) 0 
( 0.0721029 0.0582477 0.0990151 ) 0 
( 0.0730777 0.0865593 0.0888004 ) 0 
( 0.0115862 0.0013115 0.0933225 ) 0 
( 0.0654774 0.0987042 0.0890246 ) 0 
( 0.0411106 0.0788874 0.0897899 ) 0 
( 0.0842521 0.0536986 0.0891061 ) 0 
( 0.0937733 0.0715922 0.0946777 ) 0 
( 0.0909707 0.024453 0.0994658 ) 0 
( 0.0272005 0.0624781 0.0992356 ) 0 
( 0.0493103 0.0562252 0.0994836 ) 0 
( 0.075386 0.0866021 0.0897477 ) 0 
( 0.0753703 0.0497541 0.0902957 ) 0 
( 0.0357703 0.0489008 0.0993916 ) 0 
( 0.0624461 0.000945022 0.0994658 ) 0 
( 0.0230958 0.0852622 0.0886957 ) 0 
( 0.0765299 0.0226131 0.0888714 ) 0 
( 0.0231794 0.0534699 0.0944164 ) 0 
( 0.0247239 0.0341163 0.0896088 ) 0 
( 0.0227106 0.0199197 0.0995002 ) 0 
( 0.0226857 0.00471983 0.0921192 ) 0 
( 0.0076606 0.07933 0.0995002 ) 0 
( 0.0733714 0.0970289 0.0994755 ) 0 
( 0.0324493 0.0540708 0.0976145 ) 0 
( 0.0716641 0.0449743 0.0994635 ) 0 
( 0.0520177 0.0320807 0.0882314 ) 0 
( 0.0825219 0.0317794 0.0920467 ) 0 
( 0.012479 0.0786325 0.0920759 ) 0 
( 0.0320829 0.0248062 0.0902058 ) 0 
( 0.0788525 0.0286292 0.0989501 ) 0 
( 0.0240192 0.0461469 0.0882225 ) 0 
( 0.0427877 0.0643923 0.0940263 ) 0 
( 0.0889885 0.0451144 0.0918558 ) 0 
( 0.0894456 0.0887264 0.0995002 ) 0 
( 0.0109164 0.0834229 0.0995002 ) 0 
( 0.0546594 0.0414809 0.0990301 ) 0 
( 0.00725535 0.0278066 0.097035 ) 0 
( 0.0533016 0.0805307 0.0890471 ) 0 
( 0.014944 0.025573 0.0885546 ) 0 
( 0.0904595 0.0775491 0.0993897 ) 0 
( 0.0421894 0.0189721 0.096606 ) 0 
( 0.0347459 0.0600158 0.0994986 ) 0 
( 0.0822368 0.0895709 0.0886187 ) 0 
( 0.027483 0.0218882 0.0992884 ) 0 
( 0.0685657 0.00117521 0.0955882 ) 0 
( 0.0943288 0.0827857 0.0944627 ) 0 
( 0.0864723 0.0705492 0.0924421 ) 0 
( 0.0875116 0.0798755 0.099421 ) 0 
( 0.0232237 0.00148617 0.0994439 ) 0 
( 0.0577403 0.0559437 0.0871303 ) 0 
( 0.0912137 0.0527227 0.0886104 ) 0 
( 0.0376858 0.0992343 0.0901005 ) 0 
( 0.0416403 0.0207108 0.0994655 ) 0 
( 0.0192617 0.0196153 0.0994656 ) 0 
( 0.0203402 0.0560353 0.0994789 ) 0 
( 0.0472722 0.040548 0.0995002 ) 0 
( 0.0437458 0.081605 0.0887665 ) 0 
( 0.0493231 0.0592301 0.0893563 ) 0 
( 0.074728 0.0694392 0.099412 ) 0 
( 0.0724012 0.0854047 0.0995002 ) 0 
( 0.00324613 0.0174307 0.0995001 ) 0 
( 0.0578274 0.0520243 0.0906405 ) 0 
( 0.0876156 0.0623906 0.0995002 ) 0 
( 0.0882007 0.0498093 0.0916545 ) 0 
( 0.0924197 0.0659857 0.0893716 ) 0 
( 0.00884853 0.0174598 0.0995002 ) 0 
( 0.0960663 0.033657 0.0991041 ) 0 
( 0.0805044 0.0722778 0.0871848 ) 0 
( 0.0646528 0.0725515 0.0889089 ) 0 
( 0.0505667 0.0111318 0.0995002 ) 0 
( 0.0715263 0.0878365 0.0992964 ) 0 
( 0.0660104 0.0781395 0.0995002 ) 0 
( 0.0262244 0.0553863 0.0951117 ) 0 
( 0.0897009 0.030502 0.098029 ) 0 
( 0.0616991 0.0158206 0.0995002 ) 0 
( 0.0341159 0.0914739 0.0995002 ) 0 
( 0.091012 0.0446795 0.0886857 ) 0 
( 0.0890613 0.0119193 0.0960798 ) 0 
( 0.036759 0.0153139 0.0994816 ) 0 
( 0.0068345 0.0236694 0.0887429 ) 0 
( 0.0843481 0.0583755 0.0893281 ) 0 
( 0.00439498 0.0637977 0.0888137 ) 0 
( 0.0222111 0.00322519 0.0879807 ) 0 
( 0.0625002 0.0399876 0.0887533 ) 0 
( 0.0246323 0.0645154 0.0995002 ) 0 
( 0.0656501 0.00683329 0.0918975 ) 0 
( 0.0708397 0.0626801 0.0881448 ) 0 
( 0.0478127 0.0859444 0.0896663 ) 0 
( 0.0301193 0.0754895 0.0985935 ) 0 
( 0.0168928 0.0635227 0.0887489 ) 0 
( 0.0797113 0.0809987 0.0925101 ) 0 
( 0.0936657 0.0257978 0.0991987 ) 0 
( 0.0252817 0.0966348 0.0924858 ) 0 
( 0.0760441 0.024669 0.0920026 ) 0 
( 0.0259891 0.0631955 0.0897145 ) 0 
( 0.023528 0.00753404 0.0897822 ) 0 
( 0.0342002 0.00325077 0.092207 ) 0 
( 0.0591478 0.0431882 0.0994899 ) 0 
( 0.0137318 0.0322254 0.0919051 ) 0 
( 0.0976789 0.0194973 0.0887386 ) 0 
( 0.0711916 0.00717185 0.0924393 ) 0 
( 0.079927 0.00201141 0.0885821 ) 0 
( 0.0934843 0.084003 0.0891099 ) 0 
( 0.038029 0.0481393 0.0889142 ) 0 
( 0.0935499 0.0299456 0.0995002 ) 0 
( 0.0402712 0.0747778 0.0995002 ) 0 
( 0.0435441 0.0934047 0.0875807 ) 0 
( 0.0659208 0.045392 0.0905977 ) 0 
( 0.0374651 0.0736063 0.0909562 ) 0 
( 0.0276053 0.0729579 0.0877521 ) 0 
( 0.044357 0.0697484 0.098942 ) 0 
( 0.0897813 0.0827392 0.0995002 ) 0 
( 0.0770211 0.0879348 0.0899868 ) 0 
( 0.0397324 0.0213969 0.0891027 ) 0 
( 0.0646534 0.0326574 0.0874873 ) 0 
( 0.0488544 0.0524118 0.0899746 ) 0 
( 0.0301035 0.0927298 0.0923009 ) 0 
( 0.0608051 0.088171 0.0995002 ) 0 
( 0.0798646 0.0258045 0.0995002 ) 0 
( 0.0101818 0.0748303 0.0919134 ) 0 
( 0.0709492 0.0928962 0.0896796 ) 0 
( 0.0956284 0.0795608 0.0990373 ) 0 
( 0.062941 0.0115256 0.0888734 ) 0 
( 0.0927392 0.000901946 0.0972965 ) 0 
( 0.0237939 0.0332846 0.0915616 ) 0 
( 0.0794981 0.0613428 0.0995002 ) 0 
( 0.0532633 0.086297 0.0906116 ) 0 
( 0.0940636 0.0511411 0.0924683 ) 0 
( 0.0549306 0.0162697 0.091218 ) 0 
( 0.0358579 0.097992 0.0961681 ) 0 
( 0.0564466 0.0710827 0.0892975 ) 0 
( 0.0947974 0.0900214 0.0995002 ) 0 
( 0.0270246 0.0834297 0.0922989 ) 0 
( 0.0692751 0.0407664 0.0991397 ) 0 
( 0.0490438 0.0846714 0.0994577 ) 0 
( 0.019094 0.0591469 0.0991304 ) 0 
( 0.029057 0.0586084 0.0888894 ) 0 
( 0.0845718 0.0441393 0.0965616 ) 0 
( 0.0379849 0.00109681 0.0995002 ) 0 
( 0.0968532 0.044207 0.0995002 ) 0 
( 0.0222022 0.0718567 0.0995002 ) 0 
( 0.0910542 0.0223168 0.0994651 ) 0 
( 0.0163028 0.0332148 0.0959617 ) 0 
( 0.0401009 0.0716051 0.0992509 ) 0 
( 0.0668644 0.0173993 0.0924612 ) 0 
( 0.0739154 0.0546821 0.091247 ) 0 
( 0.0921819 0.035583 0.0916617 ) 0 
( 0.0409892 0.0835071 0.0995002 ) 0 
( 0.0842329 0.0160278 0.0898212 ) 0 
( 0.0731174 0.0678457 0.099498 ) 0 
( 0.0259807 0.0923656 0.0995002 ) 0 
( 0.026197 0.0824898 0.0899174 ) 0 
( 0.0212256 0.0329795 0.0884065 ) 0 
( 0.0738359 0.0630098 0.0905478 ) 0 
( 0.0886954 0.00988073 0.0989724 ) 0 
( 0.0396868 0.0432788 0.088959 ) 0 
( 0.070066 0.0357811 0.0886287 ) 0 
( 0.000536124 0.063764 0.0990709 ) 0 
( 0.0558222 0.0701003 0.0887705 ) 0 
( 0.0390339 0.0191439 0.0931014 ) 0 
( 0.0963268 0.0613028 0.0888102 ) 0 
( 0.0288565 0.0427325 0.0896532 ) 0 
( 0.0522011 0.0835105 0.0993109 ) 0 
( 0.0411327 0.0498419 0.0995002 ) 0 
( 0.0259205 0.0869224 0.0888908 ) 0 
( 0.0108849 0.0297881 0.0975578 ) 0 
( 0.0866444 0.0650335 0.0915543 ) 0 
( 0.0884449 0.0883255 0.0995002 ) 0 
( 0.0641383 0.0138865 0.0995002 ) 0 
( 0.0451609 0.0548691 0.0995002 ) 0 
( 0.0537238 0.0462104 0.0889003 ) 0 
( 0.0442417 0.0338284 0.0991515 ) 0 
( 0.0856921 0.0593584 0.0944749 ) 0 
( 0.0581048 0.0846063 0.0989887 ) 0 
( 0.0694608 0.0476358 0.0904691 ) 0 
( 0.0757754 0.00182405 0.0975803 ) 0 
( 0.0835962 0.0200743 0.0914845 ) 0 
( 0.00146589 0.059017 0.0995002 ) 0 
( 0.0625827 0.0900511 0.0889519 ) 0 
( 0.0851027 0.0215639 0.0945534 ) 0 
( 0.0717614 0.04002 0.0899548 ) 0 
( 0.0144549 0.068559 0.0990119 ) 0 
( 0.0282727 0.0753807 0.0946618 ) 0 
( 0.0185279 0.0305744 0.0990919 ) 0 
( 0.0140508 0.0699826 0.0995002 ) 0 
( 0.00954442 0.0493471 0.0958396 ) 0 
( 0.0381318 0.0298811 0.0895463 ) 0 
( 0.0230843 0.0124031 0.0994929 ) 0 
( 0.0967726 0.0877728 0.0995002 ) 0 
( 0.00580291 0.0114574 0.0993576 ) 0 
( 0.0831337 0.0423175 0.0897681 ) 0 
( 0.048549 0.0927288 0.0936515 ) 0 
( 0.0236074 0.0637249 0.0989672 ) 0 
( 0.014948 0.0516623 0.0995002 ) 0 
( 0.0559771 0.0261555 0.0885376 ) 0 
( 0.0345121 0.00484428 0.0870823 ) 0 
( 0.0752805 0.00322615 0.0943401 ) 0 
( 0.00644829 0.0625545 0.0894488 ) 0 
( 0.105674 0.0970484 0.0973676 ) 0 
( 0.0508307 0.0386685 0.0995002 ) 0 
( 0.0153547 0.0597234 0.0991789 ) 0 
( 0.0847955 0.0324581 0.0919938 ) 0 
( 0.086243 0.0252568 0.0995002 ) 0 
( 0.0719415 0.0174164 0.0928443 ) 0 
( 0.0768741 0.0365514 0.0906919 ) 0 
( 0.00741717 0.0324696 0.0895326 ) 0 
( 0.043214 0.00255635 0.0964608 ) 0 
( 0.00270932 0.0565693 0.096235 ) 0 
( 0.0943785 0.00521624 0.0990488 ) 0 
( 0.0321592 0.0378165 0.0994971 ) 0 
( 0.0822898 0.0865039 0.0971341 ) 0 
( 0.0148859 0.0553901 0.0895754 ) 0 
( 0.396073 0.0023334 0.0995002 ) 0 
( 0.0950287 0.00368879 0.0884054 ) 0 
( 0.0752633 0.0572083 0.0899853 ) 0 
( 0.0231583 0.0159272 0.0922499 ) 0 
( 0.0366034 0.0319712 0.0935522 ) 0 
( 0.0747455 0.0551703 0.0965016 ) 0 
( 0.0716699 0.0336531 0.0928383 ) 0 
( 0.155947 0.0375555 0.0995002 ) 0 
( 0.185453 0.0386441 0.0995002 ) 0 
( 0.120047 0.0554669 0.0888276 ) 0 
( 0.165825 0.0806284 0.0881217 ) 0 
( 0.111473 0.0136172 0.0983855 ) 0 
( 0.149931 0.05213 0.0904681 ) 0 
( 0.195085 0.0605186 0.0923667 ) 0 
( 0.132455 0.0216143 0.0990304 ) 0 
( 0.139456 0.0414609 0.0887646 ) 0 
( 0.131552 0.0588055 0.0919682 ) 0 
( 0.150952 0.0707894 0.0934739 ) 0 
( 0.138701 0.0992958 0.0971218 ) 0 
( 0.122681 0.094804 0.0993822 ) 0 
( 0.195273 0.0658764 0.0995002 ) 0 
( 0.13704 0.0704704 0.0995002 ) 0 
( 0.120145 0.0953332 0.0981676 ) 0 
( 0.139105 0.0336211 0.0990625 ) 0 
( 0.187907 0.0850814 0.0887182 ) 0 
( 0.152556 0.0633165 0.0969906 ) 0 
( 0.166644 0.0213391 0.0896108 ) 0 
( 0.122157 0.0338682 0.0896899 ) 0 
( 0.144879 0.0548615 0.0966446 ) 0 
( 0.167534 0.00330546 0.0942067 ) 0 
( 0.106328 0.0174231 0.0995002 ) 0 
( 0.114837 0.0875436 0.0884685 ) 0 
( 0.137024 0.0205432 0.0989613 ) 0 
( 0.158314 0.0486299 0.0880835 ) 0 
( 0.148545 0.0598598 0.0994694 ) 0 
( 0.192331 0.0445249 0.089762 ) 0 
( 0.190126 0.0636535 0.0917887 ) 0 
( 0.127146 0.0642218 0.0991624 ) 0 
( 0.184627 0.0587689 0.0912708 ) 0 
( 0.150882 0.0301627 0.0888021 ) 0 
( 0.121224 0.0485397 0.0874523 ) 0 
( 0.109073 0.080137 0.0898109 ) 0 
( 0.104858 0.0676855 0.0995002 ) 0 
( 0.178386 0.0824355 0.0870541 ) 0 
( 0.117045 0.0894243 0.090108 ) 0 
( 0.142503 0.0563289 0.0888764 ) 0 
( 0.128581 0.027666 0.0994984 ) 0 
( 0.104597 0.0762103 0.0986548 ) 0 
( 0.179222 0.0553422 0.0921099 ) 0 
( 0.164526 0.0982834 0.0968897 ) 0 
( 0.140871 0.0452417 0.0933111 ) 0 
( 0.190035 0.0796251 0.0989604 ) 0 
( 0.165654 0.0608615 0.0886096 ) 0 
( 0.172271 0.0637946 0.0884485 ) 0 
( 0.101701 0.0232343 0.0995002 ) 0 
( 0.123818 0.0300647 0.0888241 ) 0 
( 0.123739 0.0887996 0.08881 ) 0 
( 0.19483 0.0464889 0.091141 ) 0 
( 0.107119 0.0342515 0.0967912 ) 0 
( 0.136991 0.0367455 0.0995002 ) 0 
( 0.108942 0.0560456 0.0909797 ) 0 
( 0.161086 0.088918 0.0883781 ) 0 
( 0.149253 0.055017 0.0990037 ) 0 
( 0.103664 0.0656558 0.0989817 ) 0 
( 0.145126 0.0417367 0.090115 ) 0 
( 0.0936463 0.072642 0.0994685 ) 0 
( 0.134036 0.00501714 0.0886286 ) 0 
( 0.109077 0.0725319 0.0876124 ) 0 
( 0.103506 0.061818 0.0990275 ) 0 
( 0.100855 0.0676541 0.0961596 ) 0 
( 0.150424 0.006406 0.0974503 ) 0 
( 0.112449 0.0177218 0.0937065 ) 0 
( 0.170086 0.00329888 0.0909892 ) 0 
( 0.185438 0.0896746 0.0991713 ) 0 
( 0.109893 0.0505987 0.0888146 ) 0 
( 0.116062 0.0129399 0.0991299 ) 0 
( 0.132424 0.0855525 0.0901604 ) 0 
( 0.196107 0.0721876 0.0881583 ) 0 
( 0.15411 0.00317903 0.0891329 ) 0 
( 0.14143 0.0784132 0.0888684 ) 0 
( 0.192542 0.0818158 0.0945777 ) 0 
( 0.199548 0.0905921 0.0922229 ) 0 
( 0.12584 0.023256 0.0993471 ) 0 
( 0.133236 0.0663104 0.0990134 ) 0 
( 0.14842 0.00884049 0.0992448 ) 0 
( 0.119754 0.0369643 0.0975178 ) 0 
( 0.128392 0.0164213 0.0995002 ) 0 
( 0.100584 0.0381262 0.0995002 ) 0 
( 0.145631 0.0396997 0.0888057 ) 0 
( 0.102672 0.0578965 0.095545 ) 0 
( 0.194299 0.0548494 0.0932953 ) 0 
( 0.177473 0.056921 0.0989808 ) 0 
( 0.169898 0.0350701 0.0885455 ) 0 
( 0.131373 0.00595864 0.0930953 ) 0 
( 0.167626 0.0640432 0.0990148 ) 0 
( 0.102009 0.0131654 0.0990286 ) 0 
( 0.145915 0.0435334 0.0992808 ) 0 
( 0.161128 0.0590971 0.0935911 ) 0 
( 0.14726 0.0372583 0.0995002 ) 0 
( 0.194973 0.0444327 0.0994745 ) 0 
( 0.184453 0.0753241 0.0886427 ) 0 
( 0.151083 0.0214683 0.0888589 ) 0 
( 0.132142 0.0605395 0.0994826 ) 0 
( 0.143378 0.0544395 0.0994288 ) 0 
( 0.197442 0.0304969 0.0889552 ) 0 
( 0.189962 0.0411865 0.0899114 ) 0 
( 0.104381 0.0209397 0.0915965 ) 0 
( 0.174794 0.0371637 0.0882925 ) 0 
( 0.193002 0.036253 0.0908116 ) 0 
( 0.112559 0.0468562 0.0885043 ) 0 
( 0.120969 0.0686473 0.0887856 ) 0 
( 0.155608 0.0953223 0.099174 ) 0 
( 0.10387 0.0464499 0.0992271 ) 0 
( 0.198419 0.051073 0.0994734 ) 0 
( 0.16084 0.0703019 0.0992355 ) 0 
( 0.136791 0.0333414 0.0989837 ) 0 
( 0.131329 0.0552418 0.0896187 ) 0 
( 0.177957 0.0351738 0.0990629 ) 0 
( 0.185028 0.0834994 0.0994802 ) 0 
( 0.1142 0.0124511 0.0976795 ) 0 
( 0.19743 0.0192236 0.0888297 ) 0 
( 0.171681 0.0313977 0.0976794 ) 0 
( 0.175239 0.0907099 0.0925219 ) 0 
( 0.129458 0.0927452 0.0992662 ) 0 
( 0.177929 0.0445488 0.0895864 ) 0 
( 0.190289 0.0265652 0.0995002 ) 0 
( 0.198725 0.00302205 0.0995002 ) 0 
( 0.108256 0.00226049 0.0995002 ) 0 
( 0.19475 0.00881696 0.0884041 ) 0 
( 0.154685 0.087545 0.0913196 ) 0 
( 0.193644 0.0445985 0.0992749 ) 0 
( 0.153626 0.041779 0.0990787 ) 0 
( 0.145076 0.0288981 0.0995002 ) 0 
( 0.183971 0.0793892 0.0911165 ) 0 
( 0.201772 0.072452 0.0960674 ) 0 
( 0.16939 0.0724943 0.0893458 ) 0 
( 0.128145 0.0506769 0.08878 ) 0 
( 0.111062 0.0956816 0.0886829 ) 0 
( 0.159581 0.0251837 0.0943584 ) 0 
( 0.162852 0.0137899 0.0989577 ) 0 
( 0.176452 0.0665945 0.0975176 ) 0 
( 0.127395 0.0469618 0.0995002 ) 0 
( 0.142779 0.0521265 0.0994808 ) 0 
( 0.124838 0.0407714 0.0923317 ) 0 
( 0.185601 0.0566712 0.0995002 ) 0 
( 0.143367 0.0366921 0.0994701 ) 0 
( 0.173951 0.026452 0.0992942 ) 0 
( 0.199749 0.0723369 0.0885638 ) 0 
( 0.149776 0.00983577 0.0888016 ) 0 
( 0.191807 0.00447175 0.0988963 ) 0 
( 0.130981 0.00384607 0.0911131 ) 0 
( 0.122465 0.0533094 0.0951032 ) 0 
( 0.151898 0.0239872 0.0905227 ) 0 
( 0.124763 0.0168972 0.0995002 ) 0 
( 0.169907 0.0982765 0.0886052 ) 0 
( 0.120663 0.0893674 0.0955469 ) 0 
( 0.187691 0.0209097 0.0951923 ) 0 
( 0.136014 0.0181766 0.0995002 ) 0 
( 0.130819 0.0537262 0.0953502 ) 0 
( 0.125493 0.0748362 0.0889561 ) 0 
( 0.192139 0.0207281 0.0994712 ) 0 
( 0.121734 0.0292282 0.0926676 ) 0 
( 0.183064 0.0451926 0.094432 ) 0 
( 0.137386 0.0524453 0.0890362 ) 0 
( 0.105773 0.0648412 0.0993387 ) 0 
( 0.158278 0.0155289 0.0995002 ) 0 
( 0.183593 0.0904079 0.0889173 ) 0 
( 0.152815 0.00809705 0.0994717 ) 0 
( 0.131656 0.053322 0.0994679 ) 0 
( 0.107982 0.0877358 0.0990255 ) 0 
( 0.167677 0.016587 0.0991336 ) 0 
( 0.15209 0.0810662 0.0992184 ) 0 
( 0.145864 0.0233332 0.0976415 ) 0 
( 0.11269 0.0125769 0.0991551 ) 0 
( 0.115917 0.020535 0.0884051 ) 0 
( 0.188598 0.0518333 0.0978394 ) 0 
( 0.164285 0.0856778 0.0995002 ) 0 
( 0.116754 0.083927 0.0892323 ) 0 
( 0.126468 0.0814899 0.0995002 ) 0 
( 0.181219 0.0856242 0.0995002 ) 0 
( 0.131516 0.0812744 0.0887828 ) 0 
( 0.143856 0.0519489 0.0993844 ) 0 
( 0.17674 0.0758317 0.0902844 ) 0 
( 0.187072 0.0660861 0.089777 ) 0 
( 0.139124 0.0244727 0.0883088 ) 0 
( 0.144162 0.0693932 0.0995002 ) 0 
( 0.106197 0.0434982 0.0964269 ) 0 
( 0.146364 0.0724797 0.0994465 ) 0 
( 0.127349 0.093223 0.0995002 ) 0 
( 0.164981 0.0694596 0.0888115 ) 0 
( 0.109298 0.0980347 0.0991702 ) 0 
( 0.117876 0.0112264 0.0991888 ) 0 
( 0.1816 0.0823521 0.0995002 ) 0 
( 0.180186 0.0853249 0.0988173 ) 0 
( 0.126986 0.0406667 0.0994986 ) 0 
( 0.143839 0.00741086 0.096416 ) 0 
( 0.173879 0.0386185 0.0983943 ) 0 
( 0.137915 0.0844245 0.098742 ) 0 
( 0.104256 0.0599082 0.0990159 ) 0 
( 0.10113 0.0218451 0.0963385 ) 0 
( 0.192664 0.0263319 0.0990804 ) 0 
( 0.110398 0.00946342 0.0903086 ) 0 
( 0.113253 0.0759086 0.0995002 ) 0 
( 0.167617 0.0785165 0.0890498 ) 0 
( 0.164074 0.0184462 0.0871094 ) 0 
( 0.112814 0.00580479 0.0930699 ) 0 
( 0.103562 0.0522507 0.0990174 ) 0 
( 0.187102 0.052573 0.0995002 ) 0 
( 0.181853 0.0323426 0.0888224 ) 0 
( 0.173677 0.00644851 0.0990445 ) 0 
( 0.137105 0.0560095 0.0902234 ) 0 
( 0.197951 0.0816468 0.0886708 ) 0 
( 0.158201 0.0527976 0.0990341 ) 0 
( 0.115151 0.079453 0.0954628 ) 0 
( 0.155911 0.0696498 0.0881818 ) 0 
( 0.154031 0.0558554 0.0979705 ) 0 
( 0.191926 0.0991539 0.0995002 ) 0 
( 0.110508 0.0775131 0.0968186 ) 0 
( 0.133133 0.0319831 0.0995002 ) 0 
( 0.191984 0.0133153 0.0995002 ) 0 
( 0.113083 0.0540988 0.089487 ) 0 
( 0.117158 0.0863472 0.088646 ) 0 
( 0.186423 0.0489731 0.0995002 ) 0 
( 0.136569 0.00415677 0.09946 ) 0 
( 0.114298 0.0146182 0.0995003 ) 0 
( 0.137417 0.0458787 0.099488 ) 0 
( 0.154564 0.0978336 0.0995002 ) 0 
( 0.194421 0.0203236 0.0994977 ) 0 
( 0.178517 0.0608458 0.0968002 ) 0 
( 0.154888 0.0378826 0.0995002 ) 0 
( 0.135715 0.0954181 0.0995002 ) 0 
( 0.131492 0.0156896 0.0995002 ) 0 
( 0.156529 0.0727165 0.0898221 ) 0 
( 0.156433 0.00906769 0.0995002 ) 0 
( 0.102374 0.0413857 0.0993415 ) 0 
( 0.106226 0.0392556 0.0966832 ) 0 
( 0.143166 0.0332795 0.0898492 ) 0 
( 0.14601 0.0314934 0.0886593 ) 0 
( 0.193928 0.0747695 0.0887375 ) 0 
( 0.126198 0.0330818 0.0888306 ) 0 
( 0.177103 0.0719929 0.088694 ) 0 
( 0.181894 0.029995 0.0931743 ) 0 
( 0.138799 0.0295883 0.0995002 ) 0 
( 0.121723 0.0695538 0.0927649 ) 0 
( 0.194624 0.0280245 0.0951466 ) 0 
( 0.156901 0.000908695 0.0991063 ) 0 
( 0.149496 0.0903282 0.0878854 ) 0 
( 0.180958 0.000856749 0.0889858 ) 0 
( 0.118115 0.0311744 0.0934156 ) 0 
( 0.171096 0.0985151 0.0907684 ) 0 
( 0.186987 0.0138746 0.0995002 ) 0 
( 0.167308 0.0570246 0.0883574 ) 0 
( 0.105728 0.0152053 0.0956767 ) 0 
( 0.178896 0.013859 0.0921901 ) 0 
( 0.198418 0.06429 0.0912844 ) 0 
( 0.184632 0.0109846 0.0912483 ) 0 
( 0.169917 0.0083078 0.0890095 ) 0 
( 0.101722 0.0286893 0.0992276 ) 0 
( 0.283195 0.0394522 0.0991603 ) 0 
( 0.238945 0.0961687 0.0887654 ) 0 
( 0.299094 0.0186171 0.0938583 ) 0 
( 0.238741 0.0523349 0.0888806 ) 0 
( 0.215608 0.0233916 0.092554 ) 0 
( 0.206222 0.0657517 0.0889715 ) 0 
( 0.280676 0.0429016 0.0972296 ) 0 
( 0.269244 0.0267783 0.0886916 ) 0 
( 0.241756 0.0459479 0.0941233 ) 0 
( 0.212858 0.0659061 0.0994946 ) 0 
( 0.27671 0.0707847 0.0994793 ) 0 
( 0.280907 0.0230914 0.0960408 ) 0 
( 0.227266 0.0419768 0.0911287 ) 0 
( 0.227377 0.0222319 0.0927989 ) 0 
( 0.215745 0.0570253 0.0877631 ) 0 
( 0.215445 0.0250252 0.0995002 ) 0 
( 0.265311 0.0203175 0.0918295 ) 0 
( 0.219505 0.0210354 0.0905726 ) 0 
( 0.272155 0.0130409 0.0982777 ) 0 
( 0.260077 0.0907659 0.0889497 ) 0 
( 0.270632 0.0298009 0.0887097 ) 0 
( 0.24433 0.072402 0.0904635 ) 0 
( 0.207913 0.0395928 0.0995002 ) 0 
( 0.204538 0.00314145 0.0884176 ) 0 
( 0.248146 0.0721041 0.0941586 ) 0 
( 0.290823 0.0989162 0.0994282 ) 0 
( 0.284145 0.00577015 0.0991938 ) 0 
( 0.221675 0.0948513 0.099396 ) 0 
( 0.209109 0.08768 0.0976659 ) 0 
( 0.219508 0.0844787 0.0907717 ) 0 
( 0.215341 0.00413908 0.0972022 ) 0 
( 0.223642 0.0500682 0.0887095 ) 0 
( 0.238878 0.0917269 0.0993696 ) 0 
( 0.229881 0.0957675 0.0994625 ) 0 
( 0.252005 0.0615664 0.0921023 ) 0 
( 0.269676 0.056477 0.093413 ) 0 
( 0.272536 0.0111769 0.0888234 ) 0 
( 0.24006 0.00725313 0.0889463 ) 0 
( 0.293513 0.0882034 0.0893203 ) 0 
( 0.259891 0.0961941 0.0912688 ) 0 
( 0.282987 0.0240859 0.091788 ) 0 
( 0.221525 0.0296719 0.0870811 ) 0 
( 0.245534 0.0415779 0.0884295 ) 0 
( 0.21759 0.058307 0.0992346 ) 0 
( 0.208231 0.0364603 0.0886256 ) 0 
( 0.267842 0.00497667 0.089295 ) 0 
( 0.277629 0.0988172 0.0887525 ) 0 
( 0.279244 0.0123509 0.0990729 ) 0 
( 0.224398 0.0402084 0.0887334 ) 0 
( 0.224034 0.0728747 0.0995002 ) 0 
( 0.280966 0.013648 0.098981 ) 0 
( 0.240708 0.0714744 0.0951963 ) 0 
( 0.26312 0.0161922 0.0888777 ) 0 
( 0.245168 0.0671145 0.0995002 ) 0 
( 0.269164 0.0605397 0.0995002 ) 0 
( 0.239157 0.0460507 0.0990559 ) 0 
( 0.2865 0.0314036 0.0995002 ) 0 
( 0.275992 0.00650474 0.0886012 ) 0 
( 0.21036 0.05484 0.0995002 ) 0 
( 0.282864 0.0107481 0.0885885 ) 0 
( 0.22518 0.0456404 0.0994705 ) 0 
( 0.213924 0.0304174 0.0929092 ) 0 
( 0.290697 0.0518812 0.0888323 ) 0 
( 0.246268 0.071331 0.0935412 ) 0 
( 0.217379 0.00763602 0.0903247 ) 0 
( 0.287238 0.0260653 0.0950268 ) 0 
( 0.265443 0.0338512 0.0961065 ) 0 
( 0.228761 0.0236474 0.0921962 ) 0 
( 0.290164 0.00690778 0.0995002 ) 0 
( 0.229061 0.0110827 0.0993218 ) 0 
( 0.280438 0.084469 0.0991314 ) 0 
( 0.21541 0.0649716 0.0992884 ) 0 
( 0.290604 0.080857 0.0965169 ) 0 
( 0.212768 0.0106401 0.0898375 ) 0 
( 0.268869 0.0911612 0.0995002 ) 0 
( 0.24324 0.0311337 0.0993542 ) 0 
( 0.239814 0.0617337 0.0953593 ) 0 
( 0.234279 0.0662447 0.0887948 ) 0 
( 0.266114 0.0801198 0.0992795 ) 0 
( 0.26301 0.0760915 0.0991483 ) 0 
( 0.25255 0.0801608 0.0989757 ) 0 
( 0.263217 0.095081 0.0900788 ) 0 
( 0.241083 0.0798336 0.0979412 ) 0 
( 0.26775 0.0536625 0.0879955 ) 0 
( 0.208015 0.0732923 0.0951811 ) 0 
( 0.296067 0.0885294 0.0887047 ) 0 
( 0.21314 0.0526845 0.097622 ) 0 
( 0.260517 0.058647 0.0994666 ) 0 
( 0.232116 0.0409247 0.0924835 ) 0 
( 0.27083 0.0826182 0.0887591 ) 0 
( 0.264189 0.0527966 0.0995002 ) 0 
( 0.2069 0.0121259 0.0995002 ) 0 
( 0.202573 0.0390553 0.0885433 ) 0 
( 0.276494 0.0846666 0.0888642 ) 0 
( 0.201642 0.0221974 0.0888813 ) 0 
( 0.25573 0.0940795 0.0886986 ) 0 
( 0.290745 0.0752221 0.0985928 ) 0 
( 0.213849 0.0887187 0.0995002 ) 0 
( 0.215188 0.00981989 0.0917646 ) 0 
( 0.249847 0.0185251 0.0938006 ) 0 
( 0.23673 0.0540439 0.0871028 ) 0 
( 0.248764 0.0406583 0.0928214 ) 0 
( 0.21896 0.0943699 0.098961 ) 0 
( 0.298365 0.0383263 0.0981419 ) 0 
( 0.2791 0.0813019 0.0921592 ) 0 
( 0.279723 0.0214713 0.088771 ) 0 
( 0.281763 0.00356929 0.0995002 ) 0 
( 0.217744 0.0482191 0.0910126 ) 0 
( 0.208165 0.0831536 0.0903655 ) 0 
( 0.285234 0.0252926 0.0940433 ) 0 
( 0.267793 0.0430154 0.0900893 ) 0 
( 0.278311 0.0521018 0.0880491 ) 0 
( 0.252312 0.00655208 0.0888988 ) 0 
( 0.248218 0.0637746 0.0952266 ) 0 
( 0.266747 0.08491 0.0891117 ) 0 
( 0.264475 0.0517751 0.0995002 ) 0 
( 0.231689 0.0631904 0.0879618 ) 0 
( 0.279312 0.018736 0.0995002 ) 0 
( 0.22495 0.0134561 0.0994397 ) 0 
( 0.264246 0.0896092 0.0993129 ) 0 
( 0.223793 0.0134239 0.0992848 ) 0 
( 0.222868 0.0787233 0.0995002 ) 0 
( 0.258178 0.0245432 0.0995002 ) 0 
( 0.233123 0.0504141 0.0893704 ) 0 
( 0.262228 0.0260034 0.0884967 ) 0 
( 0.284563 0.0760216 0.0892416 ) 0 
( 0.252259 0.063309 0.0995002 ) 0 
( 0.207787 0.0155944 0.0995002 ) 0 
( 0.261959 0.0986832 0.0990369 ) 0 
( 0.241039 0.0254914 0.0919943 ) 0 
( 0.284522 0.0941797 0.0989735 ) 0 
( 0.24251 0.0893504 0.0887935 ) 0 
( 0.225574 0.0663638 0.0990138 ) 0 
( 0.288634 0.0794374 0.0889472 ) 0 
( 0.276453 0.0500858 0.08793 ) 0 
( 0.212781 0.0584133 0.0908105 ) 0 
( 0.211753 0.00051585 0.0990582 ) 0 
( 0.233795 0.0804179 0.0989812 ) 0 
( 0.249 0.0306222 0.0991503 ) 0 
( 0.221899 0.00858375 0.0976042 ) 0 
( 0.221981 0.0633949 0.0994783 ) 0 
( 0.258151 0.0701646 0.0992652 ) 0 
( 0.25944 0.0982733 0.0994864 ) 0 
( 0.21985 0.0762857 0.0890081 ) 0 
( 0.209573 0.0394309 0.0995002 ) 0 
( 0.207721 0.0235629 0.0995002 ) 0 
( 0.242123 0.0598013 0.0994833 ) 0 
( 0.269665 0.00798997 0.0994846 ) 0 
( 0.239776 0.0496219 0.0880538 ) 0 
( 0.29735 0.0828699 0.0995002 ) 0 
( 0.204214 0.0489257 0.0995002 ) 0 
( 0.276959 0.0567902 0.0887827 ) 0 
( 0.298381 0.0959235 0.0995001 ) 0 
( 0.257399 0.0487644 0.0994703 ) 0 
( 0.261359 0.00817147 0.0890706 ) 0 
( 0.262984 0.0971136 0.0995002 ) 0 
( 0.212727 0.00408512 0.097495 ) 0 
( 0.280709 0.0537428 0.087274 ) 0 
( 0.257643 0.0134132 0.0892451 ) 0 
( 0.28132 0.0330683 0.0905536 ) 0 
( 0.210236 0.00973306 0.0994641 ) 0 
( 0.215849 0.0303994 0.0994702 ) 0 
( 0.237307 0.0232115 0.0887207 ) 0 
( 0.246713 0.0347049 0.0995002 ) 0 
( 0.286302 0.0485015 0.0989774 ) 0 
( 0.246185 0.0620247 0.0913523 ) 0 
( 0.272663 0.0875192 0.0932005 ) 0 
( 0.297395 0.0665428 0.09133 ) 0 
( 0.246493 0.0969284 0.0991445 ) 0 
( 0.26632 0.00176534 0.0983529 ) 0 
( 0.231719 0.0271488 0.0995002 ) 0 
( 0.210492 0.0959914 0.0947288 ) 0 
( 0.262425 0.040664 0.0888006 ) 0 
( 0.244797 0.0182548 0.0947828 ) 0 
( 0.222192 0.0909353 0.0949272 ) 0 
( 0.276992 0.0927742 0.0943393 ) 0 
( 0.279261 0.0969252 0.0886551 ) 0 
( 0.281617 0.0965927 0.0905981 ) 0 
( 0.245561 0.0703271 0.0995002 ) 0 
( 0.205033 0.022754 0.094353 ) 0 
( 0.239222 0.0191488 0.0902015 ) 0 
( 0.26719 0.0525926 0.092463 ) 0 
( 0.229183 0.00395454 0.0980926 ) 0 
( 0.208728 0.0060701 0.0889607 ) 0 
( 0.24519 0.0330576 0.0995002 ) 0 
( 0.236145 0.0858139 0.0991464 ) 0 
( 0.26762 0.044104 0.0896031 ) 0 
( 0.224078 0.0214243 0.0989836 ) 0 
( 0.291186 0.0348693 0.0890875 ) 0 
( 0.253453 0.0175698 0.0995002 ) 0 
( 0.231809 0.0447192 0.0995002 ) 0 
( 0.209805 0.0685189 0.0995002 ) 0 
( 0.299655 0.0175626 0.0911363 ) 0 
( 0.280701 0.07708 0.0885101 ) 0 
( 0.249967 0.0601806 0.0931641 ) 0 
( 0.244306 0.00282286 0.0912679 ) 0 
( 0.294849 0.0320035 0.0944127 ) 0 
( 0.21634 0.0220279 0.0893745 ) 0 
( 0.248341 0.0919974 0.0887758 ) 0 
( 0.238889 0.0483554 0.0892464 ) 0 
( 0.260669 0.0977207 0.0995002 ) 0 
( 0.262157 0.0496317 0.0934805 ) 0 
( 0.221011 0.058933 0.0995002 ) 0 
( 0.194654 0.0378528 0.0987662 ) 0 
( 0.262466 0.0535385 0.0887854 ) 0 
( 0.218262 0.033614 0.0995002 ) 0 
( 0.225905 0.0156659 0.0995002 ) 0 
( 0.240681 0.00377095 0.0991489 ) 0 
( 0.247279 0.0484893 0.0994876 ) 0 
( 0.209837 0.0802797 0.0886476 ) 0 
( 0.24616 0.0216583 0.0887964 ) 0 
( 0.299615 0.0767416 0.0888261 ) 0 
( 0.249443 0.0150045 0.0992838 ) 0 
( 0.218036 0.0767614 0.0891695 ) 0 
( 0.256539 0.0512496 0.0908275 ) 0 
( 0.206614 0.0776202 0.0989951 ) 0 
( 0.21933 0.00270781 0.0887813 ) 0 
( 0.251992 0.0546922 0.0994931 ) 0 
( 0.23547 0.0784319 0.0995002 ) 0 
( 0.206092 0.0168312 0.088747 ) 0 
( 0.278056 0.00398451 0.099301 ) 0 
( 0.203922 0.0842052 0.0887788 ) 0 
( 0.206285 0.09833 0.09066 ) 0 
( 0.226086 0.0376728 0.0991901 ) 0 
( 0.28622 0.0109922 0.0887759 ) 0 
( 0.256483 0.0391738 0.0995002 ) 0 
( 0.207536 0.00521953 0.0994645 ) 0 
( 0.278174 0.0405874 0.0927336 ) 0 
( 0.219711 0.0156954 0.0995002 ) 0 
( 0.299347 0.0202205 0.0889477 ) 0 
( 0.21781 0.0846892 0.0995088 ) 0 
( 0.236422 0.0291043 0.095548 ) 0 
( 0.275789 0.00326315 0.091804 ) 0 
( 0.202541 0.0170862 0.0989905 ) 0 
( 0.265549 0.0409091 0.0924588 ) 0 
( 0.23003 0.0815738 0.0949005 ) 0 
( 0.276707 0.00743675 0.0995003 ) 0 
( 0.256156 0.0275219 0.0963601 ) 0 
( 0.235034 0.0566205 0.0891408 ) 0 
( 0.24051 0.0825338 0.0902467 ) 0 
( 0.294563 0.0508344 0.0894046 ) 0 
( 0.281967 0.0639979 0.0960096 ) 0 
( 0.216189 0.0941492 0.0994502 ) 0 
( 0.247985 0.0462001 0.0992573 ) 0 
( 0.315128 0.093984 0.0966832 ) 0 
( 0.240355 0.0586594 0.0995002 ) 0 
( 0.267787 0.0398209 0.0947136 ) 0 
( 0.263908 0.0108626 0.0952986 ) 0 
( 0.310586 0.0413485 0.0975497 ) 0 
( 0.392719 0.0536929 0.0894215 ) 0 
( 0.377603 0.0817633 0.0995002 ) 0 
( 0.311597 0.0240433 0.088969 ) 0 
( 0.31954 0.0331645 0.0888948 ) 0 
( 0.311145 0.028593 0.0990642 ) 0 
( 0.311496 0.033675 0.0992797 ) 0 
( 0.347744 0.0926711 0.0995002 ) 0 
( 0.350805 0.0702824 0.0898907 ) 0 
( 0.387121 0.0903524 0.0937099 ) 0 
( 0.318211 0.0854444 0.0992938 ) 0 
( 0.310715 0.0753885 0.0988488 ) 0 
( 0.31532 0.0846602 0.0889215 ) 0 
( 0.34458 0.0429632 0.0948463 ) 0 
( 0.335379 0.0481752 0.0957164 ) 0 
( 0.387897 0.0173662 0.0989721 ) 0 
( 0.318475 0.0467377 0.0886468 ) 0 
( 0.305068 0.0924589 0.0984738 ) 0 
( 0.331967 0.0964485 0.0904587 ) 0 
( 0.391534 0.0693629 0.0907656 ) 0 
( 0.374065 0.0382578 0.0995002 ) 0 
( 0.366496 0.0109326 0.0913788 ) 0 
( 0.373874 0.0605972 0.0938175 ) 0 
( 0.341544 0.00297893 0.0958662 ) 0 
( 0.380559 0.0217323 0.0916983 ) 0 
( 0.382795 0.00712669 0.0991823 ) 0 
( 0.331263 0.0909964 0.0993738 ) 0 
( 0.386055 0.0410748 0.0887232 ) 0 
( 0.369731 0.0155025 0.0957391 ) 0 
( 0.346546 0.0244343 0.0936777 ) 0 
( 0.340533 0.0446237 0.0995002 ) 0 
( 0.319543 0.0359159 0.0949387 ) 0 
( 0.308146 0.0598125 0.099379 ) 0 
( 0.306499 0.0173645 0.0901555 ) 0 
( 0.331154 0.0434562 0.0991678 ) 0 
( 0.395279 0.0429957 0.0934817 ) 0 
( 0.333957 0.0452756 0.088608 ) 0 
( 0.366673 0.0399152 0.0887601 ) 0 
( 0.362959 0.0250838 0.0993742 ) 0 
( 0.344508 0.0200802 0.0927271 ) 0 
( 0.331882 0.0580444 0.0886102 ) 0 
( 0.315418 0.0161763 0.0889516 ) 0 
( 0.386717 0.0928216 0.093103 ) 0 
( 0.39452 0.069635 0.0887222 ) 0 
( 0.349632 0.0379175 0.0989629 ) 0 
( 0.345518 0.0369889 0.0955996 ) 0 
( 0.350724 0.012062 0.0886188 ) 0 
( 0.363755 0.046158 0.0903863 ) 0 
( 0.355515 0.0214929 0.0886268 ) 0 
( 0.356789 0.00146687 0.0953673 ) 0 
( 0.324913 0.0503563 0.088745 ) 0 
( 0.326782 0.0609004 0.0994764 ) 0 
( 0.377293 0.0948651 0.0943062 ) 0 
( 0.374406 0.00869546 0.0927842 ) 0 
( 0.377746 0.0972509 0.0995002 ) 0 
( 0.382332 0.0781849 0.0954153 ) 0 
( 0.378004 0.0247691 0.0995002 ) 0 
( 0.317867 0.00318419 0.0924311 ) 0 
( 0.324138 0.00778788 0.0900204 ) 0 
( 0.34824 0.0473537 0.0927837 ) 0 
( 0.376544 0.0679452 0.0952837 ) 0 
( 0.36214 0.0430465 0.0956501 ) 0 
( 0.317033 0.0862626 0.0936465 ) 0 
( 0.349244 0.0273596 0.0886301 ) 0 
( 0.323321 0.0990189 0.0881241 ) 0 
( 0.379783 0.0361155 0.0995002 ) 0 
( 0.341957 0.0362554 0.0905666 ) 0 
( 0.321926 0.0975497 0.0887014 ) 0 
( 0.294235 0.0516908 0.0995002 ) 0 
( 0.327524 0.0178779 0.0989637 ) 0 
( 0.347251 0.0966966 0.0989381 ) 0 
( 0.364306 0.000875841 0.0889355 ) 0 
( 0.326689 0.0366156 0.0888744 ) 0 
( 0.323316 0.0374298 0.0994635 ) 0 
( 0.307452 0.0657574 0.0870743 ) 0 
( 0.386179 0.0328782 0.092549 ) 0 
( 0.388865 0.0798936 0.096527 ) 0 