FoamFile
{version 2.0; format ascii;class vectorField; location 0;object  v;}
1000
(
( 0.282296 -0.0014709 -0.109831 )  
( 0.0151758 -0.00063115 0.0679363 )  
( 0.0506855 -0.00075252 0.341247 )  
( 0.260433 -0.00151685 -0.077482 )  
( 0.00703043 -5.17226e-05 -0.00982798 )  
( 0.0123916 9.08181e-05 -0.0439503 )  
( 0.283254 0.00103399 -0.0602272 )  
( 0.0444228 0.000180825 0.345049 )  
( 0.0048327 1.1298e-05 -5.65738e-07 )  
( 0.248271 -0.00049071 0.202047 )  
( 0.241269 -0.000346434 0.257213 )  
( 0.284148 -0.000415293 0.108021 )  
( 0.00461764 -0.00022239 -5.45497e-08 )  
( 0.00547322 -7.15811e-05 -2.41727e-07 )  
( 0.0751668 -0.000373475 0.247361 )  
( 0.0046353 1.07843e-05 1.11046e-07 )  
( 0.0165438 -9.85457e-05 -0.102348 )  
( 0.00539959 -0.000104783 -3.05559e-07 )  
( 0.0178029 6.61069e-05 0.0174436 )  
( 0.279505 0.00113345 -0.0810247 )  
( 0.262817 -0.00218656 0.00883302 )  
( 0.101432 -0.000134636 0.206901 )  
( 0.0889496 0.00042113 0.0102048 )  
( 0.0995271 -0.000291053 0.304182 )  
( 0.00487245 -2.81951e-05 -3.16395e-07 )  
( 0.125134 -0.000570159 0.286299 )  
( -0.0364094 -0.0358165 -1.77704e-07 )  
( 0.0133839 0.000265821 -0.0350645 )  
( 0.184724 -0.00702206 0.114138 )  
( 0.0140306 0.000188157 -0.0303195 )  
( 0.0955707 -5.66722e-05 0.000258781 )  
( 0.265389 -0.00103233 -0.0770041 )  
( -0.309771 -0.142657 -5.61098e-05 )  
( 0.01457 3.67251e-05 -0.0112459 )  
( 0.268334 -0.000751232 -0.0221872 )  
( 0.0249779 -3.51706e-05 0.189154 )  
( 0.0233618 -1.69893e-05 -0.000753343 )  
( 0.274638 -0.00333928 0.0242139 )  
( 0.265346 -4.18896e-05 -0.0264969 )  
( 0.238182 6.65222e-05 0.228237 )  
( 0.00703902 3.29978e-05 0.00384251 )  
( 0.00881587 -7.00505e-06 -0.0772698 )  
( 0.00675042 -0.000200472 -0.0204371 )  
( 0.226024 -0.000456174 0.0691156 )  
( 0.183342 -0.000262982 0.0439937 )  
( 0.0124331 -0.00016473 0.0837969 )  
( 0.00646736 4.05782e-05 -0.00703575 )  
( 0.276221 -0.00010661 -0.106069 )  
( 0.261926 -0.00197744 -0.155964 )  
( 0.18096 0.00090611 0.249735 )  
( 0.281347 -0.00122679 0.000510722 )  
( 0.00522979 -7.52435e-05 -3.01441e-08 )  
( 0.161675 -0.000535664 0.141574 )  
( 0.00508243 0.000123248 -1.29519e-07 )  
( 0.0161037 9.82276e-05 -0.0975123 )  
( 0.089025 0.000468631 0.315625 )  
( 0.00655826 0.000122366 0.000557948 )  
( 0.273116 -0.00105738 -0.15712 )  
( 0.261953 -0.00124901 0.175535 )  
( 0.257932 0.00175852 0.173906 )  
( 0.281275 -0.00073692 0.084108 )  
( 0.0165127 -1.51889e-05 0.00224768 )  
( 0.283842 -0.000649578 -0.113233 )  
( 0.231214 -0.00060311 0.238625 )  
( 0.266182 -0.000101724 0.161817 )  
( -0.00557941 -0.0279748 2.15596e-07 )  
( 0.00509934 8.38503e-05 -0.000159159 )  
( 0.0151179 -0.000127656 0.0175363 )  
( 0.11602 -0.00044898 0.299927 )  
( 0.269447 -0.00204734 -0.00588409 )  
( 0.283365 -0.000233018 -0.0719194 )  
( 0.012274 0.000135493 -0.0886576 )  
( 0.134687 0.000582854 0.285619 )  
( 0.0055549 -9.56233e-06 0.0036141 )  
( 0.270204 0.000330376 -0.0689189 )  
( 0.0139072 -4.62266e-05 0.0686975 )  
( 0.0202553 9.71605e-06 0.262102 )  
( 0.259183 0.00134585 0.247532 )  
( 0.264304 -0.00114792 0.181167 )  
( 0.0284813 0.000200031 0.362768 )  
( 0.011621 -6.85074e-05 0.0895968 )  
( 0.270313 -0.00331867 -0.129366 )  
( 0.265861 0.000209964 -0.0938395 )  
( 0.0113943 -0.000117986 0.0878248 )  
( 0.006721 0.000209567 -0.00106352 )  
( 0.0114944 -0.000175914 0.0898378 )  
( 0.00712568 0.000170661 -0.0176498 )  
( 0.00466485 -0.000111735 -3.87673e-08 )  
( 0.274066 -0.00396849 -0.0858416 )  
( 0.272148 -0.00238776 0.0302728 )  
( 0.0134923 -1.26953e-05 -0.0998473 )  
( 0.00480188 0.000134689 3.53729e-07 )  
( -0.0259131 0.00239682 -0.0009529 )  
( 0.26873 -0.00285414 0.0679747 )  
( 0.00287863 4.89882e-05 3.1663e-07 )  
( 0.157338 0.000279616 0.154131 )  
( 0.268772 -0.000114832 0.0239097 )  
( 0.00371046 -0.105876 -6.14529e-08 )  
( 0.0115071 0.000270325 -0.044982 )  
( 0.270065 -0.00151917 -0.143635 )  
( 0.268621 -0.00213757 -0.0251597 )  
( 0.00469932 0.000139327 5.02451e-07 )  
( 0.00922886 0.000184811 -0.0813792 )  
( 0.00471885 6.7508e-05 3.54211e-07 )  
( 0.216775 0.00142517 0.250197 )  
( 0.0571044 0.285782 0.0694284 )  
( 0.0046527 -3.40406e-05 1.1018e-07 )  
( 0.0844456 -0.0178142 -2.43536e-07 )  
( 0.266712 0.000383811 0.00778129 )  
( 0.0619415 -0.160074 0.0416755 )  
( 0.00680277 6.83971e-05 -0.0175415 )  
( 0.283742 0.000260441 -0.0896881 )  
( 0.265816 -0.000387392 0.0421932 )  
( 0.281951 0.00139314 -0.0232185 )  
( 0.0875361 -1.67921e-05 -0.132492 )  
( 0.26606 -0.0014196 -0.148171 )  
( 0.0114045 -0.148261 -2.57843e-07 )  
( 0.210098 0.000338339 0.168812 )  
( 0.268405 -0.00176801 -0.151541 )  
( 0.27173 -0.00318989 0.0513342 )  
( 0.0542355 -0.000668347 0.358111 )  
( 0.284133 0.000868625 -0.0799153 )  
( 0.267554 0.000111045 0.187495 )  
( 0.0150236 0.000179589 0.0631163 )  
( -0.00934374 -0.106104 0.0257898 )  
( 0.153626 -0.00113794 0.135744 )  
( 0.228972 0.000214613 0.0321928 )  
( 0.183644 -0.000265398 0.0629964 )  
( 0.0932374 -0.000473789 0.177755 )  
( 0.0171357 -8.25924e-05 -0.106937 )  
( 0.279708 -0.00105756 0.130171 )  
( 0.265918 -0.00101741 -0.065996 )  
( 0.237916 -0.000215667 0.182403 )  
( 0.0423925 -0.000428551 -0.0623578 )  
( 0.272201 0.000744374 0.0158191 )  
( 0.279724 -0.00130114 -0.129289 )  
( 0.00505717 0.000190058 1.62047e-07 )  
( 0.00466636 -0.000129277 -8.95129e-08 )  
( 0.259782 -0.00242386 -0.185 )  
( 0.26507 -0.0010253 0.0651722 )  
( 0.208908 -0.001514 0.0920192 )  
( 0.28104 -0.000778417 -0.0376122 )  
( 0.0395449 -2.75807e-06 0.346032 )  
( 0.00519991 0.000115791 3.03537e-07 )  
( 0.240122 -9.88577e-05 0.0256314 )  
( 0.280022 -0.000107037 8.48604e-05 )  
( 0.265682 -0.00139345 -0.179488 )  
( 0.27366 -0.0025495 0.0889387 )  
( 0.157333 0.287468 0.00527873 )  
( 0.00485541 2.93273e-05 1.20138e-07 )  
( 0.00476433 -3.17956e-05 2.49176e-07 )  
( 0.227532 0.00187991 0.131632 )  
( 0.235668 -0.000689431 -0.000685465 )  
( 0.0165634 0.000182926 0.0192125 )  
( 0.248608 -0.000101839 -0.0404414 )  
( 0.013986 -0.000137642 0.328708 )  
( 0.279724 -0.00123221 0.15185 )  
( 0.00488964 8.60055e-06 5.06231e-07 )  
( 0.267825 -0.00221434 0.11831 )  
( 0.265863 -0.000568173 0.162908 )  
( 0.271118 0.000664242 0.109146 )  
( 0.0436093 -4.88801e-05 0.280285 )  
( 0.267289 -0.00175755 0.0215597 )  
( 0.00508546 7.02989e-05 2.26987e-07 )  
( 0.262225 -0.00188212 0.155958 )  
( 0.0347775 5.31548e-05 0.356484 )  
( 0.0109618 -0.000241586 0.0909345 )  
( 0.016266 0.000226657 0.0463378 )  
( 0.281327 0.000866622 -0.033142 )  
( 0.133029 -6.11703e-05 0.286339 )  
( 0.386597 -0.0112581 4.6111e-07 )  
( 0.00505332 7.07628e-05 2.15687e-07 )  
( 0.00534155 -0.000131672 -2.41749e-07 )  
( 0.00687181 1.17792e-05 -0.00529676 )  
( 0.159855 -0.000745578 0.291418 )  
( 0.00833434 -0.000110684 -0.0814003 )  
( 0.264166 -0.000695231 0.187421 )  
( 0.262919 -0.00200555 0.100991 )  
( 0.265345 0.000641108 0.121123 )  
( 0.151444 0.10488 -3.01916e-07 )  
( 0.261203 -0.00250545 0.065036 )  
( 0.00565271 -2.30419e-05 0.00102297 )  
( 0.00480111 -8.86929e-05 -4.45449e-07 )  
( 0.277256 -0.00126979 0.0680675 )  
( 0.281803 -0.00106385 -0.0898849 )  
( 0.222238 -0.00133774 0.104139 )  
( 0.0152007 -0.000225994 -0.0118174 )  
( 0.280646 -0.00162058 -0.0161651 )  
( 0.264027 -0.00147522 -0.12653 )  
( 0.0171605 0.000206825 0.0405597 )  
( 0.267507 -0.00175401 -0.0630168 )  
( 0.278396 0.000286653 0.207156 )  
( 0.267334 0.000158685 -0.0505639 )  
( 0.283974 -0.00112241 0.0512666 )  
( 0.00891491 -1.48764e-05 -0.078621 )  
( 0.00486759 -0.000159548 -2.97131e-08 )  
( 0.244025 -0.000670327 -0.01865 )  
( 0.0921768 -0.000420326 0.314037 )  
( 0.22304 -0.000693583 0.114277 )  
( -0.0158992 -0.0155626 2.15709e-07 )  
( 0.00455444 -8.52097e-05 1.79624e-07 )  
( 0.00475766 -0.000311436 -1.33366e-08 )  
( 0.270323 -0.00225551 -0.144989 )  
( -0.0423439 -0.038141 -0.0583329 )  
( 0.158289 -0.00049379 0.231304 )  
( 0.0171392 6.32133e-05 0.0299489 )  
( 0.264962 -0.000715563 0.0973499 )  
( 0.0372373 -0.000288572 0.334062 )  
( 0.260654 -0.00234197 0.124735 )  
( 0.00532687 3.14892e-05 1.89726e-08 )  
( 0.233029 -0.00158312 -0.01468 )  
( 0.163698 -0.00139598 0.252737 )  
( 0.263585 -0.000496392 0.06969 )  
( 0.0149958 -1.29103e-05 -0.0313696 )  
( 0.15737 -0.00125507 0.234311 )  
( 0.0117693 -0.00010767 -0.0524235 )  
( 0.00540881 -2.58637e-05 -2.41495e-07 )  
( 0.130252 0.38828 0.165878 )  
( 0.279326 -0.000748371 0.0406166 )  
( 0.0267473 -0.000128906 0.359624 )  
( 0.00511981 5.89179e-05 2.35734e-07 )  
( 0.0310576 -5.55378e-05 0.364253 )  
( 0.266056 0.000312093 0.069038 )  
( 0.252913 -0.00287306 0.225639 )  
( -0.0560768 -0.152991 0.0152032 )  
( 0.00527567 0.000112624 -2.68316e-07 )  
( 0.270419 -0.000577414 -0.0901261 )  
( 0.133964 -4.4247e-05 -0.0672697 )  
( -0.355682 0.0190013 0.0114097 )  
( 0.282381 0.00119513 0.0431606 )  
( 0.220046 -0.0618222 0.24992 )  
( 0.0122817 0.0056935 1.41294e-07 )  
( 0.01004 0.000194736 -0.0597784 )  
( 0.262749 -0.000805634 0.166986 )  
( 0.00490191 2.2099e-05 2.85376e-07 )  
( 0.259929 -0.00137134 0.198902 )  
( 0.214703 -0.000662304 0.109547 )  
( 0.283338 -0.000562891 0.0538174 )  
( 0.0623873 0.000213426 0.305457 )  
( 0.158509 8.86147e-05 0.281739 )  
( 0.0154125 -0.000129365 0.0230863 )  
( 0.00771314 -2.35974e-05 0.0253673 )  
( 0.109219 0.000454074 0.320925 )  
( 0.282951 0.000791576 0.0453056 )  
( -0.168075 0.00510673 -9.57604e-08 )  
( 0.107317 -0.000515377 -0.104839 )  
( 0.266106 -0.00109859 0.0360712 )  
( 0.454701 -0.0170272 0.119326 )  
( 0.273112 -0.000414293 0.222555 )  
( 0.134946 -0.000193364 0.282563 )  
( 0.226005 -0.00198174 0.197909 )  
( 0.00501271 4.59349e-05 -1.29477e-07 )  
( 0.00507416 -5.6294e-05 -5.90613e-08 )  
( 0.271549 0.00105096 -0.106785 )  
( 0.26546 0.000597851 -0.117866 )  
( 0.0368996 0.000149286 0.335867 )  
( 0.2472 0.000601977 0.100068 )  
( 0.269185 -6.79988e-05 0.150525 )  
( 0.0168141 -0.0001438 0.022444 )  
( 0.272793 0.000871152 -0.0569512 )  
( 0.101885 0.178792 0.03948 )  
( 0.223562 0.000471993 0.196076 )  
( 0.0103727 8.42622e-05 0.324298 )  
( 0.0125081 3.14105e-05 -0.0961635 )  
( 0.00524211 5.56859e-06 -2.74862e-05 )  
( 0.00500177 3.6163e-05 -2.03823e-08 )  
( 0.0672235 0.000124181 0.337784 )  
( 0.0130427 -5.95832e-05 -0.0340998 )  
( 0.266741 -0.00243585 -0.0444297 )  
( 0.0847154 -0.000125734 0.318881 )  
( 0.271052 0.000770644 0.0484067 )  
( 0.27089 -0.000331878 0.0537575 )  
( 0.129812 -3.19473e-06 0.288881 )  
( 0.0942981 0.000356017 0.22596 )  
( -0.136158 -0.0767834 7.17118e-08 )  
( 0.271846 0.00161688 -0.0801206 )  
( 0.0166597 -0.000110712 -0.00600381 )  
( 0.269988 0.000980541 -0.14956 )  
( 0.0159899 -9.13255e-05 -0.101535 )  
( 0.270968 1.79076e-05 0.0576103 )  
( 0.211099 -0.000551149 0.134167 )  
( 0.00934302 0.000102816 -0.0674082 )  
( 0.270327 -0.00014429 0.114867 )  
( 0.270506 0.000873497 0.00837716 )  
( 0.271135 3.9995e-05 -0.170176 )  
( 0.272488 0.00147636 0.0658407 )  
( 0.00518481 0.000150576 -0.000172275 )  
( 0.266004 -0.00113739 -0.0787767 )  
( 0.271985 0.00134619 0.0417479 )  
( 0.272166 0.000605555 -0.122919 )  
( 0.00571723 -9.77095e-05 -0.00301786 )  
( 0.0502008 0.000135176 0.342062 )  
( 0.269127 9.83261e-05 0.141087 )  
( 0.372387 0.170938 0.132586 )  
( 0.249875 0.00156564 0.192184 )  
( 0.0166048 -0.000485646 -0.00538599 )  
( 0.267796 -0.000411431 -0.106581 )  
( 0.268016 -0.000852347 -0.0731407 )  
( 0.00520491 8.56008e-05 7.00901e-08 )  
( 0.271532 -0.000135949 -0.153613 )  
( 0.27251 0.00173549 -0.0302677 )  
( 0.270636 0.000290131 0.106878 )  
( 0.123651 0.00047378 0.296474 )  
( -0.152715 0.0244352 -4.59576e-08 )  
( 0.268498 0.00102776 0.12694 )  
( 0.263457 0.00161656 -0.0924203 )  
( 0.0141594 -7.06832e-05 -0.0311405 )  
( 0.0161545 0.000243599 -0.00713094 )  
( 0.2724 0.00173313 0.0850823 )  
( -0.117803 -0.0830514 0.158049 )  
( 0.147031 0.000374757 -0.0429923 )  
( 0.270916 0.00210342 -0.19256 )  
( 0.014572 0.000250986 -0.0160992 )  
( 0.155779 0.000361055 0.276063 )  
( 0.0929648 0.000289829 0.316624 )  
( 0.24981 0.000205863 0.201961 )  
( 0.0937159 0.000350735 0.125827 )  
( 0.00903341 -0.000190128 -0.0654281 )  
( 0.268439 0.000520535 -0.147959 )  
( 0.0163397 0.000186199 0.0516207 )  
( 0.27146 0.00256318 0.0409186 )  
( 0.272461 -0.00218084 -0.15592 )  
( 0.0875375 0.000360144 0.00304763 )  
( 0.270716 0.00337783 -0.0369769 )  
( 0.237996 -0.00350128 0.254789 )  
( 0.225102 -0.00269668 0.151592 )  
( 0.0109968 -7.32691e-05 -0.0883657 )  
( 0.0160282 8.72489e-05 0.00838223 )  
( 0.0141487 6.16424e-05 0.0714407 )  
( 0.0901741 3.02111e-05 0.310442 )  
( 0.00523357 -6.89994e-05 7.18447e-08 )  
( 0.00513726 0.000113947 -2.02674e-05 )  
( 0.272205 0.00141331 -0.137071 )  
( 0.174901 0.000497347 0.282289 )  
( 0.268545 0.000507738 0.186528 )  
( 0.0165743 5.5049e-06 0.00388048 )  
( 0.270465 0.000774078 -0.108015 )  
( 0.248761 0.000293865 0.182552 )  
( 0.0161587 -7.85329e-05 0.0153814 )  
( 0.0143786 0.000103137 -0.0191382 )  
( 0.0307048 -0.0225323 -0.0513689 )  
( 0.192702 -0.000226565 0.223585 )  
( 0.00509038 2.42011e-05 -1.25347e-07 )  
( 0.00703586 -4.79912e-06 -0.0125033 )  
( 0.2694 -0.00207576 -0.0519474 )  
( 0.269684 0.000643843 -0.139185 )  
( 0.00767033 -1.80482e-05 0.0191998 )  
( 0.0139085 -9.95073e-05 -0.097376 )  
( 0.272003 -0.00213589 -0.14382 )  
( 0.270492 -0.00049965 0.0671678 )  
( 0.267888 -0.000422363 0.153412 )  
( 0.250303 0.000151154 -0.124017 )  
( 0.270651 -0.00150159 0.0939667 )  
( 0.268877 0.000309251 -0.12514 )  
( 0.27009 0.00244391 -0.150953 )  
( 0.0148136 9.33548e-05 0.0591693 )  
( 0.014649 0.000200914 0.0673877 )  
( 0.0070287 5.82808e-05 -0.015343 )  
( 0.00872114 -0.000136127 -0.0745145 )  
( 0.0157628 -0.000106478 -0.0136578 )  
( 0.272743 0.00110416 -0.00365017 )  
( 0.012498 -0.000116373 -0.0427633 )  
( 0.00715344 -0.000134119 -0.0165058 )  
( 0.0559321 0.000369339 0.315372 )  
( 0.272197 -0.00188105 0.0185698 )  
( 0.522396 -0.070332 0.191271 )  
( 0.214406 0.000776416 0.188999 )  
( 0.00892124 0.000117227 -0.0776398 )  
( 0.268565 0.00021458 0.0497639 )  
( 0.00513031 -0.000218802 -7.17087e-08 )  
( 0.0048279 -2.46566e-05 -1.24812e-06 )  
( 0.00508988 0.000114006 2.57184e-07 )  
( 0.271302 -0.000995684 -0.122881 )  
( 0.264645 0.00161577 0.103059 )  
( 0.00927373 -2.54423e-06 -0.0784391 )  
( 0.0165542 7.61093e-05 0.0433065 )  
( 0.00504439 -1.68969e-05 -1.39465e-07 )  
( 0.268534 -0.00179914 0.0942648 )  
( 0.441803 0.170873 0.0326233 )  
( 0.266663 -0.000745516 0.0291453 )  
( 0.272341 0.000629336 -0.0836657 )  
( 0.0785856 0.000391078 -0.0646659 )  
( 0.164342 0.000623038 0.222167 )  
( 0.0314161 0.000145626 0.350357 )  
( 0.0923177 -0.000358988 0.331582 )  
( 0.00519954 5.01862e-05 4.37182e-06 )  
( -0.198582 0.00975451 -0.0160468 )  
( 0.22759 0.000181802 0.164317 )  
( 0.193729 0.0211208 -1.1493e-07 )  
( 0.00732961 -3.45193e-06 0.0088554 )  
( 0.0137775 -4.64979e-05 0.075582 )  
( 0.272726 -0.00216057 -0.0778728 )  
( 0.234668 0.000419266 -0.150629 )  
( 0.0418314 -0.000196605 0.345189 )  
( 0.120224 0.000129608 0.132689 )  
( 0.149583 0.000753347 0.250878 )  
( 0.225025 0.000669876 0.105475 )  
( 0.00525132 -1.12569e-06 1.01054e-07 )  
( 0.0340347 0.000312 0.0175962 )  
( 0.51131 0.220687 0.0944235 )  
( 0.172781 -0.0013484 0.273043 )  
( 0.00511473 -7.15721e-05 7.29902e-08 )  
( 0.199535 0.00097345 0.251625 )  
( 0.225245 0.00223637 -0.0019111 )  
( 0.00699444 -0.000222827 -0.0133515 )  
( 0.249236 -4.78051e-05 0.161035 )  
( 0.212907 0.000300165 0.225435 )  
( 0.272799 0.000995935 0.010186 )  
( 0.01323 0.000227062 0.08036 )  
( 0.00494703 9.24202e-05 -2.78995e-07 )  
( 0.261793 -0.000664488 -0.129139 )  
( 0.00681962 0.000116536 -0.013768 )  
( 0.0112492 1.64135e-05 0.0902563 )  
( 0.0170815 3.05602e-05 0.0275691 )  
( 0.0156159 5.04277e-05 0.0467897 )  
( 0.0143532 -7.34289e-05 0.0650175 )  
( 0.0881928 -0.000158957 0.335822 )  
( 0.00832155 0.000199299 0.048023 )  
( 0.271869 0.000833405 -0.0580857 )  
( 0.0568431 0.000123154 0.323496 )  
( 0.0049658 -7.344e-05 -2.93682e-07 )  
( 0.272125 0.00179821 0.0144394 )  
( 0.00497365 0.000177393 -1.436e-07 )  
( 0.00510388 -0.000147058 -1.46001e-07 )  
( 0.272948 0.00313259 -0.0765569 )  
( -0.120081 -0.06191 -0.091476 )  
( 0.221532 -0.00112489 0.0458817 )  
( 0.270152 -0.00105102 0.0686682 )  
( 0.270889 -0.000128202 -0.0610069 )  
( 0.00522644 -0.000114521 5.18797e-08 )  
( 0.142895 0.000686665 0.304151 )  
( 0.0150084 -9.74533e-05 -0.0966637 )  
( 0.00501697 7.40157e-05 -3.25806e-07 )  
( 0.266901 -0.000454332 -0.0430276 )  
( 0.00941888 1.77311e-05 -0.0665119 )  
( 0.0155731 0.000193372 0.0606081 )  
( 0.0051563 -0.000142336 -1.46802e-07 )  
( 0.0449658 -0.000314829 0.352352 )  
( 0.006051 1.51516e-05 0.00373908 )  
( 0.14017 -2.70868e-05 0.286465 )  
( 0.0373593 -6.64281e-06 0.33957 )  
( -0.123603 -0.0813219 0.171955 )  
( 0.0146788 0.00028576 -0.018675 )  
( 0.114286 -0.000330965 0.291961 )  
( 0.012349 -0.000331393 -0.0402956 )  
( 0.252052 0.000904346 0.0917109 )  
( 0.00503457 7.12472e-05 -1.85263e-07 )  
( 0.266137 0.00015708 -0.00225511 )  
( 0.272059 0.000657594 -0.120429 )  
( 0.213608 0.000992649 0.177344 )  
( 0.0156064 0.00025389 -0.000133984 )  
( 0.00511349 2.82118e-05 -1.11635e-07 )  
( 0.271366 -0.00115776 -0.111432 )  
( 0.0175494 -1.85577e-05 0.0426595 )  
( 0.271629 0.00108177 0.0424244 )  
( 0.27163 -0.00366757 -0.053986 )  
( 0.0137105 -4.20998e-05 -0.0219797 )  
( 0.173999 0.000545348 0.258294 )  
( 0.27027 5.01188e-05 -0.150299 )  
( 0.0740428 -0.000130406 0.342182 )  
( 0.00582764 -0.000148502 0.00598351 )  
( 0.0901014 0.000268969 0.292685 )  
( 0.270553 0.144217 7.19923e-09 )  
( 0.00504308 -0.000140197 -4.08139e-07 )  
( 0.268983 0.000866242 -0.00609119 )  
( 0.272188 0.00164306 -0.147583 )  
( 0.00507262 3.3922e-05 -5.87739e-08 )  
( 0.015441 -1.38648e-05 -0.101027 )  
( 0.0053912 0.000126289 -0.00017314 )  
( 0.00747247 2.85018e-05 -0.0230383 )  
( 0.00476363 3.90002e-05 5.0614e-08 )  
( 0.00582559 -0.000154254 0.00122822 )  
( -0.0735363 -0.0842983 0.0536282 )  
( 0.00502897 4.80829e-05 -1.06608e-07 )  
( 0.00487563 7.24093e-05 -3.74675e-07 )  
( 0.00517734 -7.43746e-05 7.21829e-08 )  
( 0.269251 0.000605093 0.0754567 )  
( 0.00493064 0.00010552 3.33434e-08 )  
( 0.0106242 0.000155406 -0.088554 )  
( 0.12861 0.000572893 0.297689 )  
( 0.27107 -9.1336e-05 0.0449374 )  
( 0.270562 0.000177732 -0.153333 )  
( 0.271093 -0.00263406 -0.10616 )  
( 0.271661 -0.000528046 -0.047208 )  
( 0.267933 -0.00130881 -0.0754544 )  
( 0.270583 -0.000698416 0.180636 )  
( 0.005104 -4.97847e-05 -1.39916e-07 )  
( 0.268365 0.00214325 0.167917 )  
( 0.213251 -0.0020913 0.245609 )  
( 0.0108358 0.00011394 -0.056709 )  
( 0.198235 0.00153497 -0.0832666 )  
( 0.0137969 -7.05039e-05 -0.152486 )  
( 0.269124 6.11797e-05 0.209662 )  
( 0.0276915 0.000248238 0.117719 )  
( 0.00512247 -0.000160249 6.28068e-08 )  
( 0.26747 -0.000163966 -0.0557691 )  
( 0.182377 -0.000119612 0.283928 )  
( 0.244906 -0.00084538 0.174807 )  
( 0.214053 -0.000425436 0.103225 )  
( 0.266248 -0.00112142 0.137464 )  
( 0.272208 0.000513816 -0.0104447 )  
( 0.0149824 0.000147075 0.0675814 )  
( 0.0152822 -0.000151619 0.0490547 )  
( 0.0687819 4.57405e-05 -0.120927 )  
( 0.274474 0.00249267 0.23248 )  
( 0.275356 -0.000787854 -0.123297 )  
( 0.205086 0.000149809 0.160935 )  
( 0.272488 -0.00052089 -0.140928 )  
( 0.105564 -0.000381671 0.304037 )  
( 0.279304 0.00218347 -0.0458194 )  
( 0.203859 -0.000491632 0.241906 )  
( 0.00723053 0.000127048 -0.0240818 )  
( 0.00710465 -6.51263e-05 -0.0178586 )  
( 0.165586 0.00209096 0.270899 )  
( 0.273413 -0.00137604 0.0930455 )  
( 0.200808 0.000331442 0.196151 )  
( 0.271438 0.000161205 -0.0285148 )  
( 0.00508454 0.000126085 2.39723e-07 )  
( 0.27414 0.00161618 0.13089 )  
( 0.272148 0.000290153 0.108342 )  
( 0.0645903 0.000469101 0.349952 )  
( 0.256174 -0.000999503 -0.00663661 )  
( 0.280893 0.0024527 -0.0741557 )  
( 0.275476 0.00123106 0.0987698 )  
( -0.0112531 -0.252487 1.96308e-07 )  
( 0.085599 -0.000149769 -0.164998 )  
( 0.165135 0.000304996 0.215714 )  
( -0.13249 0.0290602 -0.0516222 )  
( 0.0152176 3.90044e-05 0.0569246 )  
( 0.0124103 5.04215e-05 -0.0908874 )  
( 0.0858867 -0.000923403 0.314359 )  
( 0.275924 -0.000377094 0.114463 )  
( 0.105578 0.000150352 0.323746 )  
( 0.272713 -0.000752282 -0.071491 )  
( 0.205716 0.332863 -0.0360206 )  
( 0.0154357 -6.81504e-06 -0.100467 )  
( 0.187926 0.000268844 0.151892 )  
( 0.275871 -0.00194433 0.217942 )  
( 0.276959 0.00158252 -0.0477139 )  
( 0.171484 4.32192e-05 -0.13829 )  
( 0.276194 0.000424021 0.0284328 )  
( 0.109512 -0.000371649 0.139345 )  
( 0.279168 0.00335108 0.162395 )  
( 0.274756 -0.000795684 -0.10913 )  
( 0.274495 -0.000811886 -0.095706 )  
( 0.00892764 -3.9571e-05 -0.0683208 )  
( 0.273113 -0.00103812 -0.103934 )  
( 0.186734 0.000768115 0.0230708 )  
( 0.0212354 7.51331e-05 -0.0210472 )  
( 0.0163198 0.000214682 0.0291463 )  
( 0.273712 -0.00126859 -0.0978266 )  
( 0.00498024 0.000208182 -1.27317e-07 )  
( 0.0174855 0.000342322 0.0105222 )  
( 0.155766 0.000897453 0.246506 )  
( 0.273848 0.00104422 -0.03328 )  
( 0.00530918 -0.000104303 -3.52803e-08 )  
( 0.00508462 -0.000199634 5.67562e-08 )  
( 0.0170353 -4.42632e-05 0.0362013 )  
( 0.00514026 7.49125e-05 -1.7745e-07 )  
( 0.127621 0.000699925 -0.0945875 )  
( 0.00504253 9.54391e-05 2.14983e-07 )  
( 0.277424 0.0017025 -0.10538 )  
( 0.00702236 -0.000103133 -0.0120369 )  
( 0.271835 -0.00081097 0.171147 )  
( 0.276332 -0.00261526 -0.00442954 )  
( 0.221406 0.000744954 0.195826 )  
( 0.254684 0.000221758 0.0898184 )  
( 0.0988772 0.00107056 0.269628 )  
( 0.28136 -0.406991 0.146052 )  
( 0.238246 0.000306924 0.146257 )  
( 0.00529996 -4.05956e-05 -3.13725e-07 )  
( 0.0100499 6.68803e-05 -0.0845893 )  
( 0.0110861 0.000181689 -0.0500243 )  
( 0.0404061 0.129654 0.0212712 )  
( 0.138504 0.000427289 0.284611 )  
( 0.257514 -0.000284839 0.0763579 )  
( 0.0732895 0.306725 9.96625e-08 )  
( 0.0112492 -8.59518e-05 -0.0905171 )  
( 0.114179 0.000251069 0.252204 )  
( 0.274731 0.00266853 -0.051971 )  
( 0.0141492 -0.000136244 0.0734038 )  
( 0.0157022 -0.000272116 0.0544522 )  
( 0.0163795 -0.000410453 -0.00336093 )  
( 0.11193 -0.000407018 0.0840816 )  
( 0.0736561 0.00012071 0.321055 )  
( 0.278262 1.05511e-05 -0.140486 )  
( 0.192581 -0.00123395 0.251714 )  
( 0.277032 0.000420586 -0.11672 )  
( 0.0771683 0.000392964 0.31905 )  
( 0.00689947 -9.30824e-05 -0.0104137 )  
( 0.273745 -0.00125264 0.185606 )  
( 0.275147 -0.00173498 -0.138473 )  
( 0.00517838 -0.164602 5.79937e-08 )  
( 0.00486892 4.44782e-05 -2.31779e-07 )  
( 0.273328 -0.000908229 -0.0310712 )  
( 0.275317 -0.000598447 -0.120886 )  
( 0.2713 -0.00173766 -0.125618 )  
( 0.228371 -0.000857845 -0.10314 )  
( 0.0527284 -8.70229e-05 0.340788 )  
( 0.00531133 6.1185e-05 6.67677e-08 )  
( 0.225502 -1.65314e-05 0.159257 )  
( 0.269897 0.000294934 0.205668 )  
( 0.275544 -0.000407995 -0.0580388 )  
( 0.211374 -2.56229e-05 0.168387 )  
( 0.0174759 4.32427e-05 0.00473911 )  
( 0.0497931 -0.000415711 0.327262 )  
( 0.274838 -0.000145453 0.175096 )  
( 0.280164 0.00306801 -0.122605 )  
( 0.00529671 6.71128e-06 8.41957e-07 )  
( 0.271974 -0.000708063 0.0962466 )  
( 0.274858 -0.00322947 0.0625725 )  
( 0.161536 0.00186752 0.238825 )  
( 0.279248 0.00127871 0.0816493 )  
( 0.278377 -0.00157417 -0.107739 )  
( 0.144213 0.000147472 -0.0323434 )  
( 0.114154 0.0002904 0.256922 )  
( 0.274347 -0.0015052 -0.0500207 )  
( 0.00518684 -0.000132005 5.93942e-08 )  
( 0.274112 0.00144364 -0.12638 )  
( 0.00524379 0.000217086 4.59603e-08 )  
( 0.0662177 -0.0593893 -0.0162997 )  
( 0.010018 -9.69124e-05 -0.0843417 )  
( -0.0462108 -0.138708 0.0971484 )  
( 0.0051387 0.000195552 -2.44598e-08 )  
( 0.00507408 6.40541e-05 -5.64861e-07 )  
( 0.274401 -0.00110188 0.0455245 )  
( 0.265663 0.00137447 -0.104697 )  
( 0.276367 -0.00141086 0.0141208 )  
( -0.0434086 0.110107 -6.89114e-08 )  
( 0.00490987 6.13391e-05 -3.12356e-07 )  
( 0.0141271 -7.73533e-05 -0.026834 )  
( 0.236707 -0.000198335 0.143753 )  
( 0.017281 0.000162196 0.00742873 )  
( 0.271414 -9.63585e-05 -0.0656106 )  
( 0.014156 0.000260149 -0.0310687 )  
( 0.276367 -0.000771009 -0.00578207 )  
( 0.278275 -0.000665794 -0.124981 )  
( 0.270313 0.00107141 0.0833311 )  
( 0.00710731 2.68871e-05 -0.032405 )  
( 0.0157493 0.000389075 -0.0123034 )  
( 0.0102246 -2.6853e-05 -0.0604687 )  
( 0.0885984 0.000175803 0.332649 )  
( -0.0878252 -0.162241 0.0478015 )  
( 0.0324827 -0.000307382 0.359842 )  
( 0.00726299 -4.61578e-05 -0.0210159 )  
( 0.274466 0.000512152 -0.0143451 )  
( -0.0494871 -0.240393 4.32735e-05 )  
( -0.00353289 -0.00713988 -3.12459e-07 )  
( 0.00720528 -4.59724e-05 -0.0186474 )  
( 0.00774253 0.000113074 0.0190865 )  
( 0.275362 -0.000897219 -0.112849 )  
( 0.00516662 -2.66425e-05 -2.55839e-07 )  
( 0.00515569 -2.53191e-05 1.9542e-07 )  
( 0.277114 -0.00206485 -0.0337741 )  
( 0.00510387 4.83116e-06 0.000813459 )  
( 0.00708068 6.1483e-06 -0.00949274 )  
( 0.17833 0.000582689 0.0144569 )  
( 0.00532136 -4.30004e-05 5.37891e-07 )  
( 0.0903199 3.22555e-05 0.310921 )  
( 0.27816 -0.00233208 -0.154985 )  
( 0.271529 0.000422374 0.0188625 )  
( 0.282372 0.0025517 0.0642374 )  
( 0.00661564 0.000103922 -0.00333536 )  
( 0.0624885 0.0466394 0.0091771 )  
( 0.272736 -0.000105938 -0.0245738 )  
( 0.00519411 -2.72534e-05 -5.75516e-08 )  
( 0.0161491 -0.000232517 -0.00773398 )  
( 0.275618 0.000567172 0.108714 )  
( 0.186196 -0.00068413 0.213404 )  
( 0.279513 -0.00248321 0.110766 )  
( 0.0150271 -1.19982e-05 0.0459915 )  
( 0.0370522 0.00020553 0.35244 )  
( 0.00521673 4.11042e-05 7.98536e-08 )  
( 0.130549 -0.00116244 0.23676 )  
( 0.278179 0.00134747 -0.0958218 )  
( 0.174085 -0.387759 0.100819 )  
( 0.161654 -0.000128817 0.24653 )  
( 0.239216 0.000118346 0.246954 )  
( 0.0855258 0.000187939 -0.0339047 )  
( 0.100591 0.000276875 0.0654194 )  
( 0.00526868 -0.000132859 -3.51559e-08 )  
( 0.213836 -0.00137857 0.248125 )  
( 0.272172 8.67615e-05 0.0869487 )  
( 0.264079 -0.000765797 0.15686 )  
( 0.0702401 8.78441e-05 0.336194 )  
( 0.190213 0.0023886 -0.00603649 )  
( 0.00518052 -4.79012e-05 -1.48452e-07 )  
( 0.00991537 0.000218551 -0.0594736 )  
( 0.279406 0.00128177 0.0479613 )  
( 0.01705 0.000221115 0.0109574 )  
( 0.279221 0.00138569 0.000109646 )  
( 0.00497051 3.61434e-05 -5.71649e-07 )  
( 0.00515182 -4.35759e-05 -9.95946e-08 )  
( 0.0139544 0.1363 -2.86595e-07 )  
( 0.276067 0.00205405 0.113582 )  
( 0.275894 -0.00143731 -0.0608921 )  
( 0.178185 0.000174035 0.212663 )  
( 0.0733965 0.00015846 0.141339 )  
( 0.247671 0.00169641 0.22875 )  
( 0.272779 -0.00013059 0.0283197 )  
( 0.183556 -0.000464994 -0.0961205 )  
( 0.271953 -0.00097771 0.0242113 )  
( 0.00521131 -4.74261e-05 5.707e-07 )  
( 0.120604 0.000355054 0.22208 )  
( 0.00518544 -4.15062e-05 -2.67598e-05 )  
( -0.254809 0.15154 0.286204 )  
( 0.277477 0.000334467 -0.0720036 )  
( -0.020186 0.153929 5.738e-08 )  
( 0.00527954 9.46123e-05 2.88806e-07 )  
( 0.0154346 4.8574e-05 0.0489642 )  
( 0.00844966 0.0928326 0.0588476 )  
( 0.275109 -0.00237803 -0.0938797 )  
( 0.27149 0.000115059 -0.0973733 )  
( 0.279738 -0.000910808 -0.0453273 )  
( 0.0136632 3.57219e-05 0.0701557 )  
( 0.27467 5.17754e-05 0.0109181 )  
( 0.276572 0.000423641 0.119874 )  
( 0.0152787 -0.000225772 -0.0199976 )  
( 0.0682637 0.000132228 -0.106649 )  
( -0.171584 -0.235638 0.0144747 )  
( 0.00504398 0.000143394 -8.83029e-08 )  
( 0.27107 -0.00125924 -0.116129 )  
( 0.00984987 3.58685e-05 -0.0827096 )  
( 0.274207 -0.00359347 -0.0761598 )  
( 0.0342983 -0.000366303 0.121279 )  
( 0.00934115 -6.01007e-06 -0.069029 )  
( 0.277403 0.0018043 -0.0878151 )  
( 0.00525933 5.53261e-05 -2.91014e-07 )  
( 0.00764562 0.00124749 -0.000304823 )  
( 0.218009 0.000259536 0.197006 )  
( 0.0051452 0.000156491 4.39599e-07 )  
( 0.276787 0.00222189 -0.134604 )  
( 0.0185112 0.000131917 -0.141594 )  
( 0.164142 -5.23922e-05 0.280657 )  
( 0.0930966 0.000357851 0.127611 )  
( 0.0149661 -6.02356e-05 -0.0174296 )  
( 0.233784 0.000872677 0.155482 )  
( 0.234792 0.0024738 0.262142 )  
( 0.00536856 5.62343e-05 0.000442131 )  
( 0.147148 0.00012735 0.285585 )  
( 0.275033 -0.000275603 0.00720907 )  
( 0.271249 0.000901741 0.0470276 )  
( 0.275095 -0.00254972 0.0333462 )  
( 0.167133 -0.00189093 0.279241 )  
( 0.0154563 4.19831e-05 -0.100189 )  
( 0.0321508 -0.0266121 0.0026602 )  
( 0.420521 -0.0638369 0.165935 )  
( 0.00532576 -1.92187e-05 5.88907e-05 )  
( 0.215978 0.000892713 0.236701 )  
( 0.104147 0.000437866 0.275828 )  
( 0.0898831 -0.000679376 0.31453 )  
( 0.280947 -0.000201644 -0.0175917 )  
( 0.00553886 -6.3352e-05 9.44969e-08 )  
( 0.253538 -9.5388e-05 -0.14712 )  
( 0.269865 -0.00107751 -0.0153681 )  
( 0.0121016 -0.000197606 -0.0433123 )  
( 0.0136928 -5.13157e-05 0.0741659 )  
( 0.0290197 -0.00163737 -3.68598e-07 )  
( 0.273007 0.000357664 0.0663699 )  
( 0.179995 0.000181998 0.204621 )  
( 0.0859001 -0.0862147 0.287312 )  
( 0.0412065 -0.000265915 0.344476 )  
( 0.281051 -0.000841389 -0.146047 )  
( 0.422563 -0.0910455 0.0676443 )  
( 0.111572 0.00094905 0.285668 )  
( 0.0173909 5.28625e-05 0.000714317 )  
( 0.274508 0.000467122 -0.077137 )  
( 0.0558929 -0.000150089 0.334794 )  
( 0.10748 -0.000760046 0.0564033 )  
( 0.278735 0.00200168 0.118564 )  
( 0.00537074 6.86197e-05 -1.17292e-07 )  
( 0.276249 0.000361665 0.143286 )  
( 0.148285 0.000236655 0.2312 )  
( 0.0782075 0.000552726 0.269868 )  
( 0.283203 0.000566925 0.156119 )  
( 0.0156226 8.33872e-05 0.0529204 )  
( 0.0128484 -0.000116442 0.0852674 )  
( 0.281272 0.000789531 0.0182559 )  
( 0.182852 0.00011993 0.261884 )  
( 0.203225 0.000822871 0.199454 )  
( 0.00526509 1.20763e-05 -9.33349e-05 )  
( 0.225958 -0.000773728 0.263418 )  
( 0.011773 0.000297615 -0.0916837 )  
( 0.277183 0.00076094 0.0844148 )  
( -0.127331 0.00934861 0.202235 )  
( 0.273382 -0.000932247 0.213554 )  
( 0.275297 0.00153155 -0.0665179 )  
( 0.278446 0.00180479 -0.0588485 )  