/*--------------------------------*- C++ -*----------------------------------*\
| =========                 |                                                 |
| \\      /  F ield         | OpenFOAM: The Open Source CFD Toolbox           |
|  \\    /   O peration     | Version:  2506                                  |
|   \\  /    A nd           | Website:  www.openfoam.com                      |
|    \\/     M anipulation  |                                                 |
\*---------------------------------------------------------------------------*/
FoamFile
{
    version     2.0;
    format      ascii;
    arch        "LSB;label=32;scalar=64";
    class       volScalarField;
    location    "0.009";
    object      Ksl;
}
// * * * * * * * * * * * * * * * * * * * * * * * * * * * * * * * * * * * * * //

dimensions      [1 -3 -1 0 0 0 0];

internalField   nonuniform List<scalar> 
512
(
0
0.331595
1.44458
0
0
0
0
0
0
0
0
0
0
0
0
0
0
0
0
0
0
0
0
0
0
0.732421
0
0
0
0
0
0
0
0
0
0
0
0
0
0
0
0
0
0
0
3.58554
0
0
0
0
0
0
0
0
0
0
0
0
0
0
0.121329
0
0
0
0
0
2.3136
0
0.727846
3.54722
0
0
0
0
0
0
0
0
0
0
0
3.58691
0
0
0
0
0
0
0
0
0
0
0
0
0
0
0
0
0.122737
0
0
0
0
0
0
3.56438
0
0
1.21671
0
0
0
0
0
0
0.728726
0
0
0.483304
0
0
3.57393
0
0
0
3.56562
0
0
0
0
0
0
3.55753
0.243564
0
0
0
0
0
0
0
0
0
0
0
1.21863
0.122727
3.44699
0
1.21149
4.98919
0
0
0
0
0
0
0
0
0
0
0
1.22523
0
0
0.486608
3.57836
0
3.44756
0
0
0
0.738767
0
0
0.728965
0
0
1.22365
0
0
0
0
0
3.59433
0
0
0
0
0
0
0
0
0
0
0
0
0
0
0
0
0
0
0
0
0.612382
3.57295
0
0
0
0
0
0
0
0
0
0
0
0
0
0
0
0
0
0
0
0
3.19235
0
0
0
0
0
0
0
-2.95184e-16
0.830059
0
0
0
0
0
0
0
0
0
0
0
0
0.00729794
0
0
1.47158
0
0
0
0.568373
5.5482
1.29737
0.896961
0.159792
13.5262
4.52452
6.70396
3.73353
3.44966
6.68827
0.969235
4.75478
6.15951
2.66797
3.82229
3.6451
12.0992
0.373031
3.81644
4.63108
7.30726
9.85909
0.78492
2.41006
9.11643
4.40728
1.05747
7.54488
4.01607
2.60816
6.80745
3.78976
6.28669
3.16595
7.85593
3.79536
14.0887
14.8728
3.83702
6.31504
6.86341
0.912665
3.98688
7.4128
3.84577
3.46937
5.52205
10.0071
10.5091
5.91269
13.4002
6.6041
7.30188
8.1014
0.565734
16.4288
10.8881
0.555568
8.49254
10.7541
1.31404
7.42844
7.07898
6.61071
14.7102
7.59736
6.16631
6.72966
6.34626
10.801
4.89019
0.790055
12.6576
5.38459
7.83202
4.85005
4.14228
10.4931
9.30267
3.73262
3.48019
1.48303
3.94352
0.91598
12.3441
5.18464
6.5397
4.3906
5.65785
13.4993
9.55427
3.61113
0.063438
15.2013
4.3457
-3.71062e-16
0.769945
6.52843
7.41113
4.03951
14.6576
7.06812
9.25179
1.97827
3.71893
2.84705
14.0811
2.68133
0.112976
6.20562
11.2198
3.89568
4.79228
10.6788
15.3943
0.668162
16.7882
4.30826
0.179208
2.02464
10.1009
4.8047
8.89242
3.89697
8.6995
7.68719
3.25553
6.46596
9.55853
5.91807
2.54824
8.42204
3.09665
15.451
11.1894
9.26741
8.89695
12.7689
12.5604
5.56994
7.50776
8.38253
5.98153
0.0960361
8.54278
7.51617
8.07619
8.18173
13.0925
8.39636
7.38218
5.81138
5.14633
11.275
9.88029
0.656923
6.4485
0.694491
9.45837
11.6247
4.7048
6.0648
5.49886
7.40767
8.46084
3.67431
9.63674
1.57439
7.14309
2.86725
0.268335
9.8364
11.245
4.15982
15.7973
10.3709
0.420036
6.30172
10.2502
0.246398
0
1.19491
3.54163
3.6614
0.267713
0
3.75289
7.61456
3.97116
9.14821
11.1233
0.61497
10.3594
12.3416
10.7172
7.58029
3.62225
7.37508
6.32513
4.39697
10.163
8.6686
3.73962
1.31399
6.81682
10.9494
9.93896
11.276
11.1644
2.35394
3.81974
0.221581
8.02058
14.9178
4.63008
7.97009
17.6835
4.89496
1.20215
0
7.65643
1.79354
4.91757
0.0951438
0.260442
5.71165
2.99359
0.188266
6.25983
7.25159
1.16975
2.21948
9.94707
1.61045
0.31612
7.15673
1.19313
6.30467
0.182656
4.91619
2.24099
0.167504
6.92843
7.97574
3.05105
5.22599
7.45082
3.4756
5.00769
3.45524
11.7405
2.63429
4.78131
5.89135
6.81848
)
;

boundaryField
{
    wall
    {
        type            zeroGradient;
    }
    outlet
    {
        type            cyclic;
    }
    inlet
    {
        type            cyclic;
    }
    procBoundary3to2
    {
        type            processor;
        value           uniform 0;
    }
}


// ************************************************************************* //
