/*--------------------------------*- C++ -*----------------------------------*\
| =========                 |                                                 |
| \\      /  F ield         | OpenFOAM: The Open Source CFD Toolbox           |
|  \\    /   O peration     | Version:  2506                                  |
|   \\  /    A nd           | Website:  www.openfoam.com                      |
|    \\/     M anipulation  |                                                 |
\*---------------------------------------------------------------------------*/
FoamFile
{
    version     2.0;
    format      ascii;
    arch        "LSB;label=32;scalar=64";
    class       volVectorField;
    location    "0.009";
    object      U_0;
}
// * * * * * * * * * * * * * * * * * * * * * * * * * * * * * * * * * * * * * //

dimensions      [0 1 -1 0 0 0 0];

internalField   nonuniform List<vector> 
512
(
(9.97418 -0.0165406 0.0181115)
(9.96037 -0.00497213 0.000549079)
(9.95901 -0.0134207 -0.0204699)
(9.97228 -0.0249506 -0.0319601)
(9.98256 -0.00931793 -0.0397844)
(9.90578 0.000982662 -0.031541)
(9.90739 -0.000232493 -0.000579782)
(10.0283 -0.0197544 0.0113894)
(10.0374 -0.00416678 0.0448036)
(10.0094 0.00112294 0.0396272)
(9.97641 0.0187863 0.0339661)
(9.96003 0.0434824 0.00342786)
(9.98849 0.0463602 -0.0323547)
(10.0141 -0.00443173 -0.0431106)
(10.0091 -0.00374178 -0.0267604)
(10.0047 0.0158068 -0.0090168)
(9.98651 0.00430556 0.0105993)
(9.98912 -0.00188265 0.00756084)
(10.007 -0.00240882 -0.0177707)
(9.99621 0.00648418 -0.0280584)
(9.96707 0.028633 0.00546526)
(9.92289 0.0117127 0.0305756)
(9.94823 -0.00492091 0.0155914)
(9.97596 -0.00706984 -0.0282177)
(9.96217 0.00426806 -0.0276068)
(9.95307 0.0104939 -0.00357664)
(9.98024 0.00764842 -0.00320255)
(9.97914 0.00890741 -0.00433056)
(9.89318 -0.00579799 0.00161129)
(9.90582 -0.0131204 0.00548323)
(9.98539 -0.00340702 -0.0254527)
(9.99444 -0.00891129 -0.0133599)
(10.156 0.00320408 0.011142)
(10.1562 0.0366584 0.0103885)
(10.1559 0.0326552 0.00824548)
(10.1196 -0.0329965 -0.0217498)
(10.1018 -0.0120974 -0.0542792)
(10.0586 0.0085846 -0.0456211)
(10.0378 -0.0106376 -0.00998479)
(10.1446 -0.00982401 0.0102562)
(10.1768 -0.0175522 0.0154781)
(10.1685 -0.0185411 0.03127)
(10.1573 0.00651169 0.0628335)
(10.1453 0.0168496 0.0547569)
(10.144 0.0132688 0.00707149)
(10.12 0.00932995 -0.00834503)
(10.1429 0.0194683 -0.0210544)
(10.1439 -0.0023247 -0.0248875)
(10.096 -0.0315212 -0.00297161)
(10.0884 -0.017259 0.00336122)
(10.1254 -0.0299919 -0.00887549)
(10.1613 -0.0394698 -0.011792)
(10.1089 -0.0175445 -0.0199463)
(10.0901 -0.00683324 -0.0156124)
(10.1158 0.000708964 0.00302576)
(10.1261 -0.00477597 -0.0169492)
(10.0928 -0.0125814 -0.0300039)
(10.0962 -0.0154771 -0.000768951)
(10.1017 -0.0136789 0.00274856)
(10.088 0.00258139 -0.0179802)
(10.0807 0.0203537 0.0193164)
(10.106 0.0189285 0.0360555)
(10.1449 0.0140374 0.00635821)
(10.1423 0.00135053 -0.000706051)
(10.1067 -0.00191408 0.0237812)
(10.1236 0.0334334 -0.0812176)
(10.1252 0.0526881 -0.0912109)
(10.1137 0.0237418 -0.0181471)
(10.1005 -0.0133436 0.00628125)
(10.0494 0.00463704 -0.0131686)
(10.0675 0.0341127 -0.031093)
(10.136 0.0067922 0.0420451)
(10.1747 -0.0147576 0.0876819)
(10.1529 -0.00157814 0.00282179)
(10.1357 0.00961623 -0.0175943)
(10.1377 0.00897693 -0.0113489)
(10.1242 0.000631252 -0.0154308)
(10.1418 -0.00966656 -0.0128865)
(10.1719 0.0127943 -0.0102518)
(10.1464 0.0107963 -0.00693392)
(10.1367 -0.00924817 0.0111558)
(10.1167 -0.0137282 -0.00832779)
(10.1259 -0.0311723 -0.0138789)
(10.1306 -0.0388161 0.0170368)
(10.081 -0.0221743 0.0374982)
(10.0497 -5.9909e-05 0.0349544)
(10.0807 0.0323184 0.0243728)
(10.095 0.0329148 0.000412671)
(10.1002 0.0162889 0.00248308)
(10.0818 -0.0245335 -0.00606748)
(10.0863 -0.0177437 -0.0340763)
(10.064 -0.00638716 -0.0429585)
(10.0791 0.00102491 -0.00297867)
(10.1286 -0.0119183 0.00691997)
(10.1387 -0.0374646 0.0140508)
(10.1124 -0.0215712 0.0290162)
(10.1776 -0.0214402 -0.00886933)
(10.1069 -0.0340282 -0.00329791)
(10.0914 -0.0115218 0.000174203)
(10.0996 -0.00899929 0.0121092)
(10.0975 -0.0348451 0.0304701)
(10.0552 -0.0253437 -0.0346256)
(10.0331 -0.00836435 -0.0904537)
(10.0959 0.00995553 -0.0244902)
(10.1611 0.0284254 0.0424693)
(10.1225 0.000897315 0.0529864)
(10.1409 0.0013333 0.056464)
(10.19 -0.00105205 0.0468863)
(10.19 0.0423097 0.0240211)
(10.1688 0.0318634 0.00674245)
(10.1072 -0.0131713 -0.0114565)
(10.1254 -0.0237372 -0.00517203)
(10.16 0.00467167 -0.00996901)
(10.1602 0.00954538 -0.0193786)
(10.1692 0.0275173 -0.0401259)
(10.178 0.0198986 -0.0323635)
(10.1177 -0.0250424 0.00277903)
(10.0986 -0.0293762 0.017765)
(10.1224 -0.00795325 9.29622e-05)
(10.1212 -0.00723778 -0.00596798)
(10.1099 -0.00668687 -0.00952379)
(10.0465 0.0285527 -0.0100714)
(10.0771 0.016203 -0.0017646)
(10.1174 -0.0180752 -0.0161217)
(10.086 -0.0294043 -0.00891675)
(10.0368 -0.000718794 0.0164904)
(10.1073 0.03243 0.0247141)
(10.1695 -2.57734e-05 -0.00949582)
(10.1024 0.0106744 -0.00676783)
(10.1057 0.0304519 -0.0138192)
(10.111 0.0338951 -0.0197582)
(10.1108 0.0227209 -0.0147385)
(10.0745 0.00560809 0.0138166)
(10.0575 -0.0324119 -0.0307675)
(10.0693 -0.0506575 -0.0513844)
(10.1075 -0.0209607 -0.0139885)
(10.1047 0.0631652 0.0102537)
(10.0994 0.0690449 0.00990084)
(10.1744 -0.0308306 0.0242478)
(10.171 -0.0463779 0.0147916)
(10.196 0.0328901 0.00236626)
(10.1527 0.0131017 -0.0215134)
(10.0917 -0.0368244 -0.0231176)
(10.1022 -0.0457604 -0.00932206)
(10.1749 -0.0209733 -0.015175)
(10.1955 -0.00228066 -0.0189551)
(10.1345 0.000884279 -0.00922685)
(10.1047 -0.00973586 -0.00903932)
(10.107 -0.0143677 -0.00170561)
(10.0913 0.00416339 0.0143816)
(10.0628 0.0277709 -0.00856498)
(10.0697 0.0209247 -0.0219685)
(10.0774 0.00391821 -0.00724911)
(10.0897 -0.00832475 0.0115398)
(10.0975 -0.0265267 -0.0109902)
(10.1138 -0.0470161 -0.00534999)
(10.1225 -0.0444979 0.0239091)
(10.1453 -0.0151152 0.0539111)
(10.1089 0.0218625 0.0307959)
(10.0946 0.0123709 0.0119806)
(10.177 -0.00409389 0.0464473)
(10.1545 0.0186712 -0.00854467)
(10.1054 0.0364567 -0.0395479)
(10.0957 0.0204351 -0.0124615)
(10.0792 -0.0209113 0.0552197)
(10.0675 0.00233289 -0.0021345)
(10.0343 0.0149688 -0.081527)
(10.1053 0.00258709 -0.0322292)
(10.1381 0.00868823 0.0243001)
(10.1391 0.0163146 0.0324821)
(10.1267 0.0129589 0.0533605)
(10.1357 0.000542654 0.0282979)
(10.1344 0.0301818 -0.0536804)
(10.1361 0.0368622 -0.0638292)
(10.1193 -0.0440144 -0.00265545)
(10.1136 -0.0739484 0.0172347)
(10.1437 -0.036583 -0.0136359)
(10.1659 0.0106807 -0.021923)
(10.1155 0.00531123 0.0207898)
(10.098 -0.00517056 0.0264827)
(10.1006 0.0357345 -0.0148806)
(10.1202 0.0338254 -0.026964)
(10.1708 -0.00421153 0.0133161)
(10.1429 -0.0112481 0.023392)
(10.0655 -0.0278449 0.0152745)
(10.1313 -0.0355379 -0.00294921)
(10.1417 -0.029831 -0.00986825)
(10.0508 0.0164666 -0.0155912)
(10.0118 0.0546136 -0.0307637)
(10.0388 0.0250969 -0.0255021)
(10.1369 -0.032851 0.00150703)
(10.1448 -0.0287683 0.0158441)
(10.1175 -0.00604883 0.0326698)
(10.1335 0.0072107 -0.0478166)
(10.0976 -0.00773299 -0.0699372)
(10.0883 -0.0228394 -0.0376711)
(10.1136 -0.00381756 0.0350937)
(10.1252 0.0154035 0.0267213)
(10.1353 0.02709 0.000698408)
(10.1173 0.00159464 -0.0170882)
(10.1264 -0.0325435 -0.0280665)
(10.1364 -0.0361356 -0.0320864)
(10.1204 0.026731 0.0181561)
(10.1418 0.0302614 0.010824)
(10.1805 0.014203 -0.00731408)
(10.1765 0.00801706 -0.0385314)
(10.1315 0.0166403 -0.0391612)
(10.0995 -0.0232973 0.0297724)
(10.086 -0.0443222 0.030088)
(10.0908 -0.0496653 0.0117147)
(10.0858 0.0130117 0.0192825)
(10.0806 0.0167335 0.0258447)
(10.0854 0.00710569 0.0153109)
(10.1055 0.0118642 -0.0120089)
(10.1241 0.00205695 -0.0214547)
(10.0972 -0.0420089 -0.00804008)
(10.099 -0.0603784 -0.00298077)
(10.1208 0.000597632 -0.0232213)
(10.1065 0.0338988 -0.0405906)
(10.1052 0.0304821 -0.0275648)
(10.1455 0.0654864 0.0422528)
(10.0986 0.0538628 0.0339605)
(10.0624 0.0219926 0.0318434)
(10.1053 -0.00717377 0.0479306)
(9.98335 0.00473641 0.0342277)
(9.96682 0.0279364 -0.0137379)
(9.94144 0.0214652 -0.0391385)
(9.90918 0.0110482 0.0064975)
(9.93538 0.00867137 0.0304306)
(9.97581 -0.018226 0.0328826)
(9.97323 -0.022295 0.0158481)
(9.98978 0.0146269 0.00815957)
(9.99466 0.0153018 0.0105656)
(9.97153 0.0311087 0.00776856)
(9.95981 0.0381166 0.0075077)
(10.022 0.0336886 -0.0126864)
(10.0583 0.0193308 -0.0318317)
(9.99537 -0.00186268 -0.0176013)
(9.98607 -0.00593115 -0.00364358)
(10.0091 0.0202957 0.0505365)
(10.0254 0.0203044 0.0317)
(10.0177 0.000703183 -0.0046254)
(9.98427 -0.00659247 0.0141235)
(9.91342 -0.0189569 0.0315207)
(9.92201 -0.0334388 0.0130142)
(9.96861 -0.0260616 -0.0195336)
(9.96093 0.0190909 -0.0552784)
(9.95693 0.0245524 -0.0517969)
(9.98956 0.0186929 -0.0268534)
(9.95917 -0.000219377 -0.021923)
(9.9504 -0.0103796 -0.026195)
(9.97663 0.00172597 -0.020222)
(9.95057 -0.00259638 0.0241903)
(9.94146 0.000128142 0.0127333)
(9.94613 -0.00768969 -0.00776478)
(9.96776 -0.0153457 0.019429)
(9.61777 -0.0455334 0.0387053)
(9.59653 -0.0184966 0.0560332)
(9.64868 0.0130389 0.0319382)
(9.64743 -0.0250921 -0.0186211)
(9.64864 -0.0155883 -0.0325512)
(9.47608 0.00656842 -0.00689779)
(9.51619 -0.00376752 -0.0202868)
(9.55566 -0.0181391 -0.0243044)
(9.57016 -0.0314357 0.028549)
(9.60085 -0.0101069 0.0446942)
(9.60365 0.0534554 0.0559877)
(9.60339 0.0511871 0.0546167)
(9.60971 0.0410119 0.0483702)
(9.61575 0.0377067 0.0168713)
(9.62787 0.0258445 -0.0293102)
(9.6074 0.0125757 -0.0299606)
(9.6266 -0.0182579 -0.0141956)
(9.48844 -0.0168022 0.000431882)
(9.51292 -0.0095283 0.00119986)
(9.54396 -0.0183661 -0.0414243)
(9.53454 -0.0203307 -0.0268005)
(9.48943 0.00252823 0.0227366)
(9.46783 0.00494695 0.0180111)
(9.52579 0.00834491 0.00123256)
(9.55618 0.0333749 -0.0147505)
(9.48897 0.0232372 -0.000461362)
(9.49303 -0.0218429 0.0248991)
(9.50378 -0.0565352 0.0363744)
(9.4961 -0.0484307 0.0425046)
(9.4798 0.000179269 0.0124084)
(9.53647 0.0477701 -0.0258532)
(9.54469 0.0183607 -0.0544519)
(9.67811 -0.0362411 -0.0142064)
(9.59004 -0.0357159 0.0307144)
(9.64263 -0.0236867 0.0233832)
(9.66549 -0.00717084 0.00378612)
(9.67589 0.0380071 -0.0463658)
(9.505 0.0152941 -0.0068871)
(9.38912 -0.0190877 0.0216691)
(9.48717 -0.0166807 0.0138363)
(9.61547 0.0118743 -0.0171469)
(9.60175 0.0127948 0.0102323)
(9.65936 -0.018425 0.0605273)
(9.66285 -0.0202061 0.0566432)
(9.66991 -0.00875572 0.0300792)
(9.69153 0.0168327 0.0441261)
(9.70529 0.034256 0.0374049)
(9.70902 0.0119777 -0.0167945)
(9.67247 -0.0164299 -0.0541556)
(9.60847 -0.017999 -0.0187237)
(9.60719 0.00107372 -0.0226778)
(9.53741 0.0242662 -0.057431)
(9.5423 0.0361269 -0.0647799)
(9.48133 -0.0146278 0.0231725)
(9.47529 -0.0282996 0.0475388)
(9.52283 -0.00716273 0.0122979)
(9.44568 0.0207766 -0.00643488)
(9.44071 0.00534112 -0.00398587)
(9.55672 -0.0392558 -0.0113839)
(9.57146 -0.0288419 -0.0192318)
(9.49617 0.0344657 0.0154014)
(9.53217 0.0438401 0.0398849)
(9.63116 0.0292902 -0.00299801)
(9.68129 0.0163348 -0.0358158)
(9.65772 0.00528012 -0.0130368)
(9.53667 0.0203115 -0.0353935)
(9.46601 0.0366762 -0.0313864)
(9.48911 0.0154561 0.0128126)
(9.47425 -0.00211315 0.0114686)
(9.46698 -0.00452147 -0.0152106)
(9.46707 0.00533272 -0.0469622)
(9.49756 0.023 -0.0237085)
(9.69719 0.0088418 0.0264547)
(9.60714 0.000933078 0.0243677)
(9.59447 -0.0221065 -0.0177934)
(9.57465 -0.0296972 0.000773573)
(9.6005 -0.0231447 0.0171745)
(9.68757 -0.00307905 -0.00171388)
(9.66422 0.0139334 -0.00484546)
(9.60237 0.0213338 0.00250912)
(9.61829 0.01361 0.00566246)
(9.65891 0.00359824 -0.00138813)
(9.72049 0.00422768 -0.00731274)
(9.73143 0.00202187 0.0103935)
(9.73376 -0.00601094 0.00809963)
(9.66971 0.00113743 0.0061139)
(9.67711 0.0314911 0.0012537)
(9.65772 0.019066 -0.0109637)
(9.66873 0.00673831 -0.00600908)
(9.6707 0.000762603 -0.0118245)
(9.56248 -0.00361211 -0.0172077)
(9.52637 -0.00312423 0.0153879)
(9.55193 -0.00075942 0.0414297)
(9.57371 -0.0212114 0.0384647)
(9.49405 -0.0407084 0.0118133)
(9.59924 -0.0356234 1.33038e-07)
(9.66651 -0.0154646 0.00883876)
(9.67269 0.00217832 0.026531)
(9.70892 0.0108765 0.014455)
(9.68531 -0.00155421 0.00126119)
(9.69072 -0.0706145 0.0186167)
(9.57226 -0.0261799 -0.000546842)
(9.58652 0.0272265 -0.0107687)
(9.57559 0.0362777 -0.00861507)
(9.64698 -0.0108799 -0.00922021)
(9.65774 -0.0344612 0.0247155)
(9.6836 -0.0307065 0.0262321)
(9.58422 -0.00883414 0.0145397)
(9.60137 0.0160519 0.0106639)
(9.69057 0.0275324 0.00383005)
(9.68431 0.0104224 0.00762374)
(9.60861 0.0066322 0.0134762)
(9.62262 0.0100787 0.00352178)
(9.60831 0.0121863 -0.0240451)
(9.58803 -0.0185429 -0.0441971)
(9.48968 -0.049509 -0.0387601)
(9.53807 -0.0434569 -0.0369949)
(9.47337 -0.001864 -0.0125202)
(9.51274 0.0189099 0.00292226)
(9.57762 0.00885026 3.39145e-05)
(9.59433 0.0174673 -0.00512582)
(9.56139 0.0261266 0.0210532)
(9.5874 0.00321417 0.0141962)
(9.56157 -0.0128348 -0.0113914)
(9.58772 0.00212342 -0.0275806)
(9.55317 0.0360966 0.0383073)
(9.53367 0.0278054 0.0414598)
(9.57359 -0.00102356 0.0294226)
(9.62366 -0.0142504 -0.0182315)
(9.61719 -0.0316707 -0.0116733)
(9.59805 -0.0158539 -0.017735)
(9.5647 0.00765501 -0.0142335)
(9.5465 -0.0384649 -0.00245822)
(9.54239 -0.0708785 0.00173285)
(9.48593 -0.0270424 0.00664604)
(9.5241 0.056151 0.00459197)
(9.51033 0.0720413 0.0216355)
(9.50225 0.024413 0.0258844)
(9.45502 -0.0163178 -0.00553102)
(9.43825 0.00543938 -0.00502347)
(9.46979 0.00790657 -0.00148555)
(9.48971 -0.0163397 -0.0160411)
(9.533 -0.0338606 0.00887847)
(9.53552 -0.0478324 0.0105035)
(9.60219 -0.0480298 0.0033322)
(9.58585 -0.0025324 -0.00527468)
(9.58811 0.0260339 -0.00885881)
(9.55488 0.0124128 -0.0112716)
(9.53814 -0.028494 -0.00888813)
(9.46316 -0.015333 -0.00116535)
(9.44405 0.0228322 -0.00985329)
(9.46019 0.0427874 -0.0371923)
(9.49006 0.0191063 -0.0337485)
(9.50592 0.0474931 -0.00174026)
(9.47427 0.0690146 -0.00437105)
(9.46053 0.044467 0.0106607)
(9.56641 -0.00110942 0.0708687)
(9.53562 -0.0119764 0.0497254)
(9.59364 -0.0160833 0.00625828)
(9.5674 -0.0137002 -0.0160926)
(9.61759 0.0397897 -0.0188212)
(9.60583 0.037748 -0.0211248)
(9.58345 0.0260958 -0.0321765)
(9.56619 -0.0078402 0.0176931)
(9.51738 -0.015482 0.0106519)
(9.50125 0.00877731 -0.0293204)
(9.5901 0.0289514 0.00267573)
(9.64889 0.0238845 0.0439736)
(9.63938 0.0164888 -0.000730669)
(9.58671 0.0104925 -0.00313823)
(9.59597 0.0172035 0.0457164)
(9.68207 0.00899864 0.0274102)
(9.66934 0.0061704 -0.00862004)
(9.60881 0.00315238 -0.0157298)
(9.58199 -0.0623166 0.0210385)
(9.48839 -0.0726226 0.00854037)
(9.47496 -0.038355 -0.0179939)
(9.59325 -0.0140024 0.00217201)
(9.60261 0.0039495 0.0121904)
(9.53282 0.03924 -0.0163397)
(9.57718 0.0519688 -0.0412596)
(9.67731 0.0178615 -0.0179174)
(9.81036 0.00896131 0.00338776)
(9.78476 0.00758603 0.0238526)
(9.74708 -0.0432857 0.0191034)
(9.76191 -0.0526189 0.0319495)
(9.79952 -0.0167307 0.0491331)
(9.79708 0.0294147 0.0163422)
(9.69125 0.00583898 0.0219381)
(9.69211 -0.0262832 0.0180729)
(9.6854 -0.0229076 -0.0106782)
(9.65182 -0.00371407 -0.0140727)
(9.77272 0.0258666 0.0296549)
(9.65675 0.0484687 0.0121014)
(9.5674 0.0623654 -0.015485)
(9.5131 -0.0566207 -0.00349286)
(9.51549 -0.0749263 0.0111764)
(9.5561 0.0332418 0.0030404)
(9.53663 0.0399602 0.0215866)
(9.53423 -0.0064518 0.0361163)
(9.64047 -0.0155928 -0.0209452)
(9.61514 -0.0154586 -0.0418807)
(9.58582 -0.0199011 0.021866)
(9.60095 -0.00837642 0.0598484)
(9.65386 -0.00677431 0.0310587)
(9.63817 -0.0366803 -0.00651562)
(9.61105 -0.0295592 0.00762925)
(9.58648 -0.00256942 0.00383866)
(9.57781 -0.0268281 0.00114232)
(9.50015 -0.059557 -0.0114791)
(9.52424 -0.0354613 -0.0203383)
(9.55733 0.0182574 -0.0167997)
(9.63366 0.034971 -0.0157965)
(9.64295 0.0149373 -0.00477679)
(9.60785 -0.0255898 -0.0105582)
(9.56353 -0.0706042 0.0129435)
(9.53826 -0.0509208 0.0162353)
(9.4371 -0.0136173 -0.00645363)
(9.45361 0.0134353 -0.0136285)
(9.54685 0.0230896 0.0220605)
(9.57741 0.00425692 0.0338623)
(9.54952 0.00105774 -0.00119308)
(9.67837 0.00406496 -0.0455536)
(9.70366 0.0216055 -0.0153825)
(9.60131 0.00202318 0.0306619)
(9.60611 0.0247937 0.00608078)
(9.57174 0.0246495 -0.00146001)
(9.55972 0.0061752 -0.00394306)
(9.59084 -0.000153501 -0.0125822)
(9.59589 0.0224682 0.00741116)
(9.56302 0.0213312 0.00146228)
(9.57751 0.0107854 -0.0206146)
(9.62605 0.00949971 -0.00718634)
(9.57808 0.00686977 0.0110572)
(9.62578 0.00444871 0.0264739)
(9.66184 -0.00154132 0.0149144)
(9.60055 -0.0102665 -0.00179067)
(9.61245 -0.0231221 -0.00478537)
(9.64662 0.00299843 0.029881)
(9.64755 0.0477754 0.0309292)
(9.639 0.0448829 0.00727698)
(9.65025 -0.0355049 -0.011642)
(9.63766 -0.0321673 -0.00471399)
(9.55851 -0.0319923 -0.00605977)
(9.53139 -0.0226063 0.0109411)
(9.58906 -0.00435152 0.0106799)
(9.60429 0.000553961 -0.00991826)
(9.54964 -0.015157 -0.019477)
(9.46329 -0.000644886 0.00278427)
(9.44808 0.0140926 0.0031814)
(9.51808 0.00830309 0.0167297)
(9.47087 -0.029717 0.00339462)
(9.45923 -0.0473492 -0.0213096)
(9.40816 0.0304518 0.00350727)
(9.36096 0.0407885 0.00773782)
(9.50603 -0.00441062 0.00976705)
)
;

boundaryField
{
    wall
    {
        type            fixedValue;
        value           uniform (0 0 0);
    }
    outlet
    {
        type            cyclic;
    }
    inlet
    {
        type            cyclic;
    }
    procBoundary3to2
    {
        type            processor;
        value           nonuniform List<vector> 
256
(
(10.0199 0.00899279 0.0185083)
(9.91081 -0.0114314 0.00247047)
(9.88948 -0.023417 0.00453319)
(9.93561 -0.0287009 0.0178114)
(9.98602 -0.0143434 0.00287837)
(9.90407 -0.0133787 -0.104267)
(9.86589 -0.0128239 -0.130558)
(9.87656 -0.0125052 0.0417016)
(9.95596 -0.00725944 0.0584004)
(9.96379 -0.00764373 0.049619)
(9.93598 0.00713665 0.0502185)
(9.93898 0.0217143 0.039247)
(9.96245 0.00276119 -0.0259568)
(9.93783 -0.00450554 -0.0400552)
(9.9157 0.0177217 -0.0181752)
(9.9339 0.0263681 -0.00382913)
(9.95572 -0.0164758 -0.0133535)
(9.96291 -0.0250649 -0.0248927)
(9.9707 0.010406 -0.01306)
(9.93213 0.0156798 0.00123772)
(9.90402 0.0263686 0.00341379)
(9.90289 0.0148714 0.023703)
(9.94092 0.00541992 0.0315509)
(9.9725 0.000820379 0.00545118)
(9.9562 0.0264278 -0.0177328)
(9.95896 0.0250793 -0.0186392)
(9.9919 -0.0323798 0.00620838)
(9.99028 -0.0246615 0.0109053)
(9.85108 -0.0400511 0.0104433)
(9.85715 -0.0548749 0.0120536)
(9.97103 0.00392117 0.0542614)
(10.0071 0.0101276 0.0435873)
(10.108 -0.0213384 -0.00273098)
(10.1484 0.032664 -0.0108958)
(10.1553 0.071505 0.000381433)
(10.1171 0.00765955 -0.00656175)
(10.1267 -0.0167974 -0.0258747)
(10.1159 0.00133206 -0.0779021)
(10.0445 -0.00494714 -0.0483155)
(10.0593 -0.0437727 0.0346093)
(10.152 -0.0151739 0.0572934)
(10.146 -0.000599744 0.0412122)
(10.1096 -0.00967717 0.0384044)
(10.0989 -0.0105115 0.0280661)
(10.1104 -0.0161738 -0.00675548)
(10.1102 -0.0304219 -0.0196573)
(10.1067 0.000523791 -0.0199045)
(10.0791 0.0159422 -0.00212543)
(10.0488 -0.00766134 0.00967505)
(10.057 -0.00704019 -0.0134651)
(10.102 0.0116205 0.00271605)
(10.111 0.0128369 0.0153142)
(10.0999 0.0291702 0.0170075)
(10.064 0.0094901 0.0318371)
(10.0878 0.00791526 0.0133306)
(10.1144 -0.00911177 -0.0254817)
(10.0794 0.00437524 -0.0205983)
(10.0729 0.0256182 -0.00356403)
(10.1043 -0.00121459 -0.00642711)
(10.0882 -0.0220179 0.00221069)
(10.0662 -0.0168315 0.0263897)
(10.1007 -0.000886684 0.0196699)
(10.117 0.00205202 0.0210655)
(10.095 -0.0155377 0.0245384)
(10.1344 -0.0257546 0.0429768)
(10.1384 0.0187454 -0.00969486)
(10.1472 0.0581743 -0.00820532)
(10.1437 0.0295737 -0.0130877)
(10.1392 -0.00929552 -0.00938261)
(10.0966 0.0264157 -0.046985)
(10.0687 0.0421218 -0.039346)
(10.0583 -0.0102783 0.0426225)
(10.1342 -0.0488412 0.031082)
(10.1255 -0.0286323 0.0108363)
(10.0869 0.0277932 0.0126369)
(10.0959 0.0168834 0.0103837)
(10.1176 0.00129192 -0.0293606)
(10.1271 -0.0164634 -0.0492508)
(10.1137 -0.0268541 -0.0116727)
(10.068 0.00746177 0.0214194)
(10.0725 0.0197702 0.00197531)
(10.1129 0.0148313 -0.0484843)
(10.1068 -0.0160931 -0.064899)
(10.0815 -0.0128194 -0.0551424)
(10.0371 -0.0238688 0.0116709)
(10.0368 -0.0236453 0.0219393)
(10.1376 0.0283067 0.0284417)
(10.1552 0.0294289 0.0201335)
(10.1032 -0.00805953 0.00988266)
(10.0968 -0.000768216 -0.00592915)
(10.0862 0.00342011 -0.0212899)
(10.0554 -0.00378539 -0.0109221)
(10.0653 0.0066773 0.00915722)
(10.092 -0.00989779 0.0132114)
(10.1045 -0.018747 0.0242465)
(10.1038 -0.0308719 0.0549758)
(10.1567 -0.00758915 0.00220796)
(10.0997 -0.0208568 -0.015778)
(10.0707 -0.00642501 -0.0097158)
(10.1269 0.00398684 -0.00612847)
(10.1351 -0.0224296 -0.0153349)
(10.1101 -0.0228287 -0.0589698)
(10.0628 0.0104804 -0.048016)
(10.0806 0.0180346 0.0457383)
(10.0737 -0.00511934 0.0532595)
(10.1208 -0.0276884 0.0455565)
(10.1638 0.0106397 0.0228519)
(10.155 0.00411977 0.0132616)
(10.0955 0.0230972 -0.0117321)
(10.0841 0.0361609 -0.0152143)
(10.1124 0.0368902 -0.0150119)
(10.1117 0.00410537 0.006032)
(10.1098 -0.00670401 0.014938)
(10.1221 -0.00594381 -3.35101e-05)
(10.1219 -0.0126282 -0.0129796)
(10.1294 8.75087e-05 0.00451082)
(10.0915 -0.00860125 0.0281572)
(10.0667 -0.010048 0.0188583)
(10.1175 0.013871 0.00759012)
(10.1385 0.0147999 -0.000899961)
(10.0835 -0.0115794 -0.0128172)
(10.0649 -0.0176711 -0.0362839)
(10.0846 -0.00304177 -0.0417834)
(10.0814 -0.0120863 -0.0105195)
(10.0782 -0.0127023 0.0162048)
(10.0785 0.00540377 0.00718891)
(10.0922 0.017609 -0.00460114)
(10.1262 0.013054 0.0125192)
(10.1238 -0.00382339 0.034737)
(10.1247 0.00488861 0.0284598)
(10.0797 0.0653391 0.0116357)
(10.0715 0.0594635 0.00788094)
(10.0868 -0.0525594 0.0131648)
(10.0689 -0.0482667 -0.0248136)
(10.0618 -0.0120948 -0.0717883)
(10.0779 0.0551899 -0.00700806)
(10.0991 0.0471432 0.0453301)
(10.1041 -0.00398852 0.00907129)
(10.1455 -0.0330222 -0.0214999)
(10.1645 0.0218442 0.0386547)
(10.1575 0.0418667 0.0533116)
(10.1455 0.0109907 0.00310978)
(10.0837 -0.0335674 -0.0242071)
(10.067 -0.0511013 -0.0436729)
(10.108 -0.0444984 -0.045984)
(10.1416 -0.016491 -0.0166845)
(10.1311 -0.0126396 -0.020753)
(10.1021 -0.0129792 -0.0235745)
(10.0896 0.00204907 -0.0126936)
(10.0803 0.0177887 -0.00231278)
(10.11 0.0196491 -0.00154941)
(10.1143 0.0203428 -0.00911332)
(10.0734 -0.0163924 0.00110358)
(10.0701 -0.0182614 -0.000705028)
(10.1005 0.0200139 0.00737431)
(10.0904 0.00268063 -0.00233104)
(10.0902 -0.0023202 -0.013759)
(10.1036 0.00593909 0.0270632)
(10.0772 0.0120594 0.0400989)
(10.0839 -0.000707991 0.0387526)
(10.1693 -0.0276458 0.0351384)
(10.2043 0.0301439 -0.0141364)
(10.1096 0.0707735 -0.0448581)
(10.0579 0.0401848 -0.014275)
(10.0644 -0.0480599 0.0364713)
(10.0711 -0.0520859 0.03381)
(10.1452 0.00652387 -0.0197214)
(10.156 0.00832478 -0.0197208)
(10.1135 0.00498571 0.0151872)
(10.0704 0.00364252 0.0147136)
(10.0896 -0.0266261 -0.0133406)
(10.1518 -0.00629915 0.0116326)
(10.1467 0.0546465 0.00685412)
(10.1331 0.0794233 -0.0104537)
(10.1063 -0.0256696 0.00609131)
(10.105 -0.0462386 0.00768438)
(10.1339 -0.0261949 0.00475582)
(10.1212 -0.0298787 0.00874857)
(10.112 -0.0230503 0.0111932)
(10.0879 0.00963874 0.0231503)
(10.0619 0.0291026 0.022053)
(10.0677 0.0267509 0.0134861)
(10.1298 -0.00146696 0.00241338)
(10.1029 -0.00446206 0.0160994)
(10.0886 0.00335738 0.0206742)
(10.1032 0.00787457 -0.0266569)
(10.0953 -0.00997399 -0.0624567)
(10.0878 -0.022795 -0.0483804)
(10.0969 -0.0145626 -0.0174258)
(10.1232 0.00158319 0.025966)
(10.0533 -0.0287982 0.0574101)
(10.0362 -0.0587913 0.052945)
(10.1348 0.0388464 0.0301643)
(10.1383 0.0354512 -0.0366959)
(10.0977 0.0349723 -0.0396787)
(10.0348 -0.024222 0.0141407)
(10.0509 -0.0393639 0.0246888)
(10.1376 -0.0202886 0.0525156)
(10.1663 -0.0151246 0.0429918)
(10.1216 -0.0249582 0.00158587)
(10.1142 -0.0226544 0.00596476)
(10.1538 0.000828987 0.014867)
(10.1389 -0.0058815 -0.00896875)
(10.1326 -0.021924 -0.0412386)
(10.1604 0.015798 -0.0204269)
(10.1787 0.0675603 0.0196634)
(10.0897 0.0277985 -0.0137729)
(10.0039 -0.0114464 -0.0223034)
(9.99923 -0.0156761 -0.0254691)
(10.0386 -0.0342872 -0.0586261)
(10.039 -0.0336803 -0.0500827)
(10.0938 -0.0295026 0.0233239)
(10.1394 -0.0148017 0.0408162)
(10.1518 0.0298578 0.00976636)
(10.1525 0.0261335 0.00854942)
(10.0885 -0.00790361 -0.000183014)
(10.0749 0.000847409 -0.0231125)
(10.111 -0.00199449 -0.00793716)
(10.0706 -0.0155602 0.022113)
(10.0549 -0.0211473 0.0212092)
(10.0941 -0.0352698 0.00540807)
(10.0962 -0.0322241 -0.020875)
(10.0619 0.00423988 0.0116592)
(10.0525 0.0326699 0.0781537)
(10.0225 -0.0103261 -0.00716218)
(10.0197 0.00827325 -0.0311695)
(9.96764 0.00402123 -0.039405)
(9.89959 0.00605349 0.00127847)
(9.91715 0.0309236 0.0168054)
(9.94025 0.0188398 0.0266456)
(9.93059 -0.00507205 0.00982551)
(9.92863 -0.0237087 -0.0237651)
(9.94841 -0.0417198 -0.00310034)
(9.99848 -0.00934897 0.0464417)
(9.98403 0.0154118 0.0133264)
(9.97969 0.0325246 -0.0300049)
(9.99094 0.00517743 -0.00231617)
(9.96087 -0.0122813 -0.0123544)
(9.95995 0.00140403 -0.0238423)
(9.96954 0.0320203 0.0284845)
(9.97929 0.0313251 0.0388237)
(9.97338 0.00987026 -0.0422635)
(9.95173 0.00637628 -0.0340308)
(9.92958 -0.0338799 0.0306568)
(9.9556 -0.0358023 0.0183668)
(9.99778 0.0136357 -0.00386518)
(9.96459 0.0228664 -0.0034942)
(9.94534 0.0156872 0.00702255)
(9.94145 0.00651965 -0.0429716)
(9.93057 0.000990596 -0.0590756)
(9.88589 -0.0019262 -0.00383618)
(9.89013 -0.00634111 0.00533359)
(9.9527 -0.0220869 0.00474783)
(9.97281 -0.0192032 -0.0146148)
(9.92271 -0.0032465 0.00888248)
(9.9129 -0.00771729 0.0275459)
)
;
    }
}


// ************************************************************************* //
