/*--------------------------------*- C++ -*----------------------------------*\
| =========                 |                                                 |
| \\      /  F ield         | OpenFOAM: The Open Source CFD Toolbox           |
|  \\    /   O peration     | Version:  2506                                  |
|   \\  /    A nd           | Website:  www.openfoam.com                      |
|    \\/     M anipulation  |                                                 |
\*---------------------------------------------------------------------------*/
FoamFile
{
    version     2.0;
    format      ascii;
    arch        "LSB;label=32;scalar=64";
    class       volScalarField;
    location    "0.009";
    object      voidfraction_0;
}
// * * * * * * * * * * * * * * * * * * * * * * * * * * * * * * * * * * * * * //

dimensions      [0 0 0 0 0 0 0];

internalField   nonuniform List<scalar> 
512
(
1
0.999945
0.999732
1
1
1
1
1
1
1
1
1
1
1
1
1
1
1
1
1
1
1
1
1
1
0.999945
1
1
1
1
1
1
1
1
1
1
1
1
1
1
1
1
1
1
1
0.999732
1
1
1
1
1
1
1
1
1
1
1
1
1
1
1
1
1
1
1
1
0.999908
1
0.999991
0.999741
1
1
1
1
1
1
1
1
1
1
1
0.999732
1
1
1
1
1
1
1
1
1
1
1
1
1
1
1
1
1
1
1
1
1
1
1
0.999741
1
1
0.999945
1
1
1
1
1
1
0.999991
1
1
0.999963
1
1
0.999741
1
1
1
0.999732
1
1
1
1
1
1
0.999732
1
1
1
1
1
1
1
1
1
1
1
1
0.999945
0.999824
0.999908
1
0.999945
0.999667
1
1
1
1
1
1
1
1
1
1
1
0.999908
1
1
0.999991
0.999732
1
0.999787
1
1
1
0.999991
1
1
0.999991
1
1
0.999945
1
1
1
1
1
0.999732
1
1
1
1
1
1
1
1
1
1
1
1
1
1
1
1
1
1
1
1
0.999991
0.999732
1
1
1
1
1
1
1
1
1
1
1
1
1
1
1
1
1
1
1
1
0.999787
1
1
1
1
1
1
1
0.999963
0.999982
1
1
1
1
1
1
1
1
1
1
1
1
1
1
1
0.999732
1
1
1
0.999196
0.998807
0.999464
0.999464
0.999556
0.998299
0.999187
0.998392
0.999177
0.999205
0.998928
0.999455
0.998401
0.998928
0.999464
0.999196
0.998392
0.998133
0.999464
0.999196
0.999464
0.99866
0.99768
0.999732
0.998373
0.998475
0.999187
0.999713
0.998955
0.99902
0.999639
0.99866
0.999196
0.998835
0.999251
0.998928
0.999103
0.998493
0.99865
0.999196
0.998086
0.998493
0.998345
0.999455
0.999131
0.999205
0.999464
0.99866
0.998382
0.998207
0.99902
0.99866
0.998928
0.999196
0.998549
0.999649
0.998493
0.9989
0.999205
0.998928
0.99865
0.999639
0.998669
0.999205
0.998928
0.998114
0.999251
0.999445
0.999473
0.999455
0.998401
0.998123
0.999464
0.99866
0.99866
0.998142
0.999418
0.999187
0.998946
0.99866
0.999732
0.99902
0.999408
0.99866
0.999723
0.998937
0.999039
0.999371
0.998669
0.999113
0.99865
0.998872
0.999639
0.999824
0.998373
0.999732
0.999908
0.99975
0.999187
0.998983
0.998928
0.998392
0.999214
0.998715
0.99866
0.999713
0.999029
0.998549
0.999085
0.999732
0.998918
0.998392
0.998928
0.999492
0.998586
0.997874
0.999297
0.998567
0.998872
0.999732
0.999196
0.998281
0.998918
0.997643
0.999103
0.998752
0.999196
0.999732
0.998928
0.998123
0.998752
0.998965
0.999371
0.999325
0.998133
0.99902
0.998392
0.999196
0.998373
0.997606
0.998928
0.999464
0.998401
0.998918
0.999732
0.998539
0.999473
0.998641
0.99866
0.998179
0.999353
0.999196
0.998641
0.998955
0.998401
0.99841
0.999455
0.999251
0.999732
0.99866
0.999076
0.997597
0.999445
0.998715
0.999464
0.998743
0.998918
0.999113
0.998872
0.999464
0.998992
0.999455
0.998669
0.998928
0.999436
0.998428
0.99866
0.998937
0.999251
0.998123
0.999464
1
0.999464
0.999676
0.99963
0.999455
1
0.999464
0.998807
0.999529
0.999196
0.99866
0.999408
0.999196
0.998133
0.998604
0.998928
0.999187
0.999076
0.998465
0.999177
0.998835
0.999085
0.999519
0.999639
0.999205
0.998133
0.998909
0.998872
0.99866
0.998928
0.999464
0.999732
0.998835
0.99866
0.998965
0.997976
0.998123
0.998891
0.999325
1
0.998401
0.998928
0.998392
0.999732
0.999445
0.998623
0.999196
0.999732
0.998669
0.999473
0.998771
0.998854
0.998484
0.999196
0.999593
0.998946
0.999196
0.999196
0.999639
0.999076
0.99866
0.999732
0.99866
0.998392
0.998752
0.99866
0.998928
0.999251
0.9978
0.998909
0.998049
0.999464
0.998918
0.998123
0.999196
)
;

boundaryField
{
    wall
    {
        type            zeroGradient;
    }
    outlet
    {
        type            cyclic;
    }
    inlet
    {
        type            cyclic;
    }
    procBoundary3to2
    {
        type            processor;
        value           uniform 1;
    }
}


// ************************************************************************* //
