/*--------------------------------*- C++ -*----------------------------------*\
| =========                 |                                                 |
| \\      /  F ield         | OpenFOAM: The Open Source CFD Toolbox           |
|  \\    /   O peration     | Version:  2506                                  |
|   \\  /    A nd           | Website:  www.openfoam.com                      |
|    \\/     M anipulation  |                                                 |
\*---------------------------------------------------------------------------*/
FoamFile
{
    version     2.0;
    format      ascii;
    arch        "LSB;label=32;scalar=64";
    class       volScalarField;
    location    "0.01";
    object      Ksl;
}
// * * * * * * * * * * * * * * * * * * * * * * * * * * * * * * * * * * * * * //

dimensions      [1 -3 -1 0 0 0 0];

internalField   nonuniform List<scalar> 
4608
(
174266
210178
208040
137548
218269
125400
223112
190277
195065
134842
158638
206516
119339
243915
177017
208632
206431
257902
248170
200791
178979
175093
229299
130891
235841
86573
197689
104474
203425
268327
267784
541513
155481
337792
342589
167220
186280
165611
118455
149951
221285
184768
181133
286238
145609
240713
215585
179482
121223
230505
162469
305593
125742
225799
178973
175682
249262
234495
244370
173428
240588
240210
207741
122058
236354
150972
278392
324844
332176
163438
248723
261931
202556
274692
211753
277220
294559
189274
236342
275203
212701
194759
372795
304671
357561
309191
224098
236649
227180
229215
263881
208571
294786
393591
169367
195742
314932
229657
162787
192566
208025
197046
257015
322315
318980
283993
217261
241470
370679
232298
233317
230039
261760
211749
193823
242292
293580
284755
169536
265568
270572
246628
185376
390065
202208
117268
228622
356740
211055
208473
268685
241484
206791
234322
266563
223007
241612
303443
232043
291682
271745
198909
252968
310320
291807
140248
290278
145127
301678
182849
219165
243714
180948
423089
309242
156062
185370
284470
250570
262528
524254
162155
266385
276099
258887
342499
183047
141853
266099
268069
269257
503894
136942
264686
216383
228447
217911
218490
324251
251238
407263
224169
235594
233463
205405
210625
237095
233049
216491
216742
272796
234882
152625
192834
168492
177331
305540
204520
271746
221177
291588
229193
214373
233104
238681
240182
212989
171246
169420
283840
282529
248706
263579
242946
366165
226571
265848
225526
438529
442778
205014
199389
209486
300230
148001
219365
165699
204796
253035
293806
293494
205626
192862
256811
247200
292776
186966
249473
405522
289078
272685
287230
247881
176703
345701
202054
277429
301468
207543
245668
277427
623334
193459
189901
215030
221722
175765
313834
252385
186267
278284
316984
210210
288292
166869
246963
145490
126237
387421
282131
223051
210477
241669
232842
305749
257628
201645
226833
160457
223679
259477
262937
336999
232450
367153
149076
285463
133992
302896
207127
156992
239217
139687
459967
175030
297176
223794
326448
248991
201947
224456
317449
211310
251072
121529
302734
183422
268539
278361
264939
333870
233987
183281
322638
278515
200600
291061
246872
149034
292261
257619
237759
206813
253267
168303
199106
286590
232536
189841
257263
189047
282608
213828
302963
270795
195512
186370
274094
257202
188441
230005
150261
271801
321904
386214
185450
200704
130567
312838
213407
331033
181378
162204
355500
318243
238018
277563
120591
243586
324319
236672
264146
305990
335976
163735
229105
226597
155858
107782
324938
217167
201244
221401
216804
222803
201669
232321
208694
292849
582381
106560
207466
333445
308120
15939.1
33683.9
35576.5
42567
42277.2
52802.6
79185.5
35637.7
49657.2
28544.7
104422
58288.5
143296
116591
75439
61810.8
52350.3
46785.3
67857.7
83406.2
80550.7
70956.3
157351
73715
23338.4
30077.3
29760.7
81855.3
161824
90178.8
111697
41280.4
34453.2
44100.2
67769.5
61219.3
35472.8
81589.3
49571.7
20608.5
49313
35944.7
45131.5
67918.4
69970.6
88020.8
34824.7
14766.9
11710.3
23365
88891.2
38631.5
37769.4
34399.8
32677.3
21030.2
31167.8
37002.5
88865.7
17374.4
45195.2
29328.8
16275.4
32389
0
0
0
0
0
0
0
0
0
0
0
0
0
0
0
0
0
0
0
0
0
0
228.485
0
0
0
0
0
0
394.068
269.251
0
0
0
0
0
0
0
0
0
0
0
0
0
0
0
0
0
0
0
0
0
0
0
0
0
0
0
0
0
0
0
0
0
0
0
0
0
0
0
0
0
0
0
0
0
0
0
0
0
0
0
0
0
0
0
0
0
0
0
0
0
0
0
0
0
0
0
0
0
0
0
0
0
0
0
0
0
0
0
0
0
0
0
0
0
0
0
0
0
0
0
0
0
0
0
0
0
0
0
0
0
0
0
0
0
0
0
0
0
0
0
0
0
0
0
0
0
0
0
0
0
0
0
0
0
0
0
0
0
0
0
0
0
0
0
0
0
0
0
0
0
0
0
0
0
0
0
0
0
0
0
0
0
0
0
0
0
0
0
0
0
0
0
0
0
0
0
0
0
0
0
0
0
0
0
0
0
0
0
0
0
0
0
0
0
0
0
0
0
0
0
0
0
0
0
0
0
0
0
0
0
0
0
0
0
0
0
0
0
0
0
0
0
0
0
0
0
0
0
0
0
0
0
0
0
0
0
0
0
0
0
0
0
0
0
0
0
0
0
0
0
0
0
0
0
0
0
0
0
0
0
0
0
0
0
0
0
0
0
0
0
0
0
0
0
0
0
0
0
0
0
0
0
0
0
0
0
0
0
0
0
0
0
0
0
0
0
0
0
0
0
0
0
0
0
0
0
0
0
0
0
0
0
0
0
0
0
0
0
0
0
0
0
0
0
0
0
0
0
0
0
0
0
0
0
0
0
0
0
0
0
0
0
0
0
0
0
0
0
0
0
0
0
0
0
0
0
0
0
0
0
0
0
0
0
0
0
0
0
0
0
0
0
0
0
0
0
0
0
0
0
0
0
0
0
0
0
0
0
0
0
0
0
0
0
0
0
0
0
0
0
0
0
0
0
0
0
0
0
0
0
0
0
0
0
0
0
0
0
0
0
0
0
0
0
0
0
0
0
0
0
0
0
0
0
0
0
0
0
0
0
0
0
0
0
0
0
0
0
0
0
0
0
0
0
0
0
0
0
0
0
0
0
0
0
0
0
0
0
0
0
0
0
0
0
0
0
0
0
0
0
0
0
0
0
0
0
0
0
0
0
0
0
0
0
0
0
0
0
0
0
0
0
0
0
0
0
0
0
0
0
0
0
0
0
0
0
0
0
0
0
0
0
0
0
0
0
0
0
0
0
0
0
0
0
0
0
0
0
0
0
0
0
0
0
0
0
0
0
0
0
0
0
0
0
0
0
0
0
0
0
0
0
0
0
0
0
0
0
0
0
0
0
0
0
0
0
0
0
0
0
0
0
0
0
0
0
0
0
0
0
0
0
0
0
0
0
0
0
0
0
0
0
0
0
0
0
0
0
0
0
0
0
0
0
0
0
0
0
0
0
0
0
0
0
0
0
0
0
0
0
0
0
0
0
0
0
0
0
0
0
0
0
0
0
0
0
0
0
0
0
0
0
0
0
0
0
0
0
0
0
0
0
0
0
0
0
0
0
0
0
0
0
0
0
0
0
0
0
0
0
0
0
0
0
0
0
0
0
0
0
0
0
0
0
0
0
0
0
0
0
0
0
0
0
0
0
0
0
0
0
0
0
0
0
0
0
0
0
0
0
0
0
0
0
0
0
0
0
0
0
0
0
0
0
0
0
0
0
0
0
0
0
0
0
0
0
0
0
0
0
0
0
0
0
0
0
0
0
0
0
0
0
0
0
0
0
0
0
0
0
0
0
0
0
0
0
0
0
0
0
0
0
0
0
0
0
0
0
0
0
0
0
0
0
0
0
0
0
0
0
0
0
0
0
0
0
0
0
0
0
0
0
0
0
0
0
0
0
0
0
0
0
0
0
0
0
0
0
0
0
0
0
0
0
0
0
0
0
0
0
0
0
0
0
0
0
0
0
0
0
0
0
0
0
0
0
0
0
0
0
0
0
0
0
0
0
0
0
0
0
0
0
0
0
0
0
0
0
0
0
0
0
0
0
0
0
0
0
0
0
0
0
0
0
0
0
0
0
0
0
0
0
0
0
0
0
0
0
0
0
0
0
0
0
0
0
0
0
0
0
0
0
0
0
0
0
0
0
0
0
0
0
0
0
0
0
0
0
0
0
0
0
0
0
0
0
0
0
0
0
0
0
0
0
0
0
0
0
0
0
0
0
0
0
0
0
0
0
0
0
0
0
0
0
0
0
0
0
0
0
0
0
0
0
0
0
0
0
0
0
0
0
0
0
0
0
0
0
0
0
0
0
0
0
0
0
0
0
0
0
0
0
0
0
0
0
0
0
0
0
0
0
0
0
0
0
0
0
0
0
0
0
0
0
0
0
0
0
0
0
0
0
0
0
0
0
0
0
0
0
0
0
0
0
0
0
0
0
0
0
0
0
0
0
0
0
183972
364371
187719
122427
185696
178458
178756
215570
242128
158101
164474
223206
209865
247303
204486
184367
142131
179853
146420
179014
295473
247100
174488
208050
234441
168123
190482
147722
229632
186991
136080
204281
295360
92879.3
298257
341321
214515
248406
195291
260083
302387
309798
198298
319374
219258
179048
260652
312271
275947
186778
187868
193081
197634
237251
191854
303079
182598
297443
179362
258923
233048
277062
306901
145880
257732
327247
268055
152482
299336
247988
173023
103193
196369
323944
217258
256444
197764
254748
288675
276849
169480
200019
203111
280003
272982
147128
217789
299002
225068
258922
205771
257021
176049
223364
193200
175231
130618
274806
137063
292393
209105
261740
268226
318897
566727
189378
323333
272011
314326
168861
216317
326034
236691
335104
205791
97440.4
287426
239531
139453
187778
256990
196984
303217
149777
250194
210655
167042
212756
240415
183696
228684
344634
247464
257061
161143
340623
216979
153623
199943
307663
206443
310265
330351
207162
326939
244705
211753
262139
212911
175559
213490
383703
205606
304779
242063
214870
252130
220531
225049
80723.7
78631.3
268464
133648
303983
155981
218335
159954
314411
226651
310915
218546
227053
302956
221476
131314
122517
271998
156287
294984
319984
123464
292368
159118
301892
278409
247281
128179
158524
347984
229335
203975
191500
84316.1
26860.5
41826.6
54570.7
28825.6
26220.6
38283.3
36254.2
82877.9
48694.5
90251.6
62712.1
46047.9
19829.5
16786.8
30396
59488.7
24336.7
35816.2
39994.1
27473.2
52409.1
73939.1
49597.3
47357.5
51461.5
80903.8
126397
46201
48033.3
75658.6
46888.7
0
0
0
0
0
0
0
0
0
0
0
0
0
0
0
0
0
0
0
0
0
0
0
0
0
0
0
0
0
0
0
0
0
0
0
0
0
0
0
0
0
0
0
0
0
0
0
0
0
0
0
0
0
0
0
0
0
0
0
0
0
0
0
0
0
0
0
0
0
0
0
0
0
0
0
0
0
0
0
0
0
0
0
0
0
0
0
0
0
0
0
0
0
0
0
0
0
0
0
0
0
0
0
0
0
0
0
0
0
0
0
0
0
0
0
0
0
0
0
0
0
0
0
0
0
0
0
0
0
0
0
0
0
0
0
0
0
0
0
0
0
0
0
0
0
0
0
0
0
0
0
0
0
0
0
0
0
0
0
0
0
0
0
0
0
0
0
0
0
0
0
0
0
0
0
0
0
0
0
0
0
0
0
0
0
0
0
0
0
0
0
0
0
0
0
0
0
0
0
0
0
0
0
0
0
0
0
0
0
0
0
0
0
0
0
0
0
0
0
0
0
0
0
0
0
0
0
0
0
0
0
0
0
0
0
0
0
0
0
0
0
0
0
0
0
0
0
0
0
0
0
0
0
0
0
0
0
0
0
0
0
0
0
0
0
0
0
0
0
0
0
0
0
0
0
0
0
0
0
0
0
0
0
0
0
0
0
0
0
0
0
0
0
0
0
0
0
0
0
0
0
0
0
0
0
0
0
0
0
0
0
0
0
0
0
0
0
0
0
0
0
0
0
0
0
0
0
0
0
0
0
0
0
0
0
0
0
0
0
0
0
0
0
0
0
0
0
0
0
0
0
0
0
0
0
0
0
0
0
0
0
0
0
0
0
0
0
0
0
0
0
0
0
0
0
0
0
0
0
0
0
0
0
0
0
0
0
0
0
0
0
0
0
0
0
0
0
0
0
0
0
0
0
0
0
0
0
0
0
0
0
0
0
0
0
0
0
0
0
0
0
0
0
0
0
0
0
0
0
0
0
0
0
0
0
0
0
0
0
0
0
0
0
0
0
0
0
0
0
0
0
0
0
0
0
0
0
0
0
0
0
0
0
0
0
0
0
0
0
0
0
0
0
0
0
0
0
0
0
0
0
0
0
0
0
0
0
0
0
0
0
0
0
0
0
0
0
0
0
0
0
0
0
0
0
0
0
0
0
0
0
0
0
0
0
0
0
0
0
0
0
0
0
0
0
0
0
0
0
0
0
0
0
0
0
0
0
0
0
0
0
0
0
0
241052
148676
152436
250200
187914
229815
192318
305144
198948
189824
127480
218709
165131
223075
290425
169930
227470
136182
144312
226963
155877
198011
187632
246068
249929
135768
144313
174323
149584
202473
133557
234215
183983
213327
250964
106210
209666
122393
229097
287399
192795
292070
315018
350964
142630
242853
358582
218565
211363
257318
137451
353283
283907
240320
121927
285094
125609
136518
343540
208603
119871
264826
151043
248844
219928
230422
233634
218119
178213
387631
186241
218304
257024
150616
247753
206448
332567
172030
192903
164918
206138
197743
226189
311992
176155
186548
293225
263156
199298
219261
218099
242231
306066
276400
289838
176782
243684
231001
158673
289540
218712
163212
279601
158709
235997
213980
209865
367645
283409
414165
247937
219473
157017
98409.4
199199
288712
188216
313987
211648
305095
252811
207953
255393
200960
185358
228854
228957
379511
188590
177781
178329
297403
245625
149418
442545
179636
188725
311841
211110
380958
151416
252491
235465
326107
203664
204700
202624
206008
238712
180493
225674
280481
232626
208908
268538
298081
137133
497767
129540
424414
69188.9
211735
311724
134736
231621
268040
273262
283946
193088
178283
201396
205995
206939
203214
268107
148994
259102
206918
216459
254636
226005
298013
204072
238423
230987
180975
370188
350496
280891
187635
314976
430772
66944.9
46288.6
28881.5
25611.1
97539
83750.5
94717.3
31343.2
134053
59548.3
62588
49884.8
76639.5
104661
75136.7
48256.6
63189.6
48245.2
51313.6
54850.3
88981.6
42634.6
28080.3
40583.7
96771
28865.4
46579.7
33516.4
76569
103035
35615.4
47622.4
0
365.965
0
0
0
0
0
0
0
0
0
0
0
0
0
0
0
0
0
0
0
0
0
0
0
0
0
0
0
0
0
0
0
0
0
0
0
0
0
0
0
0
0
0
0
0
0
0
0
0
0
0
0
0
0
0
0
0
0
0
0
0
0
0
0
0
0
0
0
0
0
0
0
0
0
0
0
0
0
0
0
0
0
0
0
0
0
0
0
0
0
0
0
0
0
0
0
0
0
0
0
0
0
0
0
0
0
0
0
0
0
0
0
0
0
0
0
0
0
0
0
0
0
0
0
0
0
0
0
0
0
0
0
0
0
0
0
0
0
0
0
0
0
0
0
0
0
0
0
0
0
0
0
0
0
0
0
0
0
0
0
0
0
0
0
0
0
0
0
0
0
0
0
0
0
0
0
0
0
0
0
0
0
0
0
0
0
0
0
0
0
0
0
0
0
0
0
0
0
0
0
0
0
0
0
0
0
0
0
0
0
0
0
0
0
0
0
0
0
0
0
0
0
0
0
0
0
0
0
0
0
0
0
0
0
0
0
0
0
0
0
0
0
0
0
0
0
0
0
0
0
0
0
0
0
0
0
0
0
0
0
0
0
0
0
0
0
0
0
0
0
0
0
0
0
0
0
0
0
0
0
0
0
0
0
0
0
0
0
0
0
0
0
0
0
0
0
0
0
0
0
0
0
0
0
0
0
0
0
0
0
0
0
0
0
0
0
0
0
0
0
0
0
0
0
0
0
0
0
0
0
0
0
0
0
0
0
0
0
0
0
0
0
0
0
0
0
0
0
0
0
0
0
0
0
0
0
0
0
0
0
0
0
0
0
0
0
0
0
0
0
0
0
0
0
0
0
0
0
0
0
0
0
0
0
0
0
0
0
0
0
0
0
0
0
0
0
0
0
0
0
0
0
0
0
0
0
0
0
0
0
0
0
0
0
0
0
0
0
0
0
0
0
0
0
0
0
0
0
0
0
0
0
0
0
0
0
0
0
0
0
0
0
0
0
0
0
0
0
0
0
0
0
0
0
0
0
0
0
0
0
0
0
0
0
0
0
0
0
0
0
0
0
0
0
0
0
0
0
0
0
0
0
0
0
0
0
0
0
0
0
0
0
0
0
0
0
0
0
0
0
0
0
0
0
0
0
0
0
0
0
0
0
0
0
0
0
0
0
0
0
0
0
0
0
0
0
0
0
0
0
0
0
0
0
0
0
0
0
0
0
0
0
0
163671
178235
249272
224478
175816
223369
151274
202163
134022
163635
177760
187485
212886
254593
209822
203388
178999
323698
173673
226333
146094
186839
181532
197755
162353
244362
140643
297082
144607
201771
186035
228758
153419
230208
222970
237198
204873
219187
154221
228157
252469
205402
207590
254473
262040
161678
336969
278332
204449
273891
223664
227920
186887
236920
204973
102141
215604
402604
172824
226190
258345
274506
324283
235456
231105
162171
249182
200802
209030
202107
214947
151219
270541
181066
188897
219652
203996
221143
243097
236102
217302
172874
265986
188052
281251
232094
142983
333006
356551
239482
249252
295452
294628
261138
194049
295224
149269
258916
222582
266491
194785
194242
236757
151787
224844
166691
278649
151637
287370
283508
230195
373726
202293
302126
311656
249545
165058
152982
276059
164031
258692
198128
192615
170978
386567
295879
246952
227203
197554
219331
215892
215132
172048
256087
146263
192795
255782
226522
140586
262204
246532
373417
172786
260452
160090
200443
264065
413911
174127
190373
187847
415162
226898
301234
277898
256661
239688
166704
331363
192726
179839
241965
238049
206748
206625
165715
234652
182229
358880
249921
200743
244004
232966
254896
209323
203080
121743
305082
243700
244236
231567
238403
458801
188187
282599
192017
177701
286414
96492.4
223247
159232
237834
35375.2
35550
52344.7
44743.6
51167
41832.9
47617.8
142930
55896.2
28686.1
30828
22758.9
48323.9
60236.5
72630.4
80931.1
70041
25406.4
40332.3
29067.9
40886.8
17997
29237.1
68949.8
58809.7
19232.2
32043.7
39982.8
38504.2
59556
15193.1
35229.8
0
0
0
0
0
0
0
0
0
0
0
0
0
0
0
0
0
0
0
0
0
0
0
0
0
0
0
0
0
0
0
0
0
0
0
0
0
0
0
0
0
0
0
0
0
0
0
0
0
0
0
0
0
0
0
0
0
0
0
0
0
0
0
0
0
0
0
0
0
0
0
0
0
0
0
0
0
0
0
0
0
0
0
0
0
0
0
0
0
0
0
0
0
0
0
0
0
0
0
0
0
0
0
0
0
0
0
0
0
0
0
0
0
0
0
0
0
0
0
0
0
0
0
0
0
0
0
0
0
0
0
0
0
0
0
0
0
0
0
0
0
0
0
0
0
0
0
0
0
0
0
0
0
0
0
0
0
0
0
0
0
0
0
0
0
0
0
0
0
0
0
0
0
0
0
0
0
0
0
0
0
0
0
0
0
0
0
0
0
0
0
0
0
0
0
0
0
0
0
0
0
0
0
0
0
0
0
0
0
0
0
0
0
0
0
0
0
0
0
0
0
0
0
0
0
0
0
0
0
0
0
0
0
0
0
0
0
0
0
0
0
0
0
0
0
0
0
0
0
0
0
0
0
0
0
0
0
0
0
0
0
0
0
0
0
0
0
0
0
0
0
0
0
0
0
0
0
0
0
0
0
0
0
0
0
0
0
0
0
0
0
0
0
0
0
0
0
0
0
0
0
0
0
0
0
0
0
0
0
0
0
0
0
0
0
0
0
0
0
0
0
0
0
0
0
0
0
0
0
0
0
0
0
0
0
0
0
0
0
0
0
0
0
0
0
0
0
0
0
0
0
0
0
0
0
0
0
0
0
0
0
0
0
0
0
0
0
0
0
0
0
0
0
0
0
0
0
0
0
0
0
0
0
0
0
0
0
0
0
0
0
0
0
0
0
0
0
0
0
0
0
0
0
0
0
0
0
0
0
0
0
0
0
0
0
0
0
0
0
0
0
0
0
0
0
0
0
0
0
0
0
0
0
0
0
0
0
0
0
0
0
0
0
0
0
0
0
0
0
0
0
0
0
0
0
0
0
0
0
0
0
0
0
0
0
0
0
0
0
0
0
0
0
0
0
0
0
0
0
0
0
0
0
0
0
0
0
0
0
0
0
0
0
0
0
0
0
0
0
0
0
0
0
0
0
0
0
0
0
0
0
0
0
0
0
0
0
0
0
0
0
0
0
0
0
0
0
0
0
0
0
0
0
0
0
0
0
0
0
0
0
0
0
0
219817
221819
169598
211746
183171
188244
200262
147025
289959
195268
161540
179345
144354
290715
118912
139101
221999
153388
276050
248202
188085
235974
171238
153692
133734
209816
153041
269132
332731
142999
322093
189686
176245
162388
347301
126341
232247
321003
307283
192637
251709
226240
322850
250109
222181
251878
232347
189016
269482
186518
143983
265251
207144
244054
220851
172100
428167
217765
117122
276532
219134
258143
205250
183243
390807
235916
277625
254527
203700
236376
146267
233739
215247
185181
229758
203169
174577
190723
282101
296319
377710
336062
238200
165772
174144
259247
213811
281247
141930
340930
148308
196468
224476
148272
261969
163000
257518
259816
263887
162495
216438
254018
190077
283172
243415
228603
255756
167319
229332
290581
159086
301585
297082
273756
206221
243601
275862
201972
198297
235947
175104
228745
226111
149960
184643
243541
276811
177478
209932
407741
215437
127291
215893
304740
207049
199971
248181
196551
244828
247670
262380
201927
200902
202826
295393
208523
266504
172221
272099
298756
220037
233450
187520
352944
198497
190788
149719
170117
248911
186756
120812
351181
254517
201108
103194
226290
188059
209910
255729
273115
215155
175015
222449
254737
255559
319977
211238
200171
185483
198628
190695
259541
157483
177317
142032
374131
181011
317389
388550
222125
219449
189662
72660.5
102491
77212.4
47120.2
49749
35658.4
56933.3
100820
20428.3
21644
36414
154075
63047.9
20700
61722
42827.7
28692.4
27837.9
38326.1
40954.4
23163.1
36521.6
20206.8
25418
39300.1
16485.6
31402.4
32588.2
10718.5
72024.8
39433.4
43942.2
0
0
0
0
0
0
0
0
0
0
0
245.724
0
0
0
0
0
0
0
0
0
0
0
0
0
0
0
0
0
0
0
0
0
0
0
0
0
0
0
0
0
0
0
0
0
0
0
0
0
0
0
0
0
0
0
0
0
0
0
0
0
0
0
0
0
0
0
0
0
0
0
0
0
0
0
0
0
0
0
0
0
0
0
0
0
0
0
0
0
0
0
0
0
0
0
0
0
0
0
0
0
0
0
0
0
0
0
0
0
0
0
0
0
0
0
0
0
0
0
0
0
0
0
0
0
0
0
0
0
0
0
0
0
0
0
0
0
0
0
0
0
0
0
0
0
0
0
0
0
0
0
0
0
0
0
0
0
0
0
0
0
0
0
0
0
0
0
0
0
0
0
0
0
0
0
0
0
0
0
0
0
0
0
0
0
0
0
0
0
0
0
0
0
0
0
0
0
0
0
0
0
0
0
0
0
0
0
0
0
0
0
0
0
0
0
0
0
0
0
0
0
0
0
0
0
0
0
0
0
0
0
0
0
0
0
0
0
0
0
0
0
0
0
0
0
0
0
0
0
0
0
0
0
0
0
0
0
0
0
0
0
0
0
0
0
0
0
0
0
0
0
0
0
0
0
0
0
0
0
0
0
0
0
0
0
0
0
0
0
0
0
0
0
0
0
0
0
0
0
0
0
0
0
0
0
0
0
0
0
0
0
0
0
0
0
0
0
0
0
0
0
0
0
0
0
0
0
0
0
0
0
0
0
0
0
0
0
0
0
0
0
0
0
0
0
0
0
0
0
0
0
0
0
0
0
0
0
0
0
0
0
0
0
0
0
0
0
0
0
0
0
0
0
0
0
0
0
0
0
0
0
0
0
0
0
0
0
0
0
0
0
0
0
0
0
0
0
0
0
0
0
0
0
0
0
0
0
0
0
0
0
0
0
0
0
0
0
0
0
0
0
0
0
0
0
0
0
0
0
0
0
0
0
0
0
0
0
0
0
0
0
0
0
0
0
0
0
0
0
0
0
0
0
0
0
0
0
0
0
0
0
0
0
0
0
0
0
0
0
0
0
0
0
0
0
0
0
0
0
0
0
0
0
0
0
0
0
0
0
0
0
0
0
0
0
0
0
0
0
0
0
0
0
0
0
0
0
0
0
0
0
0
0
0
0
0
0
0
0
0
0
0
0
0
0
0
0
0
0
0
0
0
0
0
0
0
0
0
0
0
0
0
0
0
)
;

boundaryField
{
    inlet
    {
        type            zeroGradient;
    }
    outlet
    {
        type            zeroGradient;
    }
    wall
    {
        type            zeroGradient;
    }
}


// ************************************************************************* //
