/*--------------------------------*- C++ -*----------------------------------*\
| =========                 |                                                 |
| \\      /  F ield         | OpenFOAM: The Open Source CFD Toolbox           |
|  \\    /   O peration     | Version:  2506                                  |
|   \\  /    A nd           | Website:  www.openfoam.com                      |
|    \\/     M anipulation  |                                                 |
\*---------------------------------------------------------------------------*/
FoamFile
{
    version     2.0;
    format      ascii;
    arch        "LSB;label=32;scalar=64";
    class       volVectorField;
    location    "0.01";
    object      U;
}
// * * * * * * * * * * * * * * * * * * * * * * * * * * * * * * * * * * * * * //

dimensions      [0 1 -1 0 0 0 0];

internalField   nonuniform List<vector> 
4608
(
(-0.000899864 -0.000670977 0.00535069)
(-0.000644482 0.000124911 0.00433967)
(-0.000638089 -0.000486917 0.0043362)
(-0.000390878 -0.000248445 0.00676705)
(0.000352323 -0.000312454 0.00396163)
(0.00020479 -0.000430398 0.00743555)
(-0.000214227 -0.000306611 0.0040402)
(0.000476563 -0.000821802 0.00489333)
(0.000210954 -0.000626508 0.00462465)
(-0.000558402 -0.000780354 0.00680405)
(-0.000882541 -0.0011418 0.0058117)
(-0.000265466 -0.000326499 0.00425734)
(0.000234036 -0.000649513 0.00746113)
(-2.43133e-06 -0.000580183 0.00355789)
(-1.0225e-05 -0.000332718 0.00526369)
(0.000259194 -6.77618e-05 0.00431825)
(-2.65453e-06 -0.000324154 0.00453093)
(-0.000458601 -7.53599e-05 0.00345559)
(-0.000371439 -0.0001421 0.00351803)
(-3.04665e-05 0.000298698 0.00493511)
(-0.000217452 -0.000303654 0.00505799)
(0.000206627 -0.000779331 0.00569603)
(0.000479003 1.47066e-05 0.00400578)
(0.000398081 -4.61481e-05 0.00736169)
(-4.56536e-05 -0.000299995 0.00386254)
(-0.000433944 -0.00112473 0.0103495)
(-0.000172871 0.000188728 0.0043114)
(-0.000688179 0.000637647 0.00938874)
(-0.00081049 0.000251637 0.00458269)
(0.00021077 0.000260742 0.00334958)
(0.000455302 0.000360083 0.00313614)
(0.000272065 8.58699e-05 0.00125664)
(-0.000564125 -0.000423619 0.00574564)
(-8.65759e-05 -0.000282568 0.00240645)
(5.39316e-05 -7.39908e-05 0.0021814)
(0.000156465 -0.000776141 0.00527478)
(4.28569e-05 0.000224013 0.00479625)
(0.000580833 0.000747815 0.00535053)
(0.000842749 0.000632184 0.00813784)
(0.000103181 0.000947458 0.00674207)
(-0.000459252 0.000385306 0.0040475)
(-6.95918e-05 0.000261583 0.00506605)
(-0.0002603 0.00035761 0.00500106)
(7.70569e-05 -0.000254788 0.00288734)
(0.000520926 0.00018531 0.0070236)
(0.000295366 4.31926e-05 0.00370965)
(0.00066248 0.000315411 0.00403342)
(0.000594811 0.000471686 0.00524488)
(-0.00150026 0.000701041 0.00780809)
(-0.000371975 0.000349699 0.00393688)
(-0.000474879 0.000393225 0.0056371)
(8.17158e-05 0.00027827 0.00275721)
(0.0007871 0.000443609 0.00718238)
(0.000525516 0.000933347 0.00398039)
(0.00079477 0.00071415 0.00504839)
(0.000446241 0.000479768 0.00519682)
(-0.000723728 0.000191946 0.00350251)
(-0.000135503 0.00118489 0.00377804)
(1.06106e-05 0.000377559 0.00358679)
(0.000108285 0.00107543 0.00534852)
(0.000844306 0.000386588 0.00351551)
(0.000511157 0.000509421 0.00341052)
(8.84505e-05 0.00049665 0.00431599)
(0.000362211 0.000252682 0.00785912)
(-0.000334403 -0.000227637 0.00779315)
(-0.000825111 -0.00132588 0.013681)
(-0.000633762 -0.000391228 0.0066578)
(-0.00020861 -0.000459573 0.0053043)
(-4.10462e-06 -0.000375521 0.00490822)
(0.000219143 -0.000166518 0.0120495)
(0.000355305 -0.000542942 0.00728489)
(0.000231502 -0.000458213 0.00675354)
(-0.00116313 -0.00034138 0.00944982)
(-0.000465732 -0.000167409 0.00638921)
(-0.000252638 -0.000204006 0.00899762)
(-0.000525435 0.000367294 0.00644469)
(0.00014736 -0.000350065 0.00569571)
(0.000913411 0.000259173 0.0103446)
(5.44746e-05 4.35862e-05 0.00795131)
(0.00036401 -0.000282301 0.00656)
(-0.000248448 -0.000104614 0.00901545)
(-0.000342026 -0.000995519 0.00989246)
(-6.91613e-05 -0.000266043 0.00416487)
(-0.000364481 -0.000228868 0.00550642)
(-0.000104804 0.000320357 0.00437753)
(0.00047095 -6.50906e-07 0.00546726)
(2.10511e-05 0.000252507 0.00828762)
(0.000482954 0.00036888 0.00782872)
(-0.00150054 -0.0006933 0.00822864)
(-0.00067801 -0.000127253 0.00787497)
(0.00038857 -6.78029e-05 0.0063769)
(0.000470677 -0.000695355 0.00860874)
(0.000331256 0.000160856 0.00557487)
(0.000209884 -0.000132633 0.00391541)
(0.000723175 -0.000409638 0.0115677)
(0.000344945 0.000562934 0.00989866)
(-6.65748e-05 -3.0745e-05 0.00556769)
(0.000420918 0.000686191 0.00826816)
(-0.000888728 0.000402573 0.0126572)
(-0.000293626 0.000208846 0.00992946)
(-9.97992e-06 0.000173686 0.00897275)
(0.000170654 7.85361e-05 0.00929935)
(0.000830217 4.82532e-05 0.00659665)
(0.000482034 6.05514e-05 0.00500508)
(-0.000387834 0.000146194 0.00545331)
(-0.000213384 -0.000159805 0.00617275)
(-0.000131186 -0.000184926 0.00870783)
(0.000279052 0.000302854 0.00765408)
(0.000196174 -5.34662e-05 0.00422764)
(0.000239173 0.000635646 0.00778982)
(0.000407543 0.000524858 0.00745044)
(0.000566285 -6.53834e-06 0.00784246)
(-0.000174999 0.000503596 0.00677472)
(2.95368e-05 0.000598034 0.00880245)
(-0.000145756 0.000563992 0.00993613)
(-0.000359377 0.000296374 0.00773678)
(0.000325093 0.00024782 0.00565928)
(0.000719568 0.000432493 0.00608997)
(0.000141799 0.0005765 0.0111087)
(0.000631867 0.000203548 0.00640623)
(-0.000162997 0.000407352 0.00651965)
(-0.000404909 0.000353563 0.00719759)
(-0.00041026 0.00066221 0.0104419)
(9.72187e-05 0.000235057 0.00390363)
(0.000605258 0.0011658 0.00950387)
(0.000379641 0.000805633 0.0175353)
(-6.885e-05 0.000857644 0.00816438)
(0.000562181 0.000902829 0.00445765)
(0.000335886 -0.000316383 0.00984843)
(0.000159355 -0.000633694 0.00991997)
(0.000360004 -0.00016603 0.00739167)
(-0.000548661 -0.000432844 0.00877141)
(-0.00107677 -0.000139077 0.0100851)
(-0.000116272 -0.000444028 0.00867801)
(0.000293151 -0.000232429 0.00737501)
(-0.000228625 0.000483714 0.00896592)
(-0.00041525 -0.000316415 0.00819436)
(-5.63155e-06 -0.000342368 0.00611307)
(0.00013197 -0.000679028 0.00907671)
(-0.000156589 -0.000649414 0.00676075)
(-0.000353479 -0.000162039 0.00729516)
(3.18579e-05 0.000273242 0.0104326)
(0.000665938 -0.000292975 0.00785581)
(0.000164393 -0.000204128 0.00597324)
(-0.00035151 -4.8524e-05 0.00634829)
(-0.000387457 -0.000558023 0.0154841)
(5.66997e-05 -0.000533973 0.00614398)
(0.000190139 -0.00138997 0.0150516)
(0.000115572 -0.00011862 0.00610704)
(-0.000271034 0.000608865 0.0114641)
(9.68252e-05 -0.000333438 0.00943093)
(0.000411166 -0.000698525 0.00833263)
(-0.000374529 0.000886884 0.0115654)
(-0.000291029 0.000123398 0.00370851)
(-0.000181229 -3.46851e-05 0.00559559)
(0.000910036 -0.000458992 0.0140255)
(0.00106373 -0.000352094 0.0111263)
(-7.17368e-05 -0.000345445 0.00650358)
(-0.000257054 -0.000111039 0.00768231)
(0.000284841 -9.44956e-05 0.00736433)
(-0.000148913 0.000145215 0.00284804)
(-0.00146907 0.000437848 0.0134216)
(-0.000307835 0.000263216 0.00707317)
(2.58721e-05 0.000223602 0.00670389)
(-3.51256e-05 0.000113087 0.00747236)
(6.25618e-05 -0.000144886 0.00494919)
(0.00063437 -0.00016361 0.0119525)
(0.000448036 0.000113902 0.0155801)
(-8.28732e-05 -0.000528297 0.00741089)
(-0.000630182 -0.00025123 0.00711865)
(-0.000163915 -0.000108274 0.00717955)
(0.000106683 0.000307388 0.00275263)
(-2.81e-05 0.000398126 0.0167079)
(-0.000223933 0.000560009 0.00707372)
(0.000140208 7.83443e-05 0.00928244)
(0.00053871 0.000303833 0.00883133)
(-0.000366505 -0.000306743 0.0103437)
(-0.000546039 -0.000257069 0.00935176)
(0.000190139 0.000109483 0.00577386)
(0.000203627 0.000325171 0.00781226)
(-2.92056e-05 0.000172215 0.00412123)
(-0.000177341 5.31437e-05 0.00881163)
(0.000217497 0.000716734 0.00833513)
(0.00091913 0.000822548 0.0085893)
(-0.000182992 0.000343088 0.0102472)
(-0.000663104 -0.0008726 0.00959268)
(9.22292e-05 0.000883709 0.00835675)
(0.000248181 0.000265001 0.008793)
(-0.000258806 0.000448907 0.00939854)
(0.000218837 0.000414286 0.00925597)
(0.000722032 0.000739409 0.00709791)
(0.000516348 0.000569472 0.00863132)
(-0.000312247 -0.000222898 0.0142994)
(-9.6074e-05 4.00607e-05 0.0107631)
(0.00054722 0.000440191 0.0122433)
(-0.000415243 0.00048387 0.0115447)
(-0.000293876 -0.000495658 0.00596708)
(0.000116708 -0.000881841 0.0101183)
(0.000203854 0.000102214 0.00703125)
(0.000239142 6.64823e-05 0.0092094)
(-9.43188e-05 -0.000331251 0.00632654)
(9.58437e-06 -0.000509738 0.00837785)
(0.000506444 -0.000411076 0.00912515)
(-0.000532185 -0.000930043 0.00800597)
(-0.000853443 -4.95241e-05 0.00779616)
(0.000184484 -3.49451e-07 0.00787058)
(0.000698302 0.000117586 0.00926153)
(0.000112632 0.000100875 0.0123483)
(-0.000169475 -0.000949481 0.0125237)
(-0.000114577 -0.000132186 0.00622274)
(-6.9865e-06 -0.000407577 0.00601655)
(0.000122959 -0.00117197 0.00742013)
(0.000335346 -0.000224439 0.0066067)
(0.000293603 0.000570337 0.00752213)
(0.000245166 -5.779e-05 0.00434931)
(-0.000265531 0.000102068 0.00850438)
(0.000412905 0.000266279 0.00684506)
(0.000195167 0.000457127 0.00853184)
(-0.00023911 0.000157444 0.00318283)
(-9.9999e-05 0.00018749 0.00315171)
(0.000985977 0.000402205 0.009416)
(0.000395485 0.000135874 0.00970852)
(0.000286924 -0.000445549 0.00937488)
(-9.81975e-05 -0.000476328 0.00618723)
(-0.000558768 0.00121346 0.0140399)
(-6.136e-06 8.98727e-05 0.00864725)
(0.000319615 0.000456446 0.012767)
(0.000125971 0.00121688 0.00973386)
(-7.23767e-05 0.000156202 0.00722082)
(-0.000189765 -0.000158602 0.00609711)
(-0.000265102 2.69344e-06 0.00616242)
(0.000172757 -0.00071727 0.0100552)
(-0.000211774 0.000850181 0.0105894)
(-0.000172492 0.000124033 0.00723833)
(0.000324141 0.000236276 0.00758566)
(-0.000245741 0.000181722 0.00581589)
(-0.000729324 -0.000147385 0.011151)
(0.000265727 3.90687e-05 0.00770329)
(6.83748e-05 0.000136385 0.00415377)
(-5.78665e-05 0.00046197 0.00685254)
(-2.98522e-05 1.10485e-05 0.0074556)
(-0.000357779 6.26584e-06 0.00655979)
(0.00013525 -1.18778e-05 0.00789172)
(-0.000297189 -0.000181969 0.0117632)
(-0.000171633 0.000309971 0.00488457)
(-0.000305956 0.00040232 0.01021)
(0.000117436 0.000568138 0.00707998)
(0.00010753 0.000320932 0.00634736)
(3.97957e-05 -0.000551868 0.0106817)
(-0.000323452 0.000442506 0.00837092)
(1.48708e-05 -1.27899e-05 0.00682195)
(3.04655e-05 7.00581e-06 0.00217962)
(-0.000159371 0.000135257 0.011914)
(0.000556463 0.000433182 0.0117646)
(9.10845e-05 0.000519286 0.00974689)
(-0.000111108 -0.000493605 0.00908926)
(-0.00105783 -0.000140921 0.0124606)
(-0.000185928 -6.31599e-05 0.00559176)
(-8.28627e-05 -0.000163556 0.00725684)
(0.000957292 0.000102204 0.0107769)
(0.000162401 -0.00091845 0.00620833)
(-0.000409693 -0.000333698 0.00523129)
(0.000107779 -0.000598645 0.00923112)
(0.000521783 3.26121e-05 0.00651654)
(2.87671e-05 6.86914e-05 0.0126689)
(-0.000204553 0.000203588 0.00740883)
(-8.20445e-05 0.000418177 0.0133579)
(0.000155742 0.000454394 0.0161652)
(3.01636e-05 -0.000439927 0.00351025)
(-0.00020206 -2.59682e-05 0.00575092)
(0.000270502 -0.000139245 0.00822349)
(0.00113606 -0.000241797 0.00920542)
(-0.000351008 -0.000136974 0.00774684)
(0.000119732 0.000220838 0.00823884)
(8.92514e-05 0.00029874 0.00510204)
(-5.85006e-05 0.000596699 0.00652454)
(3.20855e-05 -0.000265331 0.00862403)
(-6.58732e-05 0.000206613 0.00760792)
(-0.000204546 9.54426e-05 0.0114441)
(0.000289677 0.000162131 0.00833856)
(-7.18763e-05 4.16608e-06 0.00728088)
(0.000578235 -0.000266527 0.00677223)
(0.000361763 -0.000300779 0.00440748)
(-0.000670151 -0.000240896 0.00750417)
(-0.000457418 9.02624e-05 0.00342302)
(3.14985e-05 0.00111011 0.0126824)
(0.000133913 0.000383571 0.00537144)
(0.000663724 0.000396673 0.0158897)
(-0.000152572 0.000260688 0.00582127)
(-0.000161312 -0.000140957 0.00941317)
(0.000440325 -0.00101801 0.0126335)
(0.000372441 -0.000661581 0.00700563)
(0.00139511 0.00075371 0.0148613)
(6.96708e-05 0.000167366 0.00252443)
(-0.000804512 0.00120306 0.0114387)
(0.000246772 0.000550138 0.00630655)
(-0.000145383 0.000964299 0.00849909)
(-0.000157387 0.000442502 0.00510151)
(-9.57947e-06 0.000459811 0.00709109)
(0.000392785 0.000250192 0.00899672)
(0.000426403 0.000533064 0.00805803)
(0.00033291 -0.000200282 0.00497008)
(0.000686686 0.000390984 0.0096024)
(0.00010451 0.000613705 0.00799771)
(0.000620531 0.000573343 0.0189929)
(-0.000423715 0.000329678 0.00593972)
(-0.00028578 0.000374047 0.0104169)
(0.000297257 0.000318067 0.0064638)
(0.000136605 0.000686749 0.0061702)
(3.7198e-06 2.89573e-05 0.00688102)
(0.000253666 -0.000171799 0.00521904)
(-0.000100838 -0.000677591 0.00869615)
(0.000340434 8.62799e-05 0.0114249)
(-0.000220446 3.96832e-05 0.00556946)
(-1.19752e-05 -1.38601e-05 0.00624468)
(0.000997135 7.28119e-06 0.0102152)
(-3.02554e-05 7.34187e-05 0.00616653)
(-0.000632006 0.000182966 0.00781928)
(-0.000320638 0.000185973 0.0150514)
(-0.000148096 -9.33258e-05 0.00659652)
(0.000109877 0.000201763 0.00446557)
(-0.000488829 -0.000190657 0.00461916)
(-0.000559775 -0.00123529 0.005519)
(-0.000185633 -0.000459291 0.00415425)
(-7.41633e-05 -0.000850587 0.00670433)
(-3.14435e-05 -0.00043639 0.0053636)
(0.000142689 -0.000380326 0.00353309)
(4.83529e-05 -0.000144159 0.00478523)
(0.000137974 -0.000681748 0.00621403)
(-0.000697078 -0.000305046 0.00372804)
(-0.00119856 -0.000488081 0.00582296)
(8.76831e-06 -0.000256588 0.00319101)
(4.39668e-05 -0.000780067 0.00493495)
(-3.56571e-05 -0.000509282 0.00312238)
(0.000385075 -0.000795601 0.00394268)
(0.00052957 -0.000452657 0.00605686)
(0.000169423 0.000796846 0.00631396)
(-2.99059e-05 7.34314e-05 0.00356754)
(-0.000467872 0.000592261 0.00359819)
(-0.000738489 0.000327051 0.00551022)
(-0.000352092 -1.63268e-06 0.0041745)
(-0.000892308 -0.000654393 0.00795354)
(0.000345605 -0.000305446 0.00331319)
(0.000984101 2.93299e-05 0.00300256)
(0.00050954 5.08329e-05 0.00222074)
(-0.000166586 3.52701e-05 0.00585914)
(-0.000887839 -0.000459376 0.00500561)
(-0.00192877 0.000587259 0.0087491)
(-0.000374843 0.000244275 0.00234751)
(-0.000334238 0.000319302 0.00481368)
(0.000249469 0.000656624 0.00251005)
(0.000960883 0.0012474 0.00634811)
(0.000824229 -0.00054717 0.00752766)
(-0.000144962 -5.39418e-05 0.00233797)
(-0.000147362 -0.000197312 0.00253361)
(0.0003206 0.000127906 0.00383024)
(-0.000204349 0.000182539 0.00294011)
(-0.000201801 0.00160339 0.00966788)
(0.000846859 0.0011688 0.00399174)
(0.000151656 0.000669275 0.00281352)
(0.000315407 0.000224591 0.00454331)
(0.000144467 0.000313269 0.00369206)
(-0.00031582 6.92959e-05 0.0028396)
(-0.000164482 0.000153052 0.00216928)
(-3.48589e-05 0.000480133 0.00697607)
(0.000511102 0.000796124 0.00423203)
(0.000885547 0.00081032 0.00451542)
(0.000349423 2.68153e-05 0.00701486)
(4.79808e-05 0.000106402 0.0117363)
(-0.000324468 -0.000169933 0.00263593)
(-0.000231921 -0.000443122 0.00486317)
(0.000670514 0.000853621 0.00535903)
(0.000267466 0.000354174 0.00427684)
(0.000271485 0.000513711 0.00490107)
(0.000110741 0.000187725 0.00458043)
(-0.000300056 -0.00060856 0.00548106)
(0.000101753 -0.000625352 0.00475338)
(-0.000262655 -0.000331577 0.00508277)
(0.00058883 -0.000110392 0.00330958)
(0.00010649 -0.000139943 0.00106487)
(-0.000588057 9.25666e-05 0.0113655)
(0.000399707 -0.000129842 0.00519338)
(-0.000208229 -0.000259045 0.00283055)
(-4.81892e-06 -0.000255265 0.00336877)
(-0.00111606 -0.000567 0.00947015)
(-0.000748696 0.000728785 0.00514212)
(-0.000136625 0.000626406 0.00653072)
(4.34248e-05 -1.1574e-05 0.00656608)
(-0.000652386 -0.000208442 0.00666543)
(5.60047e-05 0.000102647 0.00501896)
(-0.00043768 -0.000233405 0.0034977)
(-0.000926709 0.000300875 0.00687518)
(0.000116964 -0.000211448 0.00565578)
(-0.000255756 -7.02982e-05 0.00714198)
(0.000208077 0.000358652 0.00306553)
(0.00158252 0.00102431 0.00625176)
(-1.68708e-05 0.00025484 0.00188883)
(0.000355121 -9.34231e-05 0.00261224)
(9.65165e-05 -0.000263551 0.00490477)
(-0.00029634 0.00016952 0.00518431)
(-0.00184616 -0.00170526 0.003884)
(-0.000906822 -0.00260406 0.00447278)
(0.000164423 1.79389e-05 0.00390622)
(-0.000260588 4.16521e-05 0.00396644)
(-0.000197377 -1.01781e-05 0.0044356)
(-0.00090731 -0.000365168 0.00579286)
(-0.000590971 0.000459691 0.00125631)
(-0.000325908 0.000300854 0.00414775)
(6.3424e-05 -0.00056025 0.00669671)
(6.33325e-05 0.000172209 0.00654452)
(-0.000155506 1.60878e-05 0.00793111)
(-0.000237484 0.000529546 0.00367072)
(-7.1849e-05 -0.000279228 0.000991087)
(-0.000559415 -0.00169084 0.00397769)
(-8.52196e-05 0.00228438 -0.00081217)
(0.000263164 0.00309374 0.00641463)
(0.00185014 0.00168533 0.00686011)
(-0.00170183 -0.00170415 0.00481399)
(-0.000531228 -0.000951597 0.0030487)
(-0.000116191 1.3712e-06 0.00500097)
(-5.7457e-05 -0.000172403 0.00937175)
(0.000159683 -0.000149796 0.00374275)
(0.000948438 -0.000412174 0.00523447)
(-0.000720446 0.000928659 0.00686382)
(-0.00292563 0.00117378 0.00363499)
(-5.05246e-05 -0.000100449 0.00450819)
(-0.00025612 -0.000427972 0.00530147)
(-0.000326119 4.75613e-06 0.00398102)
(-0.000449354 0.00107655 0.00399756)
(0.000257224 -0.00105839 0.00237569)
(-0.000176359 0.000484543 0.00610806)
(-3.93506e-05 0.000663991 0.00858959)
(-0.000585961 -0.000107319 0.0155971)
(0.000375023 -0.00049327 0.00591245)
(-0.00182941 0.00084685 0.00250159)
(-0.000381987 -0.000430515 0.00599721)
(-0.000173811 -0.000270803 0.0055354)
(-0.00226437 0.000367958 0.00637298)
(-1.55666e-05 6.99673e-05 0.00467188)
(-0.000344495 -0.000194522 0.00677728)
(0.000126877 0.000142127 0.00732145)
(0.000647145 -0.000485847 0.00495918)
(-0.00251663 -0.00220236 0.00215069)
(-0.000138133 6.88192e-05 0.00769341)
(-0.000901501 -0.000132812 0.004454)
(-0.00031619 -0.000676081 0.00588575)
(-0.000233449 8.12562e-05 0.00846977)
(0.00251587 0.0083166 0.00271649)
(-0.000309825 -0.000223459 0.00409787)
(9.43701e-05 0.000220553 0.00741715)
(0.000535144 0.000161788 0.00701493)
(0.000140293 -0.000361031 0.00482013)
(-3.24259e-05 0.000120098 0.00800739)
(0.000289967 -0.000248733 0.00580249)
(-0.000280044 0.000477507 0.00626135)
(-0.000521169 4.96966e-05 0.00926984)
(-0.000667036 0.000157281 0.00879159)
(5.8714e-06 0.000186786 0.00941319)
(0.000382913 1.08706e-05 0.00626312)
(0.000300047 -0.000243519 0.00781835)
(0.000361162 0.000174195 0.00576961)
(0.000595958 0.000280558 0.005492)
(-0.000215924 0.0016133 0.00807986)
(-0.00104952 0.000359428 0.00809492)
(-0.000494532 -0.000385156 0.00773679)
(-0.000182063 -0.000385607 0.00588645)
(0.000146241 -0.000434586 0.00605308)
(0.000311285 -0.000246845 0.00705559)
(0.000669533 5.63647e-06 0.00773001)
(0.00189518 6.62813e-05 0.0118615)
(0.000660072 0.000768628 0.0201653)
(-0.00213052 8.54114e-05 0.00564382)
(-0.00046575 -0.000450198 0.00479829)
(-0.000226044 -0.000370843 0.00635635)
(0.000217936 -9.62076e-05 0.00875399)
(0.000568854 -0.00026501 0.00765988)
(0.00084841 -0.000620565 0.00518014)
(0.00132617 -0.00172461 0.00964544)
(0.000598542 -0.00172754 0.0139064)
(-0.00089695 -0.000560548 0.00799743)
(2.13834e-05 9.17752e-05 0.00970817)
(0.000238189 -6.55423e-05 0.00745051)
(0.000143097 -2.52088e-05 0.00693041)
(-9.99835e-05 -0.000191308 0.00710845)
(0.000360116 -0.000592519 0.00811989)
(0.000398164 -0.00111066 0.00711643)
(-0.000322302 -0.00173161 0.0101937)
(-0.000458363 -0.000864053 0.00971629)
(-2.3726e-05 -0.000301518 0.00983506)
(0.000215579 -0.000201786 0.00511761)
(2.96591e-05 -0.000297812 0.00532708)
(-0.000113428 -0.000194806 0.00619902)
(-7.87702e-06 -0.000302577 0.00658965)
(-0.000142573 -0.000750474 0.00471806)
(-0.00059707 -0.00060982 0.00635924)
(-0.000422158 -7.33166e-05 0.00776185)
(-0.000240866 -3.46367e-05 0.0118842)
(0.000606257 -0.000234714 0.00851725)
(2.9411e-05 -4.83888e-05 0.00744205)
(-0.000373021 -0.0001183 0.00716982)
(-0.000381937 -2.12784e-05 0.00883762)
(-0.000397723 -0.000308133 0.0059136)
(-0.00024234 -0.000308025 0.00407859)
(-0.000505979 0.000113581 0.00539488)
(-0.0003268 0.000484723 0.00969066)
(0.000268657 -3.05672e-05 0.00911952)
(-0.000108493 -0.00014595 0.00800775)
(-0.000378183 0.000260016 0.00702022)
(-0.000555127 4.248e-05 0.00891324)
(-0.000574374 -0.000118656 0.00751396)
(-0.000303819 -4.90646e-05 0.00736838)
(-0.000365578 0.000455174 0.0127175)
(0.000653673 0.000829415 0.00210274)
(0.000457233 0.000457899 0.00238247)
(0.000364681 0.000387424 0.00221516)
(9.18114e-05 0.000420899 0.00193625)
(9.91371e-05 0.000583273 0.00212736)
(2.1042e-05 0.000216005 0.00161147)
(-0.000283142 -0.000177454 0.00173884)
(-0.000314178 -0.000199407 0.00221357)
(0.00011575 0.000369017 0.00229531)
(0.000400633 0.000414442 0.00246155)
(0.000347605 0.00032289 0.00201583)
(0.000159774 0.000223986 0.00198437)
(-8.02892e-06 0.000166331 0.00161615)
(-0.00043061 -0.000373442 0.00149765)
(-0.000366639 -0.000764432 0.00167913)
(-0.000282602 -9.22283e-05 0.00200283)
(0.000514102 0.000329652 0.0021216)
(0.000385845 0.000284477 0.00194925)
(0.000188131 6.22422e-05 0.00184898)
(-6.23703e-05 0.000114036 0.00174249)
(-0.000480636 0.000108887 0.00170413)
(-0.00089026 -0.000114791 0.00192551)
(7.10464e-05 -0.000157302 0.00162361)
(0.000376636 -8.362e-05 0.00152218)
(0.000326623 -0.00026268 0.00189968)
(0.00011361 -0.00016054 0.00204321)
(0.00015077 -9.43307e-05 0.00222278)
(0.000194203 -4.29779e-05 0.00185119)
(-0.000215125 -1.37344e-05 0.00140296)
(-0.000695395 0.000220323 0.00154285)
(-0.000248208 0.000515523 0.00164922)
(3.9786e-05 -0.000140298 0.00200126)
(0.000825923 -0.000601982 0.00266839)
(0.000583765 -0.000290493 0.00225879)
(0.000300084 -8.26684e-05 0.00196924)
(3.292e-05 -0.00010469 0.00197144)
(-0.00012528 -0.00017883 0.00199359)
(-0.000411868 0.000138457 0.00174382)
(-0.000458436 0.000336117 0.00220222)
(-2.60668e-05 -2.23412e-06 0.00270738)
(0.000786888 -0.00035245 0.00287267)
(0.000726944 -0.000378038 0.0021821)
(0.000342314 -0.000319961 0.00199372)
(8.60433e-05 -0.000310506 0.00198677)
(3.31033e-05 -0.000326227 0.00189717)
(-0.000231776 -9.85091e-05 0.00169703)
(-0.000548328 0.000179378 0.0021379)
(-0.000411359 4.5412e-05 0.00265846)
(0.000361175 -9.37554e-05 0.00328933)
(0.000653278 -0.000400764 0.00262788)
(0.000354569 -0.000436438 0.00225747)
(-1.21347e-05 -0.000456918 0.00235215)
(4.79158e-05 -0.000592942 0.00254315)
(2.96767e-05 -0.000540354 0.00216849)
(-0.000402366 -0.000420697 0.00207598)
(-0.000701685 -0.000482336 0.00240828)
(0.000229964 0.000109331 0.0027825)
(0.000401695 -0.000244305 0.00258052)
(0.000249118 -0.000349367 0.00228471)
(-0.000129361 -0.000279405 0.00243493)
(-0.00010359 -0.000481904 0.00271533)
(-8.17326e-05 -0.000499876 0.00256452)
(-0.00052348 -0.000530386 0.00267756)
(-0.000605684 -0.000296939 0.00316749)
(0.00013546 0.000376879 0.00408167)
(0.000197457 0.000222897 0.00395518)
(0.000178871 0.000178459 0.00380755)
(9.92765e-05 0.000179816 0.00374228)
(9.46866e-05 0.000199822 0.00377836)
(3.99663e-05 6.07534e-05 0.00365196)
(-5.48297e-05 -9.4145e-05 0.00375577)
(-6.85621e-05 -0.000144559 0.00388489)
(1.0941e-05 0.000186904 0.00395249)
(0.000152412 0.000186449 0.00387315)
(0.000157484 0.000147908 0.00367994)
(9.60993e-05 0.000111347 0.00364159)
(2.37633e-05 6.27962e-05 0.0035685)
(-0.000114614 -0.000111552 0.00364248)
(-0.000114817 -0.000214885 0.00392079)
(-9.6339e-05 -0.0001047 0.00391225)
(0.000156413 0.000124778 0.00385093)
(0.000156303 0.000115357 0.00366448)
(0.000108174 5.26058e-05 0.00356136)
(1.60507e-05 4.69532e-05 0.00354167)
(-0.000125725 2.73109e-05 0.00362806)
(-0.000235048 -4.93209e-05 0.00395401)
(-4.15478e-05 -9.08284e-05 0.00436788)
(5.39293e-06 -0.000109405 0.00387717)
(0.000103461 -0.000110481 0.00367559)
(7.80915e-05 -7.13379e-05 0.00361684)
(8.76612e-05 -5.35832e-05 0.00361908)
(7.0383e-05 -4.20807e-05 0.00352453)
(-7.01516e-05 -2.97078e-05 0.00346079)
(-0.000232208 2.82487e-05 0.00370764)
(-0.000167409 3.32343e-05 0.00405295)
(-0.000104328 -0.000133547 0.00394871)
(0.00025242 -0.00027945 0.00406229)
(0.000218004 -0.00017154 0.00376917)
(0.000137853 -0.000100046 0.00361698)
(4.14381e-05 -9.91414e-05 0.00355692)
(-4.91656e-05 -0.000111238 0.00359182)
(-0.000176803 -2.50715e-05 0.00364519)
(-0.00021332 1.22866e-05 0.00392111)
(-9.93352e-05 -7.56282e-05 0.00401799)
(0.000262768 -0.000173078 0.00419987)
(0.000272495 -0.000185676 0.00381608)
(0.00016205 -0.000171029 0.00363188)
(5.82972e-05 -0.000178174 0.00356939)
(3.62701e-06 -0.000193072 0.00355136)
(-0.000114446 -0.000110447 0.0035054)
(-0.000232028 -3.18997e-05 0.00370812)
(-0.00019763 -6.45858e-05 0.0039152)
(0.000126479 -3.38341e-05 0.00431854)
(0.000224644 -0.000151781 0.00402424)
(0.000144073 -0.000187936 0.00381476)
(1.50532e-05 -0.00022284 0.00376636)
(1.3954e-05 -0.00029398 0.00381925)
(-2.23497e-05 -0.000260294 0.00366305)
(-0.000178993 -0.000205098 0.00370213)
(-0.000256167 -0.000186103 0.0039206)
(2.99701e-05 6.47214e-05 0.00422939)
(0.000121778 -7.82344e-05 0.00408192)
(8.56311e-05 -0.000124716 0.00392501)
(-5.37061e-05 -0.000148077 0.00389852)
(-3.96991e-05 -0.000239162 0.00402831)
(-2.99639e-05 -0.000234841 0.00391705)
(-0.000163361 -0.000207606 0.00400374)
(-0.00016919 -8.48013e-05 0.00427473)
(9.0279e-05 0.000214773 0.00382104)
(0.000123905 0.000135895 0.0037736)
(0.000107363 0.000104217 0.00371472)
(7.54586e-05 9.00235e-05 0.00368228)
(5.86852e-05 7.49911e-05 0.00367513)
(2.53391e-05 2.21504e-05 0.00363302)
(-1.23055e-05 -3.89505e-05 0.00365594)
(-3.39209e-05 -6.7776e-05 0.00367634)
(3.39016e-05 0.000126117 0.00375109)
(8.66121e-05 0.000105259 0.0037271)
(8.56121e-05 8.18654e-05 0.00366903)
(5.67756e-05 6.08172e-05 0.0036416)
(1.92137e-05 3.042e-05 0.00362025)
(-3.2774e-05 -3.01464e-05 0.00363442)
(-4.57301e-05 -7.13228e-05 0.00370528)
(-4.8942e-05 -6.81681e-05 0.00370866)
(6.42015e-05 5.99091e-05 0.00372163)
(7.96365e-05 5.34487e-05 0.00366964)
(6.49599e-05 3.3898e-05 0.00362964)
(2.53018e-05 2.2535e-05 0.00361325)
(-3.12866e-05 5.46794e-06 0.00363249)
(-7.53705e-05 -2.67091e-05 0.00371019)
(-4.88736e-05 -5.14471e-05 0.00379878)
(-4.36019e-05 -6.94888e-05 0.00372006)
(5.11377e-05 -4.22622e-05 0.00367359)
(5.95678e-05 -3.03878e-05 0.00365265)
(5.47602e-05 -2.66531e-05 0.0036378)
(2.86025e-05 -2.68044e-05 0.00360776)
(-2.9604e-05 -2.67306e-05 0.00359423)
(-8.94941e-05 -2.01431e-05 0.00365643)
(-8.8258e-05 -3.12209e-05 0.00375266)
(-7.46764e-05 -7.11616e-05 0.0037604)
(9.22052e-05 -0.000115168 0.00379809)
(9.56444e-05 -8.67173e-05 0.00371341)
(6.86943e-05 -6.78806e-05 0.00365859)
(2.53984e-05 -6.67021e-05 0.00363095)
(-2.4223e-05 -6.76955e-05 0.0036353)
(-8.0182e-05 -4.65779e-05 0.00366058)
(-0.000100654 -3.89754e-05 0.00374803)
(-7.57139e-05 -6.03635e-05 0.00379394)
(9.84125e-05 -8.51799e-05 0.00386527)
(0.000109575 -9.3756e-05 0.00375457)
(7.52541e-05 -9.44374e-05 0.00368414)
(2.87635e-05 -0.000101215 0.00365299)
(-9.56149e-06 -0.000107719 0.00364594)
(-6.1368e-05 -8.24654e-05 0.00364118)
(-0.000103221 -6.06762e-05 0.00371066)
(-9.74558e-05 -6.6647e-05 0.00378532)
(5.91459e-05 -3.44169e-05 0.00390088)
(8.76941e-05 -7.45973e-05 0.00381992)
(6.12449e-05 -9.42509e-05 0.00375034)
(1.17618e-05 -0.000115225 0.00372662)
(-5.93535e-06 -0.000140946 0.00374084)
(-3.38782e-05 -0.000126988 0.00370422)
(-8.67024e-05 -0.000105287 0.00373442)
(-0.000109924 -9.06276e-05 0.003808)
(2.10586e-05 -1.48471e-06 0.00386926)
(5.06346e-05 -4.55431e-05 0.00383894)
(3.35198e-05 -6.30053e-05 0.0037895)
(-1.83274e-05 -8.55454e-05 0.00378083)
(-2.18752e-05 -0.000118799 0.00382633)
(-2.646e-05 -0.000114486 0.00379624)
(-6.78465e-05 -9.49628e-05 0.00382749)
(-7.74511e-05 -4.86787e-05 0.00389256)
(4.39418e-05 0.000104513 0.00381114)
(6.61492e-05 7.21426e-05 0.0037757)
(6.16952e-05 5.5538e-05 0.00374259)
(4.90186e-05 4.35008e-05 0.00372107)
(3.66303e-05 2.97402e-05 0.00370866)
(1.95106e-05 6.38869e-06 0.00369401)
(2.45522e-06 -2.0065e-05 0.00369944)
(-1.1845e-05 -3.78453e-05 0.00370625)
(2.30625e-05 6.8108e-05 0.00376106)
(4.71741e-05 5.50973e-05 0.00374218)
(4.78265e-05 4.21025e-05 0.00371565)
(3.49411e-05 2.91586e-05 0.00369831)
(1.60986e-05 1.23211e-05 0.0036893)
(-5.90011e-06 -1.22559e-05 0.00369325)
(-1.65326e-05 -3.30214e-05 0.00371537)
(-2.26682e-05 -4.32839e-05 0.00372316)
(2.71164e-05 2.95957e-05 0.00374071)
(4.01868e-05 2.52272e-05 0.00371784)
(3.672e-05 1.65253e-05 0.00369656)
(2.00603e-05 7.72467e-06 0.00368457)
(-4.18472e-06 -3.69881e-06 0.00368793)
(-2.53726e-05 -1.92111e-05 0.00371044)
(-2.81268e-05 -3.34093e-05 0.00373883)
(-3.03301e-05 -4.49428e-05 0.00373696)
(2.37053e-05 -1.58927e-05 0.0037268)
(3.34974e-05 -1.3848e-05 0.00371061)
(3.0392e-05 -1.50223e-05 0.00369509)
(1.4906e-05 -1.83118e-05 0.00368176)
(-1.06626e-05 -2.22754e-05 0.00368031)
(-3.5553e-05 -2.55676e-05 0.00370224)
(-4.24402e-05 -3.29391e-05 0.00373739)
(-4.13398e-05 -4.46947e-05 0.00375402)
(3.36513e-05 -4.81284e-05 0.00376816)
(4.10415e-05 -4.24879e-05 0.00373534)
(3.22922e-05 -3.94773e-05 0.00370941)
(1.28505e-05 -4.08458e-05 0.00369495)
(-1.13968e-05 -4.24114e-05 0.00369509)
(-3.60809e-05 -3.87636e-05 0.00370946)
(-4.74871e-05 -3.81062e-05 0.0037434)
(-4.36559e-05 -4.35626e-05 0.00376823)
(3.52308e-05 -4.34861e-05 0.003799)
(4.29748e-05 -4.87694e-05 0.00375984)
(3.21741e-05 -5.21176e-05 0.00372902)
(1.19839e-05 -5.68672e-05 0.00371316)
(-8.59657e-06 -6.01953e-05 0.00371068)
(-3.13401e-05 -5.37171e-05 0.00371602)
(-4.76126e-05 -4.72966e-05 0.00374496)
(-4.80262e-05 -4.69544e-05 0.00377645)
(2.22572e-05 -2.54564e-05 0.003815)
(3.2917e-05 -4.08338e-05 0.00378596)
(2.42276e-05 -5.07553e-05 0.00375825)
(4.74709e-06 -6.12698e-05 0.00374661)
(-8.31226e-06 -7.06188e-05 0.00375007)
(-2.33337e-05 -6.58612e-05 0.00374596)
(-4.13841e-05 -5.69043e-05 0.00376478)
(-4.92249e-05 -4.83179e-05 0.00379534)
(5.87685e-06 -1.1623e-05 0.00381116)
(1.77903e-05 -2.80259e-05 0.00379764)
(1.14201e-05 -3.59593e-05 0.00377794)
(-7.80905e-06 -4.845e-05 0.00377434)
(-1.32023e-05 -6.09211e-05 0.00378882)
(-1.77701e-05 -5.84377e-05 0.00378437)
(-3.02769e-05 -4.79139e-05 0.00379943)
(-3.54485e-05 -2.8701e-05 0.00382245)
(2.25165e-05 5.04028e-05 0.00379191)
(3.53415e-05 3.67002e-05 0.00377375)
(3.54945e-05 2.80901e-05 0.00375611)
(3.05195e-05 2.03865e-05 0.0037426)
(2.33954e-05 1.17648e-05 0.00373319)
(1.42452e-05 5.18031e-07 0.00372609)
(5.02498e-06 -1.18373e-05 0.00372564)