/*--------------------------------*- C++ -*----------------------------------*\
| =========                 |                                                 |
| \\      /  F ield         | OpenFOAM: The Open Source CFD Toolbox           |
|  \\    /   O peration     | Version:  2506                                  |
|   \\  /    A nd           | Website:  www.openfoam.com                      |
|    \\/     M anipulation  |                                                 |
\*---------------------------------------------------------------------------*/
FoamFile
{
    version     2.0;
    format      ascii;
    arch        "LSB;label=32;scalar=64";
    class       volVectorField;
    location    "0.01";
    object      Us;
}
// * * * * * * * * * * * * * * * * * * * * * * * * * * * * * * * * * * * * * //

dimensions      [0 1 -1 0 0 0 0];

internalField   nonuniform List<vector> 
4608
(
(-1.22831e-05 -4.10865e-05 1.73587e-05)
(-9.75664e-06 -3.81862e-05 1.5454e-05)
(-4.04044e-05 -9.47868e-05 -9.8309e-07)
(-2.14876e-05 -5.10327e-05 -1.3644e-05)
(4.16172e-05 -6.12987e-05 -3.06994e-05)
(1.66845e-05 -6.78005e-05 -2.8103e-05)
(-1.51503e-05 -4.42145e-05 4.1202e-06)
(-2.19077e-05 -6.99009e-05 1.79337e-05)
(5.33165e-07 -3.12287e-05 -4.60745e-06)
(-4.96217e-05 -6.00673e-05 -2.19581e-05)
(-4.60398e-05 -0.000416056 -2.47557e-05)
(-5.84588e-05 -9.67288e-05 -1.93008e-06)
(-8.10849e-06 -6.41715e-05 -4.95983e-05)
(1.00895e-05 2.18044e-06 5.66589e-06)
(3.44342e-05 -5.59388e-05 1.39658e-05)
(2.13815e-05 -3.83753e-05 -9.29916e-06)
(-1.79227e-05 -1.90402e-05 8.89841e-06)
(-2.20864e-05 -3.64116e-06 6.92033e-06)
(-6.1891e-05 -3.14988e-05 -9.51893e-06)
(-3.4241e-05 -5.72481e-05 1.73097e-05)
(-3.54406e-05 -4.72604e-05 -3.95376e-06)
(1.12168e-05 -2.99914e-05 1.48891e-05)
(7.35668e-05 -6.48371e-06 3.02782e-05)
(5.90688e-05 -5.43128e-06 -5.43562e-06)
(-4.38306e-05 -6.75042e-05 -7.25472e-06)
(-1.35797e-05 -1.44475e-05 -4.21647e-06)
(-1.01267e-05 -1.80734e-05 6.09852e-06)
(-2.69804e-05 1.85652e-05 -8.50513e-06)
(3.21048e-05 -7.22073e-05 -2.35223e-05)
(5.65724e-05 -2.33546e-05 4.91645e-06)
(7.31054e-05 -2.43694e-06 -1.56496e-05)
(0.000161225 2.61105e-05 -1.28997e-06)
(-3.33326e-05 -1.73643e-05 -1.01726e-06)
(-3.02573e-05 -1.81502e-06 2.73456e-05)
(-4.86411e-05 -1.1645e-06 -1.51206e-05)
(-1.07999e-05 -2.97309e-05 5.8544e-06)
(3.98454e-05 -2.89731e-05 -3.43152e-05)
(9.39586e-05 9.24174e-06 3.87707e-06)
(0.000255873 9.78126e-05 -1.51085e-05)
(0.000107456 0.000106067 -4.49005e-07)
(-3.1965e-05 9.48693e-07 2.9861e-05)
(-6.62639e-05 3.63337e-05 3.95079e-05)
(-6.31798e-05 9.4279e-05 7.0122e-06)
(1.50136e-05 -5.15286e-05 2.7569e-05)
(3.79645e-05 1.82224e-05 2.75594e-06)
(7.36766e-05 3.11121e-06 -7.69822e-06)
(0.000146109 0.000127803 1.3461e-06)
(0.000103812 0.000134496 -6.37461e-06)
(-2.25332e-05 8.91489e-06 2.71653e-05)
(-0.000100535 0.000147991 2.93159e-05)
(-5.66352e-05 0.000111022 2.6252e-06)
(7.91493e-05 3.44399e-05 -7.56519e-06)
(7.42855e-05 5.02943e-06 3.89909e-05)
(0.000109353 0.000173601 2.6511e-06)
(0.000172967 0.000265227 3.92752e-05)
(8.13618e-05 0.000149518 2.64779e-05)
(2.61323e-05 -1.22904e-05 7.41178e-07)
(-1.98872e-05 0.000313602 3.28653e-05)
(1.22008e-05 9.98762e-05 6.42116e-06)
(-3.60452e-05 0.000274057 1.77332e-05)
(0.000229827 0.000134367 -6.70541e-05)
(0.000179157 0.000157837 4.27326e-06)
(0.000126369 0.000377331 5.45515e-05)
(7.86855e-05 0.000184006 4.07763e-05)
(-2.81907e-05 -8.83189e-05 5.74184e-05)
(-7.65502e-05 -0.000119361 1.76172e-05)
(-7.08454e-05 -0.000165624 3.50681e-05)
(-7.50582e-05 -0.000144464 -2.69996e-05)
(-7.50615e-05 -0.000111851 -4.12661e-05)
(-3.28564e-05 -0.000136801 -2.26633e-05)
(-3.6348e-05 -8.89577e-05 3.70085e-05)
(-1.92204e-05 -6.14551e-05 2.006e-05)
(-8.68774e-05 -6.43265e-05 -3.39403e-06)
(-7.76649e-05 -0.00017443 1.51331e-05)
(-8.29948e-05 -0.000145977 -2.3183e-05)
(-7.60415e-05 -0.000145529 -2.57005e-05)
(-5.32125e-05 -0.000146511 -0.00010072)
(2.43517e-05 -7.97679e-05 -5.39033e-05)
(4.98224e-05 -7.10286e-05 2.92876e-05)
(4.37617e-05 -7.61198e-05 -4.0891e-05)
(-9.51221e-05 -2.73809e-05 1.24102e-06)
(-2.24691e-05 -0.000176747 1.669e-06)
(-3.68164e-05 -0.000157248 -7.82254e-05)
(-5.83641e-05 -0.000210833 -9.67872e-05)
(4.91252e-05 -9.36189e-05 -0.000107501)
(9.86913e-05 -3.19536e-05 -6.41871e-05)
(0.000114599 -4.1214e-05 3.44141e-06)
(9.86207e-05 -4.74145e-05 -7.0569e-06)
(-0.000107694 1.5125e-06 -3.9421e-05)
(-4.20072e-05 -6.78175e-05 -1.44079e-05)
(2.07193e-06 -0.000111644 -4.51334e-05)
(1.00111e-05 -7.97728e-05 -0.000178356)
(8.38482e-05 -1.82156e-05 -0.000184516)
(0.000120008 1.99667e-05 -9.96502e-05)
(0.000160159 2.66438e-05 -5.16493e-05)
(0.000147874 -3.66781e-05 -6.73198e-05)
(-0.000128076 0.000159711 -3.62824e-05)
(-4.89492e-05 -6.18974e-06 -2.38133e-05)
(-3.37479e-05 9.36512e-05 -0.000117565)
(1.58824e-05 6.03462e-05 -0.000146164)
(7.93731e-05 8.19505e-05 -0.000140984)
(0.000162581 5.91636e-05 -7.95063e-05)
(0.000202795 9.04443e-05 -9.26007e-05)
(0.000253074 0.000176764 -1.92033e-05)
(-0.000117358 -1.76164e-05 1.73099e-05)
(-0.000113385 4.31688e-06 5.64725e-07)
(-9.56842e-06 8.38837e-05 -3.47702e-05)
(1.23959e-05 0.000102267 -0.000101486)
(6.20732e-05 0.000176518 -7.62361e-05)
(0.00017479 0.000109692 -5.05006e-05)
(0.000218105 0.000154633 -5.63607e-05)
(0.000158052 0.000199161 3.68959e-05)
(-4.68661e-05 3.83215e-05 -2.74313e-05)
(6.68524e-05 0.000116845 -0.000104359)
(-5.48157e-06 0.00012693 -2.63233e-05)
(3.96695e-05 0.000115561 -4.20747e-05)
(0.000151909 0.000121297 -6.95442e-06)
(8.74417e-05 0.000124702 -6.53816e-05)
(0.000165851 0.000244548 -2.02825e-05)
(0.000137035 0.000191604 2.63259e-05)
(-4.33238e-05 1.41281e-05 2.34237e-05)
(-0.000103227 0.000182063 -3.3685e-05)
(4.63946e-05 0.000171397 4.22701e-05)
(4.2397e-05 0.000166954 -7.06655e-06)
(5.38759e-05 0.000134941 -6.83773e-05)
(9.54202e-05 0.000188765 -3.398e-05)
(0.000128009 0.000244579 2.0585e-05)
(8.84876e-05 0.000159531 5.8831e-05)
(-7.85319e-05 -0.000116158 5.79943e-05)
(-3.5646e-05 -0.000143895 5.16434e-05)
(-4.94454e-05 -0.000177639 1.26717e-05)
(-7.51264e-05 -0.000174293 -3.84776e-05)
(-9.18872e-06 -0.000185232 -7.73991e-05)
(5.97099e-06 -0.000131244 -8.9889e-05)
(-7.32792e-05 -0.000120733 7.16518e-05)
(5.12647e-06 -0.000134229 4.40575e-05)
(-0.000134496 -7.67519e-05 -4.04757e-05)
(-9.98569e-05 -0.000141992 -0.000133903)
(-3.4006e-05 -0.000103335 -8.47967e-05)
(-3.37318e-05 -0.000160183 -0.000133408)
(4.78026e-05 -0.000164092 -0.000205615)
(6.95321e-05 -0.000109698 -0.00014468)
(4.09977e-05 -0.000160427 -6.45463e-05)
(1.8192e-05 -0.000123514 -3.55075e-05)
(-0.000114503 -4.81779e-05 -9.77204e-05)
(-8.31548e-05 -0.000179315 -0.00020868)
(-2.29842e-05 -6.11895e-05 -0.000251958)
(3.93086e-05 -0.000133915 -0.000268665)
(8.00896e-05 -0.000114423 -0.000264823)
(0.000100436 -8.8555e-05 -0.000306603)
(8.47683e-05 -9.20566e-05 -0.000121632)
(9.19176e-05 -9.17892e-05 -3.42531e-05)
(-9.37886e-05 -3.77448e-05 -0.000144709)
(-7.32031e-05 -6.78553e-06 -0.000293593)
(2.34265e-05 -3.3306e-06 -0.000327452)
(0.000133828 -7.44975e-05 -0.000407352)
(0.000145236 -2.07673e-05 -0.000295515)
(0.000116397 -5.40089e-06 -0.00027776)
(0.000164309 -1.37105e-05 -0.000170082)
(0.000116317 -1.61658e-06 -0.000100897)
(-0.000120531 -5.50017e-06 -9.49033e-05)
(-7.64881e-05 0.000120241 -0.000200639)
(4.56665e-05 5.23716e-05 -0.000322077)
(0.000122533 9.71997e-07 -0.000407192)
(0.000112536 5.8811e-05 -0.000373498)
(0.000140005 0.000118568 -0.000321616)
(0.000142696 8.98823e-05 -0.000248611)
(8.818e-05 0.000146671 -0.000106822)
(-0.000103863 2.9018e-06 -6.52101e-05)
(-3.60329e-05 3.03829e-05 -0.000150185)
(2.09212e-05 8.03731e-05 -0.000159406)
(1.79131e-05 0.000162181 -0.000262211)
(5.74291e-05 0.00018432 -0.000208122)
(0.000193863 0.000226027 -0.000230185)
(0.000168954 0.000136218 -9.58499e-05)
(0.000123153 0.000167357 6.8711e-06)
(-0.000120981 -4.94263e-06 4.20961e-06)
(-5.68223e-05 4.93662e-06 -7.60094e-05)
(-4.58112e-05 0.00013566 -0.000129688)
(6.64166e-06 0.000230091 -0.000176141)
(7.35967e-05 0.000204736 -0.000180611)
(0.00013269 0.000203496 -0.000180145)
(0.000126834 0.000195029 -5.55244e-05)
(0.000130132 0.0001581 5.24253e-05)
(-0.000126564 5.55993e-05 2.72279e-05)
(-0.00011468 3.60883e-05 -5.23722e-05)
(-2.94712e-05 0.000144447 -5.05727e-05)
(7.57374e-06 0.000256657 -6.01887e-05)
(6.15605e-05 0.00022804 -0.000110351)
(9.64981e-05 0.000210099 -8.73255e-05)
(8.91657e-05 0.000181155 -1.65878e-05)
(8.62407e-05 0.000124059 0.000109939)
(-7.8255e-05 -5.16736e-05 6.89931e-05)
(-7.03103e-05 -6.95987e-05 -9.9744e-05)
(-1.19638e-05 -0.000112546 -0.000109114)
(-2.35525e-05 -0.0001412 -0.000114402)
(8.73075e-05 -0.000145502 -0.000180326)
(1.78399e-05 -0.000108103 -0.000199773)
(1.38126e-05 -0.000129842 -2.75818e-05)
(3.30234e-05 -0.000135094 6.80145e-05)
(-0.000164665 -4.85488e-05 -6.97318e-05)
(-0.000164525 -8.70899e-06 -0.00027445)
(-4.78305e-05 -1.30955e-05 -0.000281796)
(1.1549e-05 -0.000106537 -0.000372012)
(6.79133e-05 -9.58153e-05 -0.000390232)
(4.54156e-05 -9.45592e-05 -0.000310208)
(4.9388e-05 -0.000119996 -0.000166728)
(8.51125e-05 -0.000146466 2.331e-06)
(-2.77037e-05 -2.8815e-05 -0.000166545)
(-0.000117114 -4.60082e-07 -0.000398752)
(-3.16586e-05 -8.31713e-06 -0.000508498)
(4.82315e-07 -6.34029e-05 -0.000503407)
(2.79355e-05 -4.98667e-05 -0.000529541)
(6.28026e-05 -5.79879e-06 -0.000517844)
(8.48911e-05 -4.99939e-05 -0.000337225)
(6.39985e-05 -8.81201e-05 -0.000115466)
(-5.33536e-05 1.93028e-05 -0.000266489)
(-5.67289e-05 4.37629e-05 -0.000438994)
(-1.66281e-05 1.54076e-05 -0.000568261)
(-1.20709e-05 -5.40156e-05 -0.000622678)
(-4.07363e-05 -3.84324e-06 -0.00050474)
(-2.5467e-05 1.99923e-05 -0.000570221)
(0.000120852 2.72593e-06 -0.000378547)
(9.13277e-05 4.92892e-05 -0.000144702)
(-0.00011437 4.89733e-05 -0.000210102)
(-6.91628e-05 2.44961e-05 -0.000394122)
(-4.73225e-05 2.64107e-05 -0.000568772)
(-2.81069e-05 4.66793e-05 -0.000643016)
(5.48119e-05 6.47034e-05 -0.000601943)
(0.000162818 0.000166508 -0.000590277)
(0.000114286 9.19754e-05 -0.000348323)
(1.75794e-05 6.6779e-05 -0.000164678)
(-0.000120393 3.52014e-05 -0.000126743)
(-6.21395e-05 1.693e-05 -0.00024926)
(-2.73067e-05 8.11163e-05 -0.000394534)
(3.76231e-05 0.000117345 -0.000516549)
(4.0899e-05 9.95195e-05 -0.000480464)
(0.000161303 0.000114754 -0.000410424)
(9.67945e-05 0.000125985 -0.000201663)
(0.000109699 9.36878e-05 -5.30344e-05)
(-4.74564e-05 -1.11267e-05 1.83604e-05)
(-5.63229e-05 5.09481e-05 -0.000132474)
(-4.93249e-05 0.000167236 -0.000280221)
(1.65304e-05 0.000159228 -0.000336629)
(9.40535e-06 0.000171245 -0.000332336)
(3.06871e-05 0.000167946 -0.000272207)
(6.78138e-05 0.000161602 -0.000111698)
(0.000113054 0.000116059 -1.59074e-06)
(-2.10787e-05 3.65271e-05 7.94449e-05)
(-8.66805e-06 2.13928e-06 0.00011241)
(-0.000143967 0.000173977 -0.000126735)
(1.78864e-05 0.000175045 -0.000124811)
(1.06978e-05 0.000177391 -0.000113736)
(3.59797e-05 0.000147069 -0.000111926)
(5.66663e-05 4.16359e-05 -3.31704e-05)
(0.000180298 -4.84149e-05 0.000181606)
(-0.000156017 5.04544e-05 5.81866e-05)
(-0.000140599 8.70562e-05 -0.000287582)
(-0.000124577 3.94319e-06 -0.000274367)
(-9.7378e-05 2.84564e-05 -0.000318066)
(2.00532e-05 -8.51182e-05 -0.000358886)
(-2.17821e-05 -2.15411e-05 -0.000272714)
(2.04522e-05 2.22066e-05 -0.000150028)
(6.85985e-05 0.000102295 5.69117e-05)
(-0.00010106 5.17867e-05 -0.000137784)
(-7.80268e-05 8.0866e-05 -0.000404166)
(-4.93222e-05 -2.08664e-05 -0.00052705)
(2.91103e-05 -4.8031e-05 -0.000518439)
(0.000131159 -0.000132663 -0.000454431)
(-3.43337e-05 -1.36805e-05 -0.000425525)
(-5.58631e-05 8.27539e-06 -0.000247561)
(-2.61564e-05 6.4711e-06 -1.96095e-05)
(-5.61853e-05 7.75515e-05 -0.000312071)
(-3.25833e-05 3.49374e-05 -0.000494784)
(1.69716e-06 -5.06766e-05 -0.000610787)
(2.20531e-05 -5.10414e-05 -0.000715851)
(9.84854e-05 -3.49796e-05 -0.000737472)
(5.6095e-05 -1.67053e-05 -0.000642214)
(-3.62411e-06 2.22945e-05 -0.000463449)
(-4.79475e-05 3.04405e-05 -0.000242538)
(5.2989e-05 3.88609e-05 -0.000335192)
(7.81051e-05 -4.16544e-05 -0.000559388)
(4.49208e-05 -6.90353e-05 -0.000686102)
(-3.24147e-05 -8.73883e-05 -0.000877053)
(-6.93122e-05 3.89643e-05 -0.000900561)
(-2.62482e-06 3.51328e-05 -0.000731387)
(-3.51183e-05 7.93789e-05 -0.00055848)
(-5.16932e-05 7.68161e-05 -0.000273163)
(4.3675e-05 -2.49979e-06 -0.000264758)
(6.6299e-05 -2.23441e-05 -0.000470209)
(3.45764e-05 -5.70988e-05 -0.000669549)
(-1.48263e-05 -8.81014e-06 -0.000831211)
(1.11928e-05 6.13531e-05 -0.000807986)
(-4.24092e-06 -2.29411e-06 -0.000680739)
(1.07543e-05 4.60003e-06 -0.000505409)
(5.20022e-06 2.49533e-06 -0.000267156)
(1.40938e-05 2.226e-05 -0.000150239)
(5.65453e-05 2.40494e-05 -0.000353425)
(2.33122e-05 2.30707e-06 -0.000594016)
(4.90374e-05 1.23473e-05 -0.00068377)
(3.77715e-05 1.39753e-05 -0.000699724)
(4.36212e-06 -6.11873e-06 -0.000520968)
(4.90266e-05 3.04027e-05 -0.000311762)
(2.64143e-05 3.33697e-05 -0.000177242)
(-3.52633e-05 1.06404e-05 -1.96159e-05)
(-1.38317e-06 5.73383e-05 -0.000235791)
(3.15803e-05 -5.70489e-05 -0.000442183)
(-3.63169e-05 -1.91205e-05 -0.00046855)
(-3.01859e-05 9.58996e-06 -0.000374305)
(-1.45458e-06 3.15805e-06 -0.000366267)
(2.73435e-05 1.80416e-05 -0.000192438)
(5.55697e-05 2.88378e-05 -5.85056e-05)
(-1.68916e-05 4.16425e-05 8.49304e-05)
(-5.20099e-05 2.65813e-05 4.65183e-05)
(3.33113e-06 -2.85782e-05 -0.000288425)
(-2.19891e-05 -5.28447e-05 -0.000337697)
(-2.77198e-05 -3.90285e-05 -0.000183337)
(-1.08481e-05 2.14877e-05 -9.83278e-05)
(4.37647e-06 -5.57432e-05 2.84035e-05)
(1.92885e-07 -5.91403e-05 0.000145176)
(-3.90442e-05 0.000147449 -1.65764e-05)
(-0.000158541 0.000138052 -0.000386461)
(-1.71693e-05 -7.62726e-05 -0.000313443)
(-4.28841e-05 0.000190786 -0.000387222)
(-3.14211e-05 3.05072e-05 -0.000345244)
(6.53337e-05 4.95549e-05 -0.00043591)
(-4.06444e-05 0.000437584 -0.00019647)
(0.000168978 0.000205327 -7.68029e-05)
(0.000102167 5.73928e-05 -0.000193486)
(-0.000189951 1.29743e-05 -0.000565847)
(4.93549e-05 -1.64295e-05 -0.000608258)
(-5.02822e-05 0.000188998 -0.00062364)
(-0.000114109 5.16221e-05 -0.000654973)
(-0.000115616 4.64823e-05 -0.000503129)
(7.31637e-05 0.000127379 -0.000275516)
(-3.85138e-05 0.00019658 -9.23928e-05)
(0.000115297 3.74054e-05 -0.000379138)
(9.32682e-05 3.28743e-05 -0.00047438)
(0.00013594 -0.000134301 -0.000697624)
(-4.49267e-05 4.03702e-05 -0.000840939)
(-0.000104367 0.000130892 -0.00098337)
(-5.60077e-05 -1.87346e-05 -0.00073353)
(-5.08804e-05 4.81596e-05 -0.000643226)
(-0.000154411 0.000130333 -0.000361574)
(0.000358354 -8.03681e-05 -0.000290921)
(0.000287555 -6.99642e-06 -0.00056761)
(0.000113944 -8.66971e-05 -0.000700341)
(-1.96939e-05 -2.83106e-05 -0.000951086)
(-8.55558e-05 -9.70647e-05 -0.000986352)
(-9.68372e-05 -0.000105374 -0.000868576)
(-0.000123427 4.14607e-05 -0.000654507)
(-0.000196881 4.1481e-05 -0.00043142)
(0.000355434 -6.90904e-05 -0.000369099)
(0.000244615 -0.000114102 -0.000463934)
(0.00013419 -0.000141768 -0.000808797)
(4.03579e-05 -0.000128094 -0.000959385)
(-8.62507e-05 -0.000145755 -0.000968384)
(-0.000178284 -0.000172993 -0.000742326)
(-9.6848e-05 3.76108e-05 -0.000486426)
(-0.000332149 4.83864e-05 -0.000321305)
(0.000201694 3.71833e-06 -0.000264383)
(0.000247836 -4.99933e-05 -0.000419063)
(0.000131785 -8.04632e-05 -0.000635588)
(5.75297e-05 -0.00012753 -0.000791675)
(-0.000122338 -0.000166079 -0.000875232)
(-9.40883e-05 -6.82745e-05 -0.000627875)
(-1.50135e-06 -1.80701e-05 -0.000381477)
(-0.000167314 -3.35747e-05 -0.000234386)
(0.000112499 -8.80247e-05 -7.74399e-05)
(0.000134436 -0.000138938 -0.000357829)
(0.000229114 -0.000284163 -0.000568706)
(9.60398e-05 -0.000115596 -0.000493621)
(3.60068e-05 -0.000119621 -0.000546066)
(-0.000118757 -0.000120675 -0.000353232)
(-0.000102994 -0.000130982 -0.000203968)
(-0.000106613 -8.85865e-05 -0.000113299)
(0.000131701 -6.73127e-05 8.7306e-05)
(0.000124929 -1.25206e-05 -0.00022048)
(0.000445273 -0.00032255 -0.000192108)
(4.00505e-05 -0.000149702 -0.000341012)
(-6.37626e-05 -0.000240445 -0.000316206)
(-0.00010985 -0.000219785 -0.000279627)
(-0.000103923 -8.65434e-05 -5.49026e-05)
(-0.000115748 -0.000210917 0.000154632)
(0.000105726 -0.000104804 -0.000560318)
(-0.000291857 0.000651793 -0.000386942)
(-0.000457557 0.000454888 -0.000578193)
(0.000125907 0.000286194 -0.000395568)
(-0.000317316 -0.000184365 -0.00030514)
(-9.98133e-05 0.0002512 -0.000461668)
(-0.000450058 -0.000299612 -0.00011704)
(-0.000863759 0.000404537 -3.81641e-07)
(0.000308146 -1.50889e-06 -0.000529539)
(-0.000347904 -0.000178227 -0.00128306)
(0.000240179 0.000370317 -0.000676663)
(0.00174495 0.00143989 -0.00173344)
(-7.6512e-05 0.000278435 -0.000666306)
(0.000272854 -4.47832e-05 -0.00060898)
(0.000121592 7.70984e-05 3.74461e-05)
(-0.000144816 5.15536e-06 -9.07885e-05)
(-0.0019649 -0.00171284 -0.0020813)
(-0.000955603 -0.00265748 -0.00127972)
(0.000304808 0.000228603 -0.000875334)
(-0.000219069 8.30369e-05 -0.000768224)
(-0.000199631 1.32968e-05 -0.00092854)
(-0.00082122 -9.30898e-05 -0.000835647)
(-0.000697108 0.000605453 -0.00173998)
(-0.000521224 0.000263377 -0.000575858)
(0.000410095 -0.000304258 -0.000316244)
(0.00053431 0.000595633 -0.00085492)
(0.000103251 6.0157e-05 -0.000973949)
(-0.000283583 0.00054082 -0.00128142)
(-4.06844e-05 -0.000273654 -0.00126101)
(-0.000435718 -0.0017502 -0.00135893)
(-0.000284443 0.00238316 -0.00505252)
(-0.00038874 0.0032326 -0.003504)
(0.00203628 0.00169756 -0.000198545)
(-0.00192059 -0.00214398 -0.00105032)
(-0.000524588 -0.00115823 -0.00309276)
(-2.84382e-05 -0.000129208 -0.000977788)
(-6.66409e-05 -0.000163734 -0.000885219)
(0.000181897 -0.000331163 -0.000843443)
(0.000931693 -0.000718481 -0.00173868)
(-0.00187497 0.00116288 -0.000748173)
(-0.00326421 0.00120885 -0.00138981)
(-8.40506e-05 -0.000271645 -0.000640577)
(2.6636e-05 -0.000464902 -0.000632597)
(-0.000187415 -0.000101683 -0.000891734)
(-0.000485992 0.00110057 -0.00112831)
(0.000222989 -0.00112949 -0.00111575)
(-0.000197976 7.0281e-05 -0.000245057)
(-0.000257207 -0.000135365 -0.0001582)
(0.000149376 -0.000250585 2.66945e-05)
(0.000253107 -9.29373e-05 -0.000543418)
(-0.00188195 0.000936528 -0.00140311)
(-0.000247569 -0.000621434 -0.000561262)
(-0.000107255 -0.000562656 -0.00108017)
(-0.00254989 0.000263707 0.000825537)
(-0.000322527 -0.000176196 -2.22135e-05)
(-6.68028e-05 3.4616e-06 3.98668e-06)
(0.000327342 -0.000248821 -0.000192972)
(0.000724271 -0.000445087 -0.000397625)
(-0.00262079 -0.00232193 -0.00105922)
(-0.000173246 -0.000323276 -0.000151183)
(-0.000800444 -0.000290042 -0.00148957)
(-0.000384795 -0.000822289 -0.00115173)
(0.000521341 -5.26636e-06 -0.00039585)
(0.00315227 0.00947556 -0.00566707)
(0 0 0)
(0 0 0)
(0 0 0)
(0 0 0)
(0 0 0)
(0 0 0)
(0 0 0)
(0 0 0)
(0 0 0)
(0 0 0)
(0 0 0)
(0 0 0)
(0 0 0)
(0 0 0)
(0 0 0)
(0 0 0)
(0 0 0)
(0 0 0)
(0 0 0)
(0 0 0)
(0 0 0)
(0 0 0)
(0.00442576 0.00403668 -0.00594544)
(0 0 0)
(0 0 0)
(0 0 0)
(0 0 0)
(0 0 0)
(0 0 0)
(0.00242329 -0.00820478 -0.00270356)
(0.00673158 -0.000206088 -0.00302494)
(0 0 0)
(0 0 0)
(0 0 0)
(0 0 0)
(0 0 0)
(0 0 0)
(0 0 0)
(0 0 0)
(0 0 0)
(0 0 0)
(0 0 0)
(0 0 0)
(0 0 0)
(0 0 0)
(0 0 0)
(0 0 0)
(0 0 0)
(0 0 0)
(0 0 0)
(0 0 0)
(0 0 0)
(0 0 0)
(0 0 0)
(0 0 0)
(0 0 0)
(0 0 0)
(0 0 0)
(0 0 0)
(0 0 0)
(0 0 0)
(0 0 0)
(0 0 0)
(0 0 0)
(0 0 0)
(0 0 0)
(0 0 0)
(0 0 0)
(0 0 0)
(0 0 0)
(0 0 0)
(0 0 0)
(0 0 0)
(0 0 0)
(0 0 0)
(0 0 0)
(0 0 0)
(0 0 0)
(0 0 0)
(0 0 0)
(0 0 0)
(0 0 0)
(0 0 0)
(0 0 0)
(0 0 0)
(0 0 0)
(0 0 0)
(0 0 0)
(0 0 0)
(0 0 0)
(0 0 0)
(0 0 0)
(0 0 0)
(0 0 0)
(0 0 0)
(0 0 0)
(0 0 0)
(0 0 0)
(0 0 0)
(0 0 0)
(0 0 0)
(0 0 0)
(0 0 0)
(0 0 0)
(0 0 0)
(0 0 0)
(0 0 0)
(0 0 0)
(0 0 0)
(0 0 0)
(0 0 0)
(0 0 0)
(0 0 0)
(0 0 0)
(0 0 0)
(0 0 0)
(0 0 0)
(0 0 0)
(0 0 0)
(0 0 0)
(0 0 0)
(0 0 0)
(0 0 0)
(0 0 0)
(0 0 0)
(0 0 0)
(0 0 0)
(0 0 0)
(0 0 0)
(0 0 0)
(0 0 0)
(0 0 0)
(0 0 0)
(0 0 0)
(0 0 0)
(0 0 0)
(0 0 0)
(0 0 0)
(0 0 0)
(0 0 0)
(0 0 0)
(0 0 0)
(0 0 0)
(0 0 0)
(0 0 0)
(0 0 0)
(0 0 0)
(0 0 0)
(0 0 0)
(0 0 0)
(0 0 0)
(0 0 0)
(0 0 0)
(0 0 0)
(0 0 0)
(0 0 0)
(0 0 0)
(0 0 0)
(0 0 0)
(0 0 0)
(0 0 0)
(0 0 0)
(0 0 0)
(0 0 0)
(0 0 0)
(0 0 0)
(0 0 0)
(0 0 0)
(0 0 0)
(0 0 0)
(0 0 0)
(0 0 0)
(0 0 0)
(0 0 0)
(0 0 0)
(0 0 0)
(0 0 0)
(0 0 0)
(0 0 0)
(0 0 0)
(0 0 0)
(0 0 0)
(0 0 0)
(0 0 0)
(0 0 0)
(0 0 0)
(0 0 0)
(0 0 0)
(0 0 0)
(0 0 0)
(0 0 0)
(0 0 0)
(0 0 0)
(0 0 0)
(0 0 0)
(0 0 0)
(0 0 0)
(0 0 0)
(0 0 0)
(0 0 0)
(0 0 0)
(0 0 0)
(0 0 0)
(0 0 0)
(0 0 0)
(0 0 0)
(0 0 0)
(0 0 0)
(0 0 0)
(0 0 0)
(0 0 0)
(0 0 0)
(0 0 0)
(0 0 0)
(0 0 0)
(0 0 0)
(0 0 0)
(0 0 0)
(0 0 0)
(0 0 0)
(0 0 0)
(0 0 0)
(0 0 0)
(0 0 0)
(0 0 0)
(0 0 0)
(0 0 0)
(0 0 0)
(0 0 0)
(0 0 0)
(0 0 0)
(0 0 0)
(0 0 0)
(0 0 0)
(0 0 0)
(0 0 0)
(0 0 0)
(0 0 0)
(0 0 0)
(0 0 0)
(0 0 0)
(0 0 0)
(0 0 0)
(0 0 0)
(0 0 0)
(0 0 0)
(0 0 0)
(0 0 0)
(0 0 0)
(0 0 0)
(0 0 0)
(0 0 0)
(0 0 0)
(0 0 0)
(0 0 0)
(0 0 0)
(0 0 0)
(0 0 0)
(0 0 0)
(0 0 0)
(0 0 0)
(0 0 0)
(0 0 0)
(0 0 0)
(0 0 0)
(0 0 0)
(0 0 0)
(0 0 0)
(0 0 0)
(0 0 0)
(0 0 0)
(0 0 0)
(0 0 0)
(0 0 0)
(0 0 0)
(0 0 0)
(0 0 0)
(0 0 0)
(0 0 0)
(0 0 0)
(0 0 0)
(0 0 0)
(0 0 0)
(0 0 0)
(0 0 0)
(0 0 0)
(0 0 0)
(0 0 0)
(0 0 0)
(0 0 0)
(0 0 0)
(0 0 0)
(0 0 0)
(0 0 0)
(0 0 0)
(0 0 0)
(0 0 0)
(0 0 0)
(0 0 0)
(0 0 0)
(0 0 0)
(0 0 0)
(0 0 0)
(0 0 0)
(0 0 0)
(0 0 0)
(0 0 0)
(0 0 0)
(0 0 0)
(0 0 0)
(0 0 0)
(0 0 0)
(0 0 0)
(0 0 0)
(0 0 0)
(0 0 0)
(0 0 0)
(0 0 0)
(0 0 0)
(0 0 0)
(0 0 0)
(0 0 0)
(0 0 0)
(0 0 0)
(0 0 0)
(0 0 0)
(0 0 0)
(0 0 0)
(0 0 0)
(0 0 0)
(0 0 0)
(0 0 0)
(0 0 0)
(0 0 0)
(0 0 0)
(0 0 0)
(0 0 0)
(0 0 0)
(0 0 0)
(0 0 0)
(0 0 0)
(0 0 0)
(0 0 0)
(0 0 0)
(0 0 0)
(0 0 0)
(0 0 0)
(0 0 0)
(0 0 0)
(0 0 0)
(0 0 0)
(0 0 0)
(0 0 0)
(0 0 0)
(0 0 0)
(0 0 0)
(0 0 0)
(0 0 0)
(0 0 0)
(0 0 0)
(0 0 0)
(0 0 0)
(0 0 0)
(0 0 0)
(0 0 0)
(0 0 0)
(0 0 0)
(0 0 0)
(0 0 0)
(0 0 0)
(0 0 0)
(0 0 0)
(0 0 0)
(0 0 0)
(0 0 0)
(0 0 0)
(0 0 0)
(0 0 0)
(0 0 0)
(0 0 0)
(0 0 0)
(0 0 0)
(0 0 0)
(0 0 0)
(0 0 0)
(0 0 0)
(0 0 0)
(0 0 0)
(0 0 0)
(0 0 0)
(0 0 0)
(0 0 0)
(0 0 0)
(0 0 0)
(0 0 0)
(0 0 0)
(0 0 0)
(0 0 0)
(0 0 0)
(0 0 0)
(0 0 0)
(0 0 0)
(0 0 0)
(0 0 0)
(0 0 0)
(0 0 0)
(0 0 0)
(0 0 0)
(0 0 0)
(0 0 0)
(0 0 0)
(0 0 0)
(0 0 0)
(0 0 0)
(0 0 0)
(0 0 0)
(0 0 0)
(0 0 0)
(0 0 0)
(0 0 0)
(0 0 0)
(0 0 0)
(0 0 0)
(0 0 0)
(0 0 0)
(0 0 0)
(0 0 0)
(0 0 0)
(0 0 0)
(0 0 0)
(0 0 0)
(0 0 0)
(0 0 0)
(0 0 0)
(0 0 0)
(0 0 0)
(0 0 0)
(0 0 0)
(0 0 0)
(0 0 0)
(0 0 0)
(0 0 0)
(0 0 0)
(0 0 0)
(0 0 0)
(0 0 0)
(0 0 0)
(0 0 0)
(0 0 0)
(0 0 0)
(0 0 0)
(0 0 0)
(0 0 0)
(0 0 0)
(0 0 0)
(0 0 0)
(0 0 0)
(0 0 0)
(0 0 0)
(0 0 0)
(0 0 0)
(0 0 0)
(0 0 0)
(0 0 0)
(0 0 0)
(0 0 0)
(0 0 0)
(0 0 0)
(0 0 0)
(0 0 0)
(0 0 0)
(0 0 0)
(0 0 0)
(0 0 0)
(0 0 0)
(0 0 0)
(0 0 0)
(0 0 0)
(0 0 0)
(0 0 0)
(0 0 0)
(0 0 0)
(0 0 0)
(0 0 0)
(0 0 0)
(0 0 0)
(0 0 0)
(0 0 0)
(0 0 0)
(0 0 0)
(0 0 0)
(0 0 0)
(0 0 0)
(0 0 0)
(0 0 0)
(0 0 0)
(0 0 0)
(0 0 0)
(0 0 0)
(0 0 0)
(0 0 0)
(0 0 0)
(0 0 0)
(0 0 0)
(0 0 0)
(0 0 0)
(0 0 0)
(0 0 0)
(0 0 0)
(0 0 0)
(0 0 0)
(0 0 0)
(0 0 0)
(0 0 0)
(0 0 0)
(0 0 0)
(0 0 0)
(0 0 0)
(0 0 0)
(0 0 0)
(0 0 0)
(0 0 0)
(0 0 0)
(0 0 0)
(0 0 0)
(0 0 0)
(0 0 0)
(0 0 0)
(0 0 0)
(0 0 0)
(0 0 0)
(0 0 0)
(0 0 0)
(0 0 0)
(0 0 0)
(0 0 0)
(0 0 0)
(0 0 0)
(0 0 0)
(0 0 0)
(0 0 0)
(0 0 0)
(0 0 0)
(0 0 0)
(0 0 0)
(0 0 0)
(0 0 0)
(0 0 0)
(0 0 0)
(0 0 0)
(0 0 0)
(0 0 0)
(0 0 0)
(0 0 0)
(0 0 0)
(0 0 0)
(0 0 0)
(0 0 0)
(0 0 0)
(0 0 0)
(0 0 0)
(0 0 0)
(0 0 0)
(0 0 0)
(0 0 0)
(0 0 0)
(0 0 0)
(0 0 0)
(0 0 0)
(0 0 0)
(0 0 0)
(0 0 0)
(0 0 0)
(0 0 0)
(0 0 0)
(0 0 0)
(0 0 0)
(0 0 0)
(0 0 0)
(0 0 0)
(0 0 0)
(0 0 0)
(0 0 0)
(0 0 0)
(0 0 0)
(0 0 0)
(0 0 0)
(0 0 0)
(0 0 0)
(0 0 0)
(0 0 0)
(0 0 0)
(0 0 0)
(0 0 0)
(0 0 0)
(0 0 0)
(0 0 0)
(0 0 0)
(0 0 0)
(0 0 0)
(0 0 0)
(0 0 0)
(0 0 0)
(0 0 0)
(0 0 0)
(0 0 0)
(0 0 0)
(0 0 0)
(0 0 0)
(0 0 0)
(0 0 0)
(0 0 0)
(0 0 0)
(0 0 0)
(0 0 0)
(0 0 0)
(0 0 0)
(0 0 0)
(0 0 0)
(0 0 0)
(0 0 0)
(0 0 0)
(0 0 0)
(0 0 0)
(0 0 0)
(0 0 0)
(0 0 0)
(0 0 0)
(0 0 0)
(0 0 0)
(0 0 0)
(0 0 0)
(0 0 0)
(0 0 0)
(0 0 0)
(0 0 0)
(0 0 0)
(0 0 0)
(0 0 0)
(0 0 0)
(0 0 0)
(0 0 0)
(0 0 0)
(0 0 0)
(0 0 0)
(0 0 0)
(0 0 0)
(0 0 0)
(0 0 0)
(0 0 0)
(0 0 0)
(0 0 0)
(0 0 0)
(0 0 0)
(0 0 0)
(0 0 0)
(0 0 0)
(0 0 0)
(0 0 0)
(0 0 0)
(0 0 0)
(0 0 0)
(0 0 0)
(0 0 0)
(0 0 0)
(0 0 0)
(0 0 0)
(0 0 0)
(0 0 0)
(0 0 0)
(0 0 0)
(0 0 0)
(0 0 0)
(0 0 0)
(0 0 0)
(0 0 0)
(0 0 0)
(0 0 0)
(0 0 0)
(0 0 0)
(0 0 0)
(0 0 0)
(0 0 0)
(0 0 0)
(0 0 0)
(0 0 0)
(0 0 0)
(0 0 0)
(0 0 0)
(0 0 0)
(0 0 0)
(0 0 0)
(0 0 0)
(0 0 0)
(0 0 0)
(0 0 0)
(0 0 0)
(0 0 0)
(0 0 0)
(0 0 0)
(0 0 0)
(0 0 0)
(0 0 0)
(0 0 0)
(0 0 0)
(0 0 0)
(0 0 0)
(0 0 0)
(0 0 0)
(0 0 0)
(0 0 0)
(0 0 0)
(0 0 0)
(0 0 0)
(0 0 0)
(0 0 0)
(0 0 0)
(0 0 0)
(0 0 0)
(0 0 0)
(0 0 0)
(0 0 0)
(0 0 0)
(0 0 0)
(0 0 0)
(0 0 0)
(0 0 0)
(0 0 0)
(0 0 0)
(0 0 0)
(0 0 0)
(0 0 0)
(0 0 0)
(0 0 0)
(0 0 0)
(0 0 0)
(0 0 0)
(0 0 0)
(0 0 0)
(0 0 0)
(0 0 0)
(0 0 0)
(0 0 0)
(0 0 0)
(0 0 0)
(0 0 0)
(0 0 0)
(0 0 0)
(0 0 0)
(0 0 0)
(0 0 0)
(0 0 0)
(0 0 0)
(0 0 0)
(0 0 0)
(0 0 0)
(0 0 0)
(0 0 0)
(0 0 0)
(0 0 0)
(0 0 0)
(0 0 0)
(0 0 0)
(0 0 0)
(0 0 0)
(0 0 0)
(0 0 0)
(0 0 0)
(0 0 0)
(0 0 0)
(0 0 0)
(0 0 0)
(0 0 0)
(0 0 0)
(0 0 0)
(0 0 0)
(0 0 0)
(0 0 0)
(0 0 0)
(0 0 0)
(0 0 0)
(0 0 0)
(0 0 0)
(0 0 0)
(0 0 0)
(0 0 0)
(0 0 0)
(0 0 0)
(0 0 0)
(0 0 0)
(0 0 0)
(0 0 0)
(0 0 0)
(0 0 0)
(0 0 0)
(0 0 0)
(0 0 0)
(0 0 0)
(0 0 0)
(0 0 0)
(0 0 0)
(0 0 0)
(0 0 0)
(0 0 0)
(0 0 0)
(0 0 0)
(0 0 0)
(0 0 0)
(0 0 0)
(0 0 0)
(0 0 0)
(0 0 0)
(0 0 0)
(0 0 0)
(0 0 0)
(0 0 0)
(0 0 0)
(0 0 0)
(0 0 0)
(0 0 0)
(0 0 0)
(0 0 0)
(0 0 0)
(0 0 0)
(0 0 0)
(0 0 0)
(0 0 0)
(0 0 0)
(0 0 0)
(0 0 0)
(0 0 0)
(0 0 0)
(0 0 0)
(0 0 0)
(0 0 0)
(0 0 0)
(0 0 0)
(0 0 0)
(0 0 0)
(0 0 0)
(0 0 0)
(0 0 0)
(0 0 0)
(0 0 0)
(0 0 0)
(0 0 0)
(0 0 0)
(0 0 0)
(0 0 0)
(0 0 0)
(0 0 0)
(0 0 0)
(0 0 0)
(0 0 0)
(0 0 0)
(0 0 0)
(0 0 0)
(0 0 0)
(0 0 0)
(0 0 0)
(0 0 0)
(0 0 0)
(0 0 0)
(0 0 0)
(0 0 0)
(0 0 0)
(0 0 0)
(0 0 0)
(0 0 0)
(0 0 0)
(0 0 0)
(0 0 0)
(0 0 0)
(0 0 0)
(0 0 0)
(0 0 0)
(0 0 0)
(0 0 0)
(0 0 0)
(0 0 0)
(0 0 0)
(0 0 0)
(0 0 0)
(0 0 0)
(0 0 0)
(0 0 0)
(0 0 0)
(0 0 0)
(0 0 0)
(0 0 0)
(0 0 0)
(0 0 0)
(0 0 0)
(0 0 0)
(0 0 0)
(0 0 0)
(0 0 0)
(0 0 0)
(0 0 0)
(0 0 0)
(0 0 0)
(0 0 0)
(0 0 0)
(0 0 0)
(0 0 0)
(0 0 0)
(0 0 0)
(0 0 0)
(0 0 0)
(0 0 0)
(0 0 0)
(0 0 0)
(0 0 0)
(0 0 0)
(0 0 0)
(0 0 0)
(0 0 0)
(0 0 0)
(0 0 0)
(0 0 0)
(0 0 0)
(0 0 0)
(0 0 0)
(0 0 0)
(0 0 0)
(0 0 0)
(0 0 0)
(0 0 0)
(0 0 0)
(0 0 0)
(0 0 0)
(0 0 0)
(0 0 0)
(0 0 0)
(0 0 0)
(0 0 0)
(0 0 0)
(0 0 0)
(0 0 0)
(0 0 0)
(0 0 0)
(0 0 0)
(0 0 0)
(0 0 0)
(0 0 0)
(0 0 0)
(0 0 0)
(0 0 0)
(0 0 0)
(0 0 0)
(0 0 0)
(0 0 0)
(0 0 0)
(0 0 0)
(0 0 0)
(0 0 0)
(0 0 0)
(0 0 0)
(0 0 0)
(0 0 0)
(0 0 0)
(0 0 0)
(0 0 0)
(0 0 0)
(0 0 0)
(0 0 0)
(0 0 0)
(0 0 0)
(0 0 0)
(0 0 0)
(0 0 0)
(0 0 0)
(0 0 0)
(0 0 0)
(0 0 0)
(0 0 0)
(0 0 0)
(0 0 0)
(0 0 0)
(0 0 0)
(0 0 0)
(0 0 0)
(0 0 0)
(0 0 0)
(0 0 0)
(0 0 0)
(0 0 0)
(0 0 0)
(0 0 0)
(0 0 0)
(0 0 0)
(0 0 0)
(0 0 0)
(0 0 0)
(0 0 0)
(0 0 0)
(0 0 0)
(0 0 0)
(0 0 0)
(0 0 0)
(0 0 0)
(0 0 0)
(0 0 0)
(0 0 0)
(0 0 0)
(0 0 0)
(0 0 0)
(0 0 0)
(0 0 0)
(0 0 0)
(0 0 0)
(0 0 0)
(0 0 0)
(0 0 0)
(0 0 0)
(0 0 0)
(0 0 0)
(0 0 0)
(0 0 0)
(0 0 0)
(0 0 0)
(0 0 0)
(0 0 0)
(0 0 0)
(0 0 0)
(0 0 0)
(0 0 0)
(0 0 0)
(0 0 0)
(0 0 0)
(0 0 0)
(0 0 0)
(0 0 0)
(0 0 0)
(0 0 0)
(0 0 0)
(0 0 0)
(0 0 0)
(0 0 0)
(0 0 0)
(0 0 0)
(0 0 0)
(0 0 0)
(0 0 0)
(0 0 0)
(0 0 0)
(0 0 0)
(0 0 0)
(0 0 0)
(0 0 0)
(0 0 0)
(0 0 0)
(0 0 0)
(0 0 0)
(0 0 0)
(0 0 0)
(0 0 0)
(0 0 0)
(0 0 0)
(0 0 0)
(0 0 0)
(0 0 0)
(0 0 0)
(0 0 0)
(0 0 0)
(0 0 0)
(0 0 0)
(0 0 0)
(0 0 0)
(0 0 0)
(0 0 0)
(0 0 0)
(0 0 0)
(0 0 0)
(0 0 0)
(0 0 0)
(0 0 0)
(0 0 0)
(0 0 0)
(0 0 0)
(0 0 0)
(0 0 0)
(0 0 0)
(0 0 0)
(0 0 0)
(0 0 0)
(0 0 0)
(0 0 0)
(-5.66916e-05 -1.60373e-05 1.5508e-08)
(1.65118e-05 3.67621e-05 2.29043e-05)
(2.98629e-05 6.00125e-05 1.66213e-05)
(7.59419e-05 0.000125948 1.75296e-05)
(1.83017e-05 9.48708e-05 3.66565e-05)
(4.56778e-05 6.38959e-05 5.70051e-06)
(2.02596e-05 0.000255685 0.000131766)
(7.27539e-05 0.000197485 6.29783e-05)
(-2.62979e-05 3.91924e-05 9.11853e-06)
(-6.20989e-07 -3.78155e-05 2.77902e-05)
(1.26465e-05 0.000201611 2.38171e-05)
(1.39687e-05 4.17275e-05 1.62024e-05)
(4.32286e-05 3.22369e-05 1.91453e-05)
(4.66635e-05 4.67655e-05 1.51759e-05)
(2.31042e-05 2.48374e-05 7.61632e-05)
(4.87924e-05 3.70294e-05 2.32745e-05)
(0.000236005 1.48478e-06 -1.11219e-06)
(1.75441e-05 -1.92756e-05 3.34376e-05)
(-4.48474e-05 0.000148352 4.71934e-05)
(-4.34663e-06 1.72923e-05 3.37515e-05)
(-1.14731e-05 2.61347e-05 6.03892e-06)
(1.14606e-05 2.96196e-05 -3.72386e-06)
(3.46427e-05 -1.80215e-05 3.37727e-05)
(4.20675e-05 2.25607e-05 1.52621e-05)
(-7.60938e-05 -6.44506e-05 -1.21365e-06)
(4.56465e-06 -2.70137e-07 2.33668e-05)
(3.02582e-05 2.30788e-05 3.31602e-05)
(3.34247e-05 2.41813e-05 2.85451e-05)
(-2.60717e-05 2.54072e-05 5.05938e-06)
(6.26643e-05 -1.25094e-05 4.65218e-06)
(3.36326e-05 -1.23575e-05 -2.24498e-06)
(2.76356e-05 -9.39465e-06 -2.937e-07)
(-0.000122735 -2.68309e-06 7.78303e-05)
(-5.98504e-06 5.1379e-05 8.57053e-05)
(6.78757e-05 0.000144265 5.01989e-05)
(7.11767e-05 0.00011219 0.000102712)
(1.97595e-05 0.000129641 4.94091e-05)
(4.96334e-05 0.000132521 1.46739e-05)
(0.000105473 0.000402607 0.000134405)
(8.28666e-05 0.000193867 0.000139307)
(-3.23197e-05 -2.06916e-05 5.58984e-05)
(4.73656e-05 1.43907e-05 9.89047e-05)
(3.63782e-05 9.13638e-05 0.000111829)
(4.97867e-05 7.73188e-05 8.97864e-05)
(2.69458e-05 0.000149023 7.65996e-05)
(3.3086e-05 0.000115956 3.97563e-05)
(6.62178e-05 0.000158331 0.000158239)
(8.7786e-05 9.12075e-05 0.000137832)
(-1.33589e-05 -2.28487e-05 2.53859e-05)
(3.04043e-05 9.44205e-06 5.62884e-05)
(2.66415e-05 5.17575e-05 0.00012913)
(6.58308e-05 5.48706e-05 0.00012416)
(3.9601e-07 7.97899e-05 6.11624e-05)
(9.5722e-06 2.72049e-05 2.35282e-05)
(4.01724e-05 9.23822e-05 9.96549e-05)
(1.58202e-05 1.63319e-05 4.76036e-05)
(-1.4959e-05 -1.82741e-05 5.9513e-05)
(1.07669e-05 -2.50151e-06 3.14399e-05)
(9.49834e-06 1.44908e-05 8.57618e-05)
(2.19137e-05 -3.94072e-06 9.43127e-05)
(-8.73664e-06 -7.33173e-07 4.65623e-05)
(-8.57488e-06 5.73603e-06 2.7001e-05)
(4.1849e-05 -1.23391e-05 9.85721e-06)
(3.73175e-05 -1.28182e-05 6.21513e-05)
(-6.92828e-05 3.4159e-05 0.000132314)
(-5.57681e-05 3.65735e-05 6.78133e-05)
(-2.45728e-05 6.51325e-05 4.39048e-05)
(-3.61473e-05 0.000159654 0.000121094)
(6.54957e-05 0.000490193 6.58685e-05)