FoamFile
{version 2.0; format ascii;class Cloud<passiveParticle>; location 0;object  positions;}
2499
(
( 0.00164606 -0.00391048 0.00606007 ) 0 
( 0.000397719 -0.00501705 0.0050641 ) 0 
( 0.0124371 -0.000909709 0.00352072 ) 0 
( 0.000118321 -0.0133505 0.00514054 ) 0 
( 0.0109616 -0.00402949 0.0045543 ) 0 
( 0.00320905 -0.00406086 0.00547314 ) 0 
( 0.00491554 -0.00362647 0.000498786 ) 0 
( 0.00527175 -0.0122653 0.00235379 ) 0 
( 0.00437382 -0.0042052 0.00697829 ) 0 
( 0.00831718 -0.00579464 0.00409744 ) 0 
( 0.00457009 -0.00147974 0.00587454 ) 0 
( 0.0102116 -0.00707054 0.0063861 ) 0 
( 0.0051183 -0.00873303 0.00495853 ) 0 
( 0.00482213 -0.0105097 0.000499281 ) 0 
( 0.0050565 -0.00529458 0.00394885 ) 0 
( 0.00911235 -0.00848589 0.00409271 ) 0 
( 0.00922831 -0.00205236 0.000499364 ) 0 
( 0.0122165 -0.00251156 0.00596811 ) 0 
( 0.00463954 -0.00604023 0.00721483 ) 0 
( 0.00224934 -0.0131608 0.00232428 ) 0 
( 0.00517573 -0.0014432 0.00148215 ) 0 
( 0.00751693 -0.00480694 0.000499078 ) 0 
( 0.00896924 -0.00418744 0.00628495 ) 0 
( 0.00401661 -0.00129363 0.00313016 ) 0 
( 0.0010393 -0.00701737 0.00546993 ) 0 
( 0.0102236 -0.00752822 0.00221713 ) 0 
( 0.000975074 -0.00331718 0.0028672 ) 0 
( 0.00376342 -0.0064833 0.00703171 ) 0 
( 0.00415813 -0.00695456 0.00610805 ) 0 
( 0.00894392 -0.00277309 0.00129956 ) 0 
( 0.000648712 -0.00978932 0.0014729 ) 0 
( 7.62084e-05 -0.00735767 0.0027683 ) 0 
( 0.00493469 -0.00381405 0.00584495 ) 0 
( 0.00923495 -0.00211607 0.0037645 ) 0 
( 0.00902539 -0.00294135 0.00324141 ) 0 
( 0.0133384 -0.000571776 0.00477479 ) 0 
( 0.00627013 -0.000959358 0.000499432 ) 0 
( 0.0112668 -0.00425003 0.00200838 ) 0 
( 0.00764034 -0.0109475 0.00128192 ) 0 
( 0.00738465 -0.00748101 0.00540238 ) 0 
( 0.00018518 -0.00471258 0.00808532 ) 0 
( 0.0041176 -0.00435956 0.00602523 ) 0 
( 0.00560194 -0.0111561 0.00671251 ) 0 
( 0.00135815 -0.00868697 0.00221676 ) 0 
( 0.00761026 -0.00844569 0.00527125 ) 0 
( 0.00773027 -0.000996495 0.000499624 ) 0 
( 0.00340756 -0.000346696 0.000499791 ) 0 
( 8.90277e-05 -0.00103353 0.00557509 ) 0 
( 0.00833437 -0.00981883 0.00347476 ) 0 
( 0.00416882 -0.005182 0.00701499 ) 0 
( 0.00455964 -0.00739513 0.00364539 ) 0 
( 0.0133232 -0.000860148 0.00663161 ) 0 
( 0.00228906 -0.0112758 0.00645273 ) 0 
( 0.00183596 -0.00553986 0.00529764 ) 0 
( 0.00748666 -0.00373318 0.000499791 ) 0 
( 0.000578527 -0.000741503 0.000499602 ) 0 
( 0.00940129 -0.00948024 0.000499191 ) 0 
( 0.00860793 -0.00904057 0.00245888 ) 0 
( 0.00315483 -0.00617573 0.00405451 ) 0 
( 0.0120486 -0.00350329 0.00578474 ) 0 
( 0.0015477 -0.00720605 0.00223942 ) 0 
( 0.0071754 -0.00115266 0.00518183 ) 0 
( 0.00793632 -0.0107355 0.00347853 ) 0 
( 0.00824855 -0.00149494 0.00566934 ) 0 
( 0.00937286 -0.00501506 0.004938 ) 0 
( 0.00399198 -0.00119513 0.00510988 ) 0 
( 0.00889084 -0.00404183 0.00461725 ) 0 
( 0.000963535 -0.0104245 0.00694798 ) 0 
( 0.00559415 -0.00909034 0.00576035 ) 0 
( 0.00368299 -0.00356896 0.0020898 ) 0 
( 0.00244344 -0.00685735 0.000499774 ) 0 
( 0.00826899 -0.00744578 0.000499658 ) 0 
( 0.0107154 -0.00344335 0.00375051 ) 0 
( 0.00603099 -0.00263931 0.00582057 ) 0 
( 0.006991 -0.00109341 0.00319181 ) 0 
( 0.00378952 -0.00123966 0.00647966 ) 0 
( 0.0116474 -0.00466963 0.0028297 ) 0 
( 0.000461286 -0.00246011 0.00289799 ) 0 
( 0.00926212 -0.00726815 0.0061432 ) 0 
( 0.00179971 -0.00350203 0.0038365 ) 0 
( 0.00985746 -0.00426625 0.00673323 ) 0 
( 0.00726338 -0.00699442 0.000498839 ) 0 
( 0.004723 -0.00397177 0.00206419 ) 0 
( 0.00212642 -0.0123594 0.00644052 ) 0 
( 0.0086905 -0.00888008 0.00613014 ) 0 
( 0.00047255 -0.0123442 0.000499789 ) 0 
( 0.00922031 -0.00160361 0.00541624 ) 0 
( 0.010957 -0.00501869 0.00109323 ) 0 
( 0.00519974 -0.00521707 0.00713017 ) 0 
( 0.00334102 -0.00752936 0.000499791 ) 0 
( 0.00946369 -0.00825775 0.00499875 ) 0 
( 0.00153641 -0.0109448 0.00510477 ) 0 
( 0.00201802 -0.0050731 0.00382929 ) 0 
( 0.00111548 -0.00394163 0.00209954 ) 0 
( 0.00183101 -0.0105521 0.00049979 ) 0 
( 0.00543073 -0.00709127 0.00480211 ) 0 
( 0.00233314 -0.0051657 0.00106462 ) 0 
( 0.00726549 -0.00916862 0.00467359 ) 0 
( 0.0044591 -0.0123557 0.0013876 ) 0 
( 0.00161182 -0.00641514 0.00486396 ) 0 
( 0.00456772 -0.0114771 0.000499924 ) 0 
( 0.000553313 -0.00371651 0.00738312 ) 0 
( 0.0106366 -0.00625902 0.00136525 ) 0 
( 0.00380315 -0.00292595 0.003562 ) 0 
( 0.00138635 -0.00172428 0.00758874 ) 0 
( 0.00291076 -0.00775013 0.00582014 ) 0 
( 0.0117549 -0.0044217 0.00115306 ) 0 
( 0.00579982 -0.00781306 0.00116805 ) 0 
( 0.00761072 -0.00436952 0.00507682 ) 0 
( 0.00108906 -0.0133055 0.000499803 ) 0 
( 0.00195266 -0.00598604 0.000499714 ) 0 
( 0.00655828 -0.00270546 0.00698922 ) 0 
( 0.000174676 -0.00108173 0.00411851 ) 0 
( 0.0118562 -0.00613621 0.00145644 ) 0 
( 0.00434247 -0.00215884 0.0051763 ) 0 
( 0.00187972 -0.0114353 0.00096566 ) 0 
( 0.00447422 -0.00565712 0.00504164 ) 0 
( 0.0118126 -0.00622174 0.00437883 ) 0 
( 0.00657228 -0.00448406 0.000498727 ) 0 
( 0.0109594 -0.0026189 0.00680003 ) 0 
( 0.0027788 -0.00489201 0.00512248 ) 0 
( 0.00805543 -0.00995034 0.00633008 ) 0 
( 0.00507464 -0.00464212 0.0013615 ) 0 
( 0.000976106 -0.00335405 0.00460722 ) 0 
( 0.00777898 -0.00497712 0.00430094 ) 0 
( 0.00292384 -0.0070214 0.00667625 ) 0 
( 0.00831262 -0.00436507 0.000910044 ) 0 
( 0.00308735 -0.00977892 0.00200871 ) 0 
( 0.00687307 -0.0096837 0.00689382 ) 0 
( 0.00784067 -0.00992932 0.00119436 ) 0 
( 0.0103999 -0.00529548 0.00628541 ) 0 
( 0.00113871 -0.00879848 0.00554466 ) 0 
( 0.00430093 -0.00147997 0.00196859 ) 0 
( 0.00267075 -0.0107508 0.00461775 ) 0 
( 0.0116655 -0.00117303 0.00641625 ) 0 
( 0.00762368 -0.00938402 0.00562058 ) 0 
( 0.00698777 -0.00327438 0.00489812 ) 0 
( 0.0100038 -0.00568024 0.00545343 ) 0 
( 0.013167 -0.00220309 0.0058084 ) 0 
( 0.00923325 -0.00740679 0.00226979 ) 0 
( 0.00588123 -0.010058 0.000993058 ) 0 
( 0.00897776 -0.00670442 0.000498331 ) 0 
( 0.00380338 -0.0111035 0.00198419 ) 0 
( 0.003278 -0.005046 0.0064716 ) 0 
( 0.00472299 -0.00989514 0.00286737 ) 0 
( 0.00960936 -0.00689099 0.00317 ) 0 
( 0.00365044 -0.00985663 0.0029476 ) 0 
( 0.0065503 -0.00634783 0.00611226 ) 0 
( 0.0102601 -0.00259803 0.00608559 ) 0 
( 0.00430969 -0.00487686 0.00196646 ) 0 
( 0.0104755 -0.00485829 0.00195274 ) 0 
( 0.00447933 -0.00440381 0.00359274 ) 0 
( 0.00564263 -0.000498354 0.00297777 ) 0 
( 0.00213913 -0.00121326 0.0013264 ) 0 
( 0.00925235 -0.00694678 0.00708983 ) 0 
( 0.00897065 -0.00123586 0.00337154 ) 0 
( 0.00618604 -0.000428852 0.00134726 ) 0 
( 0.000207382 -0.00651894 0.00773253 ) 0 
( 0.00626848 -0.00843537 0.00299872 ) 0 
( 3.61711e-05 -0.00541225 0.00321086 ) 0 
( 0.00608484 -1.24623e-05 0.00545011 ) 0 
( 0.002301 -0.00869273 0.00324597 ) 0 
( 0.0028753 -0.0130375 0.00621965 ) 0 
( 0.000361616 -0.000507177 0.00207425 ) 0 
( 0.000907693 -0.00327715 0.00583152 ) 0 
( 0.00289768 -0.00975583 0.000499177 ) 0 
( 0.00384348 -0.0108078 0.00634809 ) 0 
( 0.0132168 -0.00188177 0.00306988 ) 0 
( 0.00129782 -0.00518632 0.00740101 ) 0 
( 0.00599216 -0.00155504 0.00351719 ) 0 
( 0.00538304 -0.00911634 0.000499157 ) 0 
( 0.00288658 -0.00639801 0.0075036 ) 0 
( 0.0126578 -0.00424585 0.00614809 ) 0 
( 0.000776856 -0.00386484 0.000498066 ) 0 
( 0.00114155 -0.00557977 0.00457962 ) 0 
( 0.00723034 -0.00819153 0.00311707 ) 0 
( 0.00411093 -0.00205436 0.00394115 ) 0 
( 0.00652959 -0.00751575 0.00270997 ) 0 
( 0.001996 -0.00272243 0.00158232 ) 0 
( 0.00507946 -0.00725406 0.00157624 ) 0 
( 0.000168101 -0.00553937 0.00752642 ) 0 
( 0.010566 -0.00816084 0.000499616 ) 0 
( 0.000480755 -0.00960775 0.0073049 ) 0 
( 0.0123112 -0.00189475 0.00229426 ) 0 
( 0.00167197 -0.00169498 0.00570475 ) 0 
( 0.00221236 -0.00693281 0.0015447 ) 0 
( 0.00028364 -0.00402317 0.00271484 ) 0 
( 0.000432913 -0.00418665 0.00451064 ) 0 
( 0.00371677 -0.00354115 0.00733285 ) 0 
( 0.0065273 -7.86538e-05 0.00634383 ) 0 
( 0.0104821 -0.0036749 0.00562469 ) 0 
( 0.00294041 -0.00583496 0.00149087 ) 0 
( 0.00457601 -0.00473333 0.000499717 ) 0 
( 0.00468111 -0.011403 0.00159426 ) 0 
( 0.00324968 -0.0106558 0.00128443 ) 0 
( 0.0108151 -0.00210097 0.000499791 ) 0 
( 0.0088605 -0.00998425 0.00117126 ) 0 
( 0.00292013 -0.0122754 0.00464088 ) 0 
( 0.000986952 -0.00800001 0.00686454 ) 0 
( 0.0106733 -0.00260644 0.00429612 ) 0 
( 0.00859046 -0.00500064 0.00674438 ) 0 
( 0.00231578 -0.0089723 0.00219957 ) 0 
( 0.000905013 -0.00391636 0.00367211 ) 0 
( 0.00800563 -0.00109621 0.00378616 ) 0 
( 0.00196591 -0.0104077 0.00582946 ) 0 
( 0.0115157 -0.00343764 0.00140338 ) 0 
( 0.00286998 -0.0104571 0.00625392 ) 0 
( 0.00239226 -0.0101442 0.00126883 ) 0 
( 0.00688258 -0.00967433 0.00131178 ) 0 
( 0.00971914 -0.00450024 0.00415388 ) 0 
( 0.00712232 -0.0112924 0.000499343 ) 0 
( 0.000793577 -0.00799618 0.00505822 ) 0 
( 0.0100399 -0.00578941 0.0044614 ) 0 
( 0.0027386 -0.00130994 0.00451749 ) 0 
( 0.00545164 -0.000628793 0.0019923 ) 0 
( 0.00739406 -0.00639143 0.00665693 ) 0 
( 0.0076432 -0.0016638 0.00269198 ) 0 
( 0.00696547 -0.00878937 0.00176901 ) 0 
( 0.00881028 -0.00753396 0.00412313 ) 0 
( 0.00241796 -0.00421547 0.00350783 ) 0 
( 0.0100415 -0.00879787 0.00365709 ) 0 
( 0.00736029 -0.010152 0.00503683 ) 0 
( 0.00929192 -0.00474358 0.00323939 ) 0 
( 0.00654629 -0.0060634 0.00707233 ) 0 
( 0.0102101 -0.00684409 0.00735942 ) 0 
( 0.00555493 -0.00910953 0.00280773 ) 0 
( 0.00594774 -0.00290463 0.00104906 ) 0 
( 0.00518424 -0.00470226 0.00627509 ) 0 
( 0.00968743 -0.00473399 0.00585401 ) 0 
( 0.00159183 -0.00769554 0.00136415 ) 0 
( 0.00696862 -0.00161486 0.00195481 ) 0 
( 0.00467138 -0.00272886 0.00442097 ) 0 
( 0.00740913 -0.00933161 0.00049879 ) 0 
( 0.00255411 -0.0079639 0.00147709 ) 0 
( 0.00166758 -0.0132462 0.00640748 ) 0 
( 0.00584987 -0.0105971 0.00586022 ) 0 
( 0.00640672 -0.0113007 0.00538834 ) 0 
( 0.000359101 -0.0111031 0.00299569 ) 0 
( 0.001286 -0.00332852 0.00120438 ) 0 
( 0.000830542 -0.0102089 0.00314116 ) 0 
( 0.0022897 -0.0042838 0.00449713 ) 0 
( 0.00769998 -0.00387186 0.00421431 ) 0 
( 0.0120457 -0.000373954 0.00426909 ) 0 
( 0.00185309 -0.0121117 0.00375289 ) 0 
( 0.00944446 -0.00823935 0.0059966 ) 0 
( 0.00956201 -0.000788438 0.00492361 ) 0 
( 0.00469751 -0.0104686 0.00452442 ) 0 
( 0.000682921 -0.00143357 0.00228527 ) 0 
( 0.0032744 -0.0020265 0.00818296 ) 0 
( 0.00408958 -0.00370741 0.0029914 ) 0 
( 0.0130493 -0.00279032 0.00345193 ) 0 
( 0.00269926 -0.00955226 0.0029173 ) 0 
( 0.00314047 -0.00677293 0.00121178 ) 0 
( 0.00570631 -0.0112089 0.00395532 ) 0 
( 0.00765006 -0.000289296 0.0014917 ) 0 
( 0.00515806 -0.00263393 0.000499249 ) 0 
( 0.00202843 -0.0071029 0.00310991 ) 0 
( 0.0117881 -0.000551397 0.0056434 ) 0 
( 0.00985634 -0.00785058 0.00330278 ) 0 
( 0.0080405 -0.00224129 0.00197916 ) 0 
( 0.0090003 -0.00503653 0.00127378 ) 0 
( 0.00542778 -0.00317486 0.00523093 ) 0 
( 0.00173294 -0.00126133 0.00320034 ) 0 
( 0.00637552 -0.00965072 0.00602822 ) 0 
( 0.00880126 -0.00556544 0.0029531 ) 0 
( 0.000679974 -0.00294313 0.00374537 ) 0 
( 0.0078409 -0.0047112 0.0061514 ) 0 
( 0.000641221 -0.00807162 0.0010253 ) 0 
( 0.00297065 -0.00252969 0.00409388 ) 0 
( 0.00571902 -0.00343686 0.0063364 ) 0 
( 0.00481788 -0.00253475 0.00603083 ) 0 
( 0.00595592 -0.000364786 0.00783205 ) 0 
( 0.0132525 -0.00161948 0.00210586 ) 0 
( 0.00490962 -0.00263244 0.00739397 ) 0 
( 0.0130504 -0.00278824 0.000499625 ) 0 
( 0.00706218 -0.000215972 0.00551131 ) 0 
( 0.00985495 -0.00171621 0.00632824 ) 0 
( 0.00642768 -0.00732694 0.00595099 ) 0 
( 0.0101943 -0.00861983 0.00131556 ) 0 
( 0.0112512 -0.000226711 0.002463 ) 0 
( 0.00733457 -0.0105449 0.00668344 ) 0 
( 0.000699499 -0.00271787 0.00734134 ) 0 
( 0.00458553 -0.00328666 0.00664691 ) 0 
( 0.00214865 -0.00486175 0.00781339 ) 0 
( 0.0103659 -0.00841559 0.00265433 ) 0 
( 0.00306232 -0.012992 0.000499589 ) 0 
( 0.00442692 -0.0058064 0.00256002 ) 0 
( 0.01248 -0.000934001 0.00251036 ) 0 
( 0.00749228 -0.00924657 0.00344146 ) 0 
( 0.00133425 -0.00844531 0.00318668 ) 0 
( 0.011365 -0.00700547 0.00141221 ) 0 
( 0.00597598 -0.00455206 0.00323267 ) 0 
( 0.00776696 -0.00230377 0.00533335 ) 0 
( 0.00684349 -0.0105065 0.00581475 ) 0 
( 0.00692275 -0.00175033 0.000499788 ) 0 
( 0.00798257 -0.00150118 0.00470653 ) 0 
( 0.00416567 -0.012684 0.00498659 ) 0 
( 0.00233889 -0.00535272 0.00212566 ) 0 
( 0.0101743 -0.0048132 0.000499472 ) 0 
( 0.00314114 -0.00603268 0.00639326 ) 0 
( 0.00307405 -0.000483132 0.00212975 ) 0 
( 0.00536482 -0.00764967 0.00244815 ) 0 
( 0.00233392 -0.00581303 0.00315329 ) 0 
( 0.00938066 -0.00671241 0.00412692 ) 0 
( 0.00433576 -0.00807202 0.00163181 ) 0 
( 0.00820303 -0.0072681 0.00487049 ) 0 
( 0.000444064 -0.00484315 0.00610824 ) 0 
( 0.00118949 -0.00557328 0.00358112 ) 0 
( 0.0102125 -0.00191583 0.00370992 ) 0 
( 0.00148769 -0.00319379 0.00772989 ) 0 
( 0.0132903 -0.00126242 0.00398629 ) 0 
( 0.00249233 -0.00344576 0.00580094 ) 0 
( 0.00711902 -0.00256593 0.00222052 ) 0 
( 0.00333154 -0.0057464 0.00316021 ) 0 
( 0.0019005 -0.00828043 0.00715812 ) 0 
( 0.0060827 -0.00353975 0.0045658 ) 0 
( 0.00367 -0.00511887 0.00555536 ) 0 
( 0.00611819 -0.0025762 0.00482725 ) 0 
( 0.00764219 -0.0107736 0.00252424 ) 0 
( 0.000121044 -0.0124886 0.00564682 ) 0 
( 0.00605425 -0.00444281 0.00135182 ) 0 
( 0.00383485 -0.000208468 0.00376045 ) 0 
( 0.0130171 -0.00296733 0.00496865 ) 0 
( 0.00162845 -0.0100224 0.00370907 ) 0 
( 0.0124769 -0.00213448 0.00507978 ) 0 
( 0.000637095 -0.00654674 0.00468463 ) 0 
( 0.00449501 -0.0108207 0.00543714 ) 0 
( 0.00117407 -0.00654492 0.00333797 ) 0 
( 0.0100756 -0.00406899 0.00768739 ) 0 
( 0.0128212 -0.00372535 0.000761394 ) 0 
( 0.00958213 -0.00544213 0.00213972 ) 0 
( 0.0034728 -0.00431708 0.00348775 ) 0 
( 0.000900775 -0.0133188 0.00371662 ) 0 
( 0.00190263 -0.00944138 0.00557031 ) 0 
( 0.00701316 -0.0113595 0.0030333 ) 0 
( 0.00264505 -0.0122148 0.00559936 ) 0 
( 0.00662373 -0.00195224 0.0028353 ) 0 
( 0.0045956 -0.0125351 0.00409805 ) 0 
( 0.00774451 -0.00549727 0.00693397 ) 0 
( 0.00137651 -0.00208396 0.00275779 ) 0 
( 0.00833738 -0.0043874 0.00337498 ) 0 
( 0.0126246 -0.00153862 0.00685471 ) 0 
( 0.00982091 -0.000719634 0.00305623 ) 0 
( 0.00875697 -0.00806146 0.00670034 ) 0 
( 0.00391982 -0.00355109 0.000499798 ) 0 
( 0.0040043 -0.00248612 0.000499793 ) 0 
( 0.00214719 -0.00761142 0.00645023 ) 0 
( 0.00629825 -0.00986472 0.00209853 ) 0 
( 0.00440553 -0.00043701 0.000498798 ) 0 
( 0.00546697 -0.00976735 0.00648838 ) 0 
( 0.000753213 -0.00219621 0.00820142 ) 0 
( 0.00280399 -0.00886735 0.00639987 ) 0 
( 0.0075577 -0.00204208 0.00691369 ) 0 
( 0.000509497 -0.00881889 0.00167646 ) 0 
( 0.0109982 -0.00486932 0.00544925 ) 0 
( 0.00559116 -0.00468697 0.000499794 ) 0 
( 0.000696258 -0.0116822 0.00578522 ) 0 
( 0.00919388 -0.00723792 0.00499729 ) 0 
( 0.000459834 -0.00507419 0.00405104 ) 0 
( 0.000280956 -0.000636307 0.00322987 ) 0 
( 0.0103517 -0.00842063 0.00452944 ) 0 
( 0.000339421 -0.00700238 0.000499324 ) 0 
( 0.000441638 -0.00280643 0.00132295 ) 0 
( 0.00471325 -0.00659498 0.00529005 ) 0 
( 0.0115289 -0.00120908 0.00237057 ) 0 
( 0.00330671 -0.00979021 0.00685768 ) 0 
( 0.00932958 -0.00796117 0.00127837 ) 0 
( 0.0101395 -0.00524207 0.00363176 ) 0 
( 0.00870906 -0.00119871 0.000498006 ) 0 
( 0.0105432 -0.001373 0.00450249 ) 0 
( 0.00327607 -0.0108025 0.00382439 ) 0 
( 0.000844996 -0.00167744 0.00674963 ) 0 
( 0.00359773 -0.00206198 0.00143543 ) 0 
( 9.98759e-05 -0.00460064 0.000499716 ) 0 
( 0.00381143 -0.00747077 0.00688992 ) 0 
( 0.00318187 -0.00416357 0.00133889 ) 0 
( 0.0117824 -0.00419447 0.00510941 ) 0 
( 0.0083406 -0.0104255 0.00190148 ) 0 
( 0.000822537 -0.010556 0.00220676 ) 0 
( 2.80014e-05 -0.00738234 0.00486774 ) 0 
( 0.000815101 -0.00188708 0.00363601 ) 0 
( 0.00154306 -0.00267301 0.00535097 ) 0 
( 0.00962875 -0.00850807 0.000498713 ) 0 
( 0.000995346 -0.00750655 0.00313176 ) 0 
( 0.00416506 -0.0071991 0.00117723 ) 0 
( 0.00772957 -0.00295482 0.00654648 ) 0 
( 0.00104074 -0.00162923 0.000499598 ) 0 
( 0.00671194 -0.0039107 0.00301698 ) 0 
( 0.00935158 -0.0035411 0.00222258 ) 0 
( 0.00110821 -0.00945929 0.00437313 ) 0 
( 0.00311049 -0.0024123 0.00654454 ) 0 
( 0.00178445 -0.00160436 0.00450218 ) 0 
( 6.73266e-06 -0.00983774 0.000710481 ) 0 
( 0.0110288 -0.00385685 0.00289613 ) 0 
( 0.00247573 -0.000470045 0.00404367 ) 0 
( 0.00210359 -0.00276918 0.00452921 ) 0 
( 0.00307201 -0.0120687 0.00658287 ) 0 
( 0.00167197 -0.00754501 0.0049031 ) 0 
( 0.00517893 -0.00399095 0.00301285 ) 0 
( 0.00849601 -0.00345038 0.000499761 ) 0 
( 0.0107508 -0.00779458 0.0014109 ) 0 
( 0.00359283 -0.00656286 0.00486895 ) 0 
( 0.0113417 -0.00704228 0.00632087 ) 0 
( 0.00672048 -0.00610472 0.00439467 ) 0 
( 0.00984926 -0.00658881 0.00224733 ) 0 
( 0.00210913 -0.00805769 0.00399391 ) 0 
( 0.0121077 -0.00275536 0.00183006 ) 0 
( 0.00919498 -0.00452795 0.00225698 ) 0 
( 0.00088968 -0.00574237 0.00554218 ) 0 
( 0.00344862 -0.00370562 0.00637583 ) 0 
( 0.00553169 -0.00762869 0.00389744 ) 0 
( 0.00126012 -0.00245864 0.00628516 ) 0 
( 0.00821777 -0.000849829 0.00284129 ) 0 
( 0.0067901 -0.00513875 0.00464349 ) 0 
( 0.00154584 -0.000486251 0.000499694 ) 0 
( 0.00354325 -0.0121067 0.00170177 ) 0 
( 0.00896483 -0.00160422 0.0067681 ) 0 
( 0.00308827 -0.00978614 0.00382534 ) 0 
( 0.00623389 -0.00483072 0.00546219 ) 0 
( 0.00281876 -0.00240262 0.000807336 ) 0 
( 0.00677749 -0.00349383 0.00640909 ) 0 
( 0.000200428 -0.00315427 0.00222841 ) 0 
( 0.00998688 -0.00257485 0.0023593 ) 0 
( 0.00410785 -0.00639121 0.00330479 ) 0 
( 0.00076789 -0.00588074 0.00166193 ) 0 
( 0.0054981 -0.00588434 0.000498969 ) 0 
( 0.00313045 -0.00677915 0.00572845 ) 0 
( 0.0110134 -0.00421791 0.000498048 ) 0 
( 0.000226918 -0.0110585 0.00398571 ) 0 
( 0.00100484 -0.00267751 0.000499544 ) 0 
( 0.00237463 -0.00785491 0.000499646 ) 0 
( 0.0106091 -0.000399165 0.00122889 ) 0 
( 0.000830313 -0.00895911 0.00662973 ) 0 
( 0.00695255 -0.0067835 0.00217914 ) 0 
( 0.00621399 -0.00161698 0.00449007 ) 0 
( 0.00898252 -0.00987457 0.00448246 ) 0 
( 0.00508983 -0.00726667 0.00592709 ) 0 
( 0.00363461 -0.00974118 0.00117358 ) 0 
( 0.00638282 -0.0107351 0.00456424 ) 0 
( 0.00741236 -0.00285 0.00748755 ) 0 
( 0.0020236 -0.00481005 0.00682317 ) 0 
( 0.00702695 -0.00267429 0.00589325 ) 0 
( 0.00340156 -0.0026837 0.00268039 ) 0 
( 0.000361148 -0.013344 0.00610965 ) 0 
( 0.0069828 -0.00429815 0.00585144 ) 0 
( 0.00259507 -0.00658825 0.0048112 ) 0 
( 0.0112944 -0.00308935 0.00231372 ) 0 
( 0.00641574 -0.0106199 0.00357186 ) 0 
( 0.00586059 -0.00139598 0.00248587 ) 0 
( 0.00815967 -0.00372108 0.0017248 ) 0 
( 0.011767 -0.00237659 0.0043928 ) 0 
( 0.00222591 -0.0113507 0.00307873 ) 0 
( 0.00268137 -0.00159898 0.0061532 ) 0 
( 0.00356716 -0.00546801 0.00462554 ) 0 
( 0.0026321 -0.012049 0.000499789 ) 0 
( 0.00639427 -0.0117193 0.00701568 ) 0 
( 0.00395247 -0.011771 0.00408374 ) 0 
( 0.00395147 -0.00606923 0.00135787 ) 0 
( 0.000703134 -0.00668375 0.00235247 ) 0 
( 0.00380426 -0.00882433 0.00637488 ) 0 
( 0.00729138 -0.00383697 0.00738494 ) 0 
( 0.0054864 -0.0108971 0.00497534 ) 0 
( 0.00413594 -0.0126941 0.00227116 ) 0 
( 0.0017382 -0.00853592 0.00478935 ) 0 
( 0.00359875 -0.00896603 0.00734164 ) 0 
( 0.00360944 -0.00649688 0.00227008 ) 0 
( 9.81318e-05 -0.0105377 0.00743276 ) 0 
( 0.00247124 -0.00200039 0.00518889 ) 0 
( 0.00523145 -0.0113798 0.00581256 ) 0 
( 0.00298654 -0.000186595 0.00323179 ) 0 
( 0.0091102 -0.000889316 0.00216657 ) 0 
( 0.00158488 -0.00411127 0.00296547 ) 0 
( 0.00152248 -0.00973931 0.000992437 ) 0 
( 0.00854598 -0.00931022 0.00524123 ) 0 
( 0.00490859 -0.00935395 0.00368505 ) 0 
( 7.48102e-05 -0.000604109 0.00804753 ) 0 
( 0.00270842 -0.0110299 0.000498353 ) 0 
( 0.00238179 -0.00180889 0.00372777 ) 0 
( 0.0119883 -0.00378703 0.00316525 ) 0 
( 0.00170852 -0.00942466 0.00291237 ) 0 
( 0.0106909 -0.00152788 0.0029194 ) 0 
( 0.00142163 -0.0132744 0.00456799 ) 0 
( 0.0119144 -0.00602528 0.00535837 ) 0 
( 0.00392309 -0.00172397 0.00748464 ) 0 
( 0.00590808 -0.00373809 0.000499527 ) 0 
( 0.00702319 -0.0113537 0.00199691 ) 0 
( 0.00272397 -0.0116412 0.00389435 ) 0 
( 0.00858538 -0.000725836 0.0051274 ) 0 
( 0.0060848 -0.00635466 0.00246116 ) 0 
( 0.00259446 -0.00902885 0.00497925 ) 0 
( 0.00757764 -0.00615809 0.00171515 ) 0 
( 0.00360399 -0.00449931 0.000498241 ) 0 
( 0.00130081 -0.00417615 0.00786252 ) 0 
( 0.000264825 -0.00671867 0.00145471 ) 0 
( 0.00246273 -0.0044818 0.00598747 ) 0 
( 0.000805636 -0.0092552 0.00344005 ) 0 
( 0.00629013 -0.000629 0.00374129 ) 0 
( 0.0117007 -0.00544982 0.000499796 ) 0 
( 0.012228 -0.00535743 0.00644766 ) 0 
( 0.00585484 -0.0119429 0.000497763 ) 0 
( 0.00172266 -0.00436075 0.00137543 ) 0 
( 0.00979601 -0.00761095 0.00427136 ) 0 
( 0.000477082 -0.00823629 0.00603856 ) 0 
( 0.00243256 -0.00940761 0.00715434 ) 0 
( 0.00605535 -0.00717922 0.00189698 ) 0 
( 0.000995284 -0.0114394 0.00177444 ) 0 
( 0.0133022 -0.00112775 0.00123136 ) 0 
( 0.00590133 -0.00702497 0.00754489 ) 0 
( 0.0114205 -0.00216033 0.00266018 ) 0 
( 0.00412648 -0.00983932 0.00206892 ) 0 
( 0.00485965 -0.00162251 0.000499567 ) 0 
( 0.00143928 -0.000831472 0.00700112 ) 0 
( 0.00399085 -0.00495601 0.00291957 ) 0 
( 0.0066584 -0.00535758 0.00619841 ) 0 
( 0.0112132 -0.00702181 0.00436735 ) 0 
( 0.000285573 -6.79515e-05 0.00117917 ) 0 
( 0.0120251 -0.00253168 0.00049979 ) 0 
( 0.00589504 -0.00333144 0.00279207 ) 0 
( 0.000987106 -0.0107298 0.00591459 ) 0 
( 0.00528202 -0.00822267 0.00614389 ) 0 
( 0.00993384 -0.00702082 0.00134968 ) 0 
( 0.00624043 -0.00818672 0.00642586 ) 0 
( 0.0108131 -0.0078304 0.00600733 ) 0 
( 0.0019517 -0.0103446 0.00682607 ) 0 
( 0.00265099 -0.00198541 0.00174788 ) 0 
( 0.00185385 -0.00333498 0.00239151 ) 0 
( 0.00941614 -0.00189918 0.00189452 ) 0 
( 0.000418094 -0.0133438 0.00280111 ) 0 
( 0.00582815 -0.0069903 0.00318863 ) 0 
( 0.00502615 -0.00176846 0.00337861 ) 0 
( 0.00487991 -0.000755673 0.00523931 ) 0 
( 0.00714778 -0.00823173 0.00685524 ) 0 
( 0.00332276 -0.00955049 0.0058884 ) 0 
( 0.007775 -0.000691108 0.00602543 ) 0 
( 0.00264397 -0.00326613 0.00677248 ) 0 
( 0.00339626 -0.0045128 0.00224994 ) 0 
( 0.00723244 -0.00302661 0.00395576 ) 0 
( 0.00484965 -0.00175062 0.00786065 ) 0 
( 0.00561441 -0.000582106 0.00612314 ) 0 
( 0.00691679 -0.000518823 0.00760247 ) 0 
( 0.00933177 -0.00252018 0.00660869 ) 0 
( 0.00536218 -0.0040672 0.0070259 ) 0 
( 0.00675551 -0.00579618 0.000498476 ) 0 
( 0.00344261 -0.0118303 0.00322623 ) 0 
( 0.00325902 -0.00156014 0.000498941 ) 0 
( 0.00165801 -0.000306772 0.0034871 ) 0 
( 0.0111954 -0.00207502 0.00363004 ) 0 
( 0.00814145 -0.0105796 0.0004988 ) 0 
( 0.00279994 -0.00343945 0.00480596 ) 0 
( 0.00830575 -0.00197956 0.00342306 ) 0 
( 0.00629712 -0.00360765 0.00553946 ) 0 
( 0.00949202 -0.00301679 0.000499709 ) 0 
( 0.00492709 -0.000960151 0.00674274 ) 0 
( 0.0108686 -0.00133002 0.00713557 ) 0 
( 0.00338917 -0.0016588 0.00233794 ) 0 
( 0.00278255 -0.004934 0.0029166 ) 0 
( 0.0035495 -0.00754348 0.00506044 ) 0 
( 0.00615728 -0.00689072 0.00414561 ) 0 
( 0.00662455 -0.010667 0.00126881 ) 0 
( 0.00489081 -0.00686256 0.00286757 ) 0 
( 0.0102105 -0.00459126 0.00287731 ) 0 
( 0.00658528 -0.00100665 0.00597574 ) 0 
( 0.0118598 -0.00367571 0.000497761 ) 0 
( 0.00477613 -0.004761 0.00536625 ) 0 
( 0.0101862 -0.00863098 0.00653855 ) 0 
( 0.000852504 -0.0103489 0.000498301 ) 0 
( 0.00165937 -0.00621073 0.00253073 ) 0 
( 0.0076393 -0.00361373 0.00324394 ) 0 
( 0.00692934 -0.00881983 0.00607386 ) 0 
( 0.00471644 -0.000306534 0.00330055 ) 0 
( 0.00217192 -0.00703266 0.00560067 ) 0 
( 0.000247914 -0.00921055 0.00535524 ) 0 
( 0.00269873 -0.00545733 0.00717502 ) 0 
( 0.0105039 -0.00579967 0.00228857 ) 0 
( 0.00353405 -0.00932505 0.0048123 ) 0 
( 0.0122819 -0.00523356 0.00140186 ) 0 
( 0.00462362 -0.00224251 0.00124722 ) 0 
( 0.0117885 -0.00153854 0.00549125 ) 0 
( 0.00731344 -0.0045108 0.0035499 ) 0 
( 0.001467 -0.00827419 0.000499351 ) 0 
( 0.00429989 -0.00905856 0.00147023 ) 0 
( 0.00574199 -0.0068493 0.00655916 ) 0 
( 0.0070002 -0.000982775 0.00118158 ) 0 
( 0.00810653 -0.00114873 0.00699963 ) 0 
( 0.0109794 -0.00583429 0.00503621 ) 0 
( 0.0126577 -0.00033867 0.0060993 ) 0 
( 0.00732546 -0.00170522 0.00600147 ) 0 
( 0.00761027 -0.00623181 0.00354321 ) 0 
( 0.0074672 -0.00703505 0.0041203 ) 0 
( 0.00639785 -0.00935976 0.000498094 ) 0 
( 0.00387902 -0.00917675 0.00388141 ) 0 
( 0.00863597 -0.00182204 0.00127537 ) 0 
( 0.00858355 -0.000521762 0.0012206 ) 0 
( 0.00296169 -0.00584363 0.00536901 ) 0 
( 0.0129381 -0.00226276 0.00134278 ) 0 
( 0.0014825 -0.0117143 0.00684886 ) 0 
( 0.00291601 -0.0066539 0.00321098 ) 0 
( 0.00771539 -0.00607448 0.000499231 ) 0 
( 0.00182845 -0.00593213 0.00149031 ) 0 
( 0.00402411 -0.0127292 0.000568837 ) 0 
( 0.00142757 -0.00192786 0.00137164 ) 0 
( 0.000196649 -0.00460563 0.00709132 ) 0 
( 0.00125615 -0.00673653 0.00133162 ) 0 
( 0.00559253 -0.000387808 0.00464303 ) 0 
( 0.00861561 -0.0056359 0.00197414 ) 0 
( 0.00129363 -0.0113276 0.0027207 ) 0 
( 0.00695419 -0.00601743 0.00282104 ) 0 
( 0.00551521 -0.0121589 0.00419926 ) 0 
( 0.00400347 -0.00371622 0.00413866 ) 0 
( 0.0114338 -0.00523335 0.00194493 ) 0 
( 0.00212779 -0.00911792 0.000498597 ) 0 
( 0.00365209 -0.00728293 0.00296513 ) 0 
( 0.000436048 -0.0107544 0.00130944 ) 0 
( 0.00364086 -0.0128442 0.00685532 ) 0 
( 0.00263327 -0.00628761 0.00232576 ) 0 
( 0.0001629 -0.00730607 0.00585824 ) 0 
( 0.00205274 -0.0131908 0.00362404 ) 0 
( 0.00433449 -0.00484678 0.0044751 ) 0 
( 0.00526451 -0.00279202 0.0017831 ) 0 
( 0.00411234 -0.00990056 0.0053891 ) 0 
( 0.0110174 -0.00536708 0.00317003 ) 0 
( 0.00605976 -0.00522585 0.00396637 ) 0 
( 0.0050518 -0.0123598 0.0058622 ) 0 
( 0.00118327 -0.00239636 0.0044132 ) 0 
( 0.00329516 -0.0019491 0.00334842 ) 0 
( 0.00712134 -0.00114884 0.00681687 ) 0 
( 0.0123784 -0.0016011 0.00424002 ) 0 
( 0.00184165 -0.00357934 0.00505358 ) 0 
( 0.001287 -0.00710451 0.00648294 ) 0 
( 0.00368735 -0.00292902 0.00466588 ) 0 
( 0.0102776 -0.00852051 0.00552137 ) 0 
( 0.00506003 -0.00635954 0.00202071 ) 0 
( 0.0132636 -0.00151837 0.00508605 ) 0 
( 0.00220024 -0.00114433 0.0075689 ) 0 
( 0.00489299 -0.00629105 0.00624458 ) 0 
( 0.0055309 -0.00509831 0.00480527 ) 0 
( 0.00161278 -0.0124549 0.00510766 ) 0 
( 0.000562643 -0.00262015 0.00516342 ) 0 
( 0.00790851 -0.00826365 0.00620769 ) 0 
( 0.00828326 -0.00469876 0.00188405 ) 0 
( 0.0110033 -0.00315929 0.000499794 ) 0 
( 0.00675963 -0.00752796 0.00462504 ) 0 
( 0.00938082 -0.00644994 0.00558302 ) 0 
( 0.00170051 -0.00509848 0.00285681 ) 0 
( 0.00477937 -0.0114646 0.0045544 ) 0 
( 0.0107533 -0.000760028 0.00632261 ) 0 
( 0.00123917 -0.00978146 0.00623523 ) 0 
( 0.00197079 -0.00387911 0.00718372 ) 0 
( 0.00136625 -0.00732047 0.00749097 ) 0 
( 0.0117357 -0.00636458 0.00244351 ) 0 
( 0.00830022 -0.00727976 0.00586563 ) 0 
( 0.0107335 -0.00623756 0.00657441 ) 0 
( 0.00568086 -0.0120027 0.00517214 ) 0 
( 0.000277719 -0.002772 0.00642279 ) 0 
( 0.00307232 -0.00272331 0.00749483 ) 0 
( 0.00477186 -0.00650561 0.000790664 ) 0 
( 0.0066177 -0.0089209 0.00380005 ) 0 
( 0.0117227 -0.000561731 0.000722892 ) 0 
( 0.00707014 -0.0112917 0.00761506 ) 0 
( 0.00923981 -0.00444793 0.000499792 ) 0 
( 0.008247 -0.00726186 0.00219299 ) 0 
( 0.00762023 -0.00890344 0.00251295 ) 0 
( 0.00956956 -0.00931065 0.00248679 ) 0 
( 0.00356055 -0.00189006 0.00574974 ) 0 
( 0.00250121 -0.000782162 0.000499796 ) 0 
( 0.00867459 -0.00170784 0.00253652 ) 0 
( 0.00110705 -0.0114486 0.0036945 ) 0 
( 0.00936435 -0.00332674 0.0071981 ) 0 
( 0.00858887 -0.00551392 0.000498895 ) 0 
( 0.0123423 -0.00508976 0.00549135 ) 0 
( 0.0067316 -0.00234637 0.00131759 ) 0 
( 0.00177513 -0.00384067 0.000498769 ) 0 
( 0.0077819 -0.0108485 0.00583556 ) 0 
( 0.00956619 -0.00931187 0.00692809 ) 0 
( 0.000848654 -0.00952378 0.00241434 ) 0 
( 0.000598094 -0.0133385 0.00137291 ) 0 
( 0.00789292 -0.00529704 0.0032756 ) 0 
( 0.0028083 -0.00365995 0.00773175 ) 0 
( 0.00922906 -0.00860419 0.00310832 ) 0 
( 0.000983483 -0.00623336 0.000499795 ) 0 
( 0.00321273 -0.00086911 0.00770395 ) 0 
( 0.00171639 -0.00253965 0.00357992 ) 0 
( 0.00295177 -0.00172062 0.00724857 ) 0 
( 0.00753497 -0.010028 0.00406121 ) 0 
( 0.00386958 -0.00608519 0.00571157 ) 0 
( 0.0100574 -0.00120421 0.002217 ) 0 
( 0.00839708 -0.00205676 0.00745544 ) 0 
( 0.00858515 -0.00918597 0.00707468 ) 0 
( 0.0107804 -0.00502467 0.00448591 ) 0 
( 0.00298111 -0.00823997 0.00233801 ) 0 
( 0.00291577 -0.0115986 0.00239031 ) 0 
( 0.00164592 -0.0122879 0.000498863 ) 0 
( 0.0121761 -0.0054762 0.00256825 ) 0 
( 0.0046076 -0.00190572 0.00677837 ) 0 
( 0.00175137 -0.00976292 0.00196453 ) 0 
( 0.00141381 -0.0132757 0.00286058 ) 0 
( 0.0116886 -0.00644983 0.000499803 ) 0 
( 0.000614232 -0.000186282 0.00405823 ) 0 
( 0.0108894 -0.00772293 0.00500286 ) 0 
( 0.00206021 -0.00924291 0.0041605 ) 0 
( 0.00619957 -0.000792185 0.00696204 ) 0 
( 0.00650735 -0.0116571 0.00119718 ) 0 
( 0.00387193 -0.00285399 0.00607044 ) 0 
( 0.00615828 -0.0118456 0.00321047 ) 0 
( 0.0109331 -0.00590269 0.00402873 ) 0 
( 0.00207881 -0.000430049 0.00246047 ) 0 
( 0.00759788 -0.0035207 0.00573488 ) 0 
( 0.0122148 -0.00274451 0.00282482 ) 0 
( 0.0108166 -0.00735802 0.00300347 ) 0 
( 0.0057382 -0.00318339 0.00730237 ) 0 
( 0.00547999 -0.00220611 0.00415362 ) 0 
( 0.0100598 -0.00544917 0.00126191 ) 0 
( 0.00665499 -0.0063033 0.00135419 ) 0 
( 0.00198688 -0.00286366 0.000499954 ) 0 
( 0.000906857 -0.0016878 0.0050617 ) 0 
( 0.0070403 -0.0022388 0.00465008 ) 0 
( 0.00744495 -0.00988431 0.00211148 ) 0 
( 0.00292225 -0.00574141 0.000497951 ) 0 
( 0.00539157 -0.00369475 0.00137435 ) 0 
( 0.00151845 -0.00724566 0.00396192 ) 0 
( 0.0022336 -0.00624739 0.00675243 ) 0 
( 0.00251299 -0.00714342 0.00398364 ) 0 
( 0.00996072 -0.00227807 0.00114079 ) 0 
( 0.00112972 -0.000629695 0.00270234 ) 0 
( 0.00958009 -0.00588256 0.000499509 ) 0 
( 0.000995285 -0.0114641 0.00049979 ) 0 
( 0.00647925 -0.00430432 0.00405959 ) 0 
( 0.00037954 -0.00389365 0.0064139 ) 0 
( 0.00788162 -0.00269975 0.00285341 ) 0 
( 0.00874088 -0.0073851 0.00313808 ) 0 
( 0.00409642 -0.00549678 0.00375369 ) 0 
( 0.00795488 -0.00778169 0.00366992 ) 0 
( 0.00572925 -0.00308838 0.00374737 ) 0 
( 0.0101359 -0.00681653 0.00477382 ) 0 
( 0.00277323 -0.00313901 0.00205332 ) 0 