# Probe 0 (3e-05 0.050001 0.050001)
# Probe 1 (0.39999 0.050001 0.050001)
# Time        0             1            
0.001         1             1            
0.002         1             1            
0.003         1             1            
0.004         1             1            
0.005         1             1            
0.006         1             1            
0.007         1             1            
0.008         1             1            
0.009         1             1            
0.01          1             1            
