/*--------------------------------*- C++ -*----------------------------------*\
| =========                 |                                                 |
| \\      /  F ield         | OpenFOAM: The Open Source CFD Toolbox           |
|  \\    /   O peration     | Version:  2506                                  |
|   \\  /    A nd           | Website:  www.openfoam.com                      |
|    \\/     M anipulation  |                                                 |
\*---------------------------------------------------------------------------*/
FoamFile
{
    version     2.0;
    format      ascii;
    arch        "LSB;label=32;scalar=64";
    class       volScalarField;
    location    "0.009";
    object      p;
}
// * * * * * * * * * * * * * * * * * * * * * * * * * * * * * * * * * * * * * //

dimensions      [0 2 -2 0 0 0 0];

internalField   nonuniform List<scalar> 
512
(
0.0478673
0.332099
0.0659375
-0.294683
-0.0572237
0.219456
0.00762561
-0.564048
-0.775424
-0.406185
-0.213876
-0.268153
-0.461469
-0.57276
-0.304294
-0.149185
0.100076
0.389216
0.416002
0.480179
0.70327
0.627971
0.410183
0.133192
0.199344
0.290726
0.220597
0.249784
0.464199
0.481461
0.0796854
-0.214935
0.0103698
0.106473
-0.000168904
-0.12491
-0.0197338
0.0535019
-0.112734
-0.603593
-0.843862
-0.49146
-0.262065
-0.219646
-0.087322
-0.290616
-0.349174
0.00842422
0.246856
0.427603
0.403752
0.31199
0.584118
0.699888
0.395753
0.0965967
0.169648
0.335079
0.345433
0.325832
0.433508
0.323842
-0.0241363
-0.145757
0.0879854
0.0848434
0.0649886
0.112103
0.00402217
0.0356179
-0.0698923
-0.46909
-0.784759
-0.681846
-0.425655
-0.292398
-0.180428
-0.267914
-0.130809
0.198567
0.294739
0.163439
0.0719057
0.213584
0.422829
0.569095
0.432019
0.244336
0.314472
0.370397
0.277716
0.350404
0.447071
0.264037
-0.0509122
-0.0413895
-0.546169
-0.153233
0.0230838
0.0459424
0.104776
0.0855076
-0.0282629
-0.339805
-0.679401
-0.707714
-0.500456
-0.346064
-0.15468
-0.0354045
0.0843899
0.322476
0.369918
0.190758
0.106932
0.302038
0.471216
0.572828
0.390791
0.157411
0.173555
0.403086
0.351261
0.258511
0.453784
0.561259
0.188671
-0.373668
-0.0116166
-0.070033
-0.0794454
0.0494261
0.192316
0.0871186
-0.131967
-0.420424
-0.675525
-0.704237
-0.575563
-0.418881
-0.148302
0.074299
0.106971
0.236175
0.194402
0.0257534
0.286105
0.411218
0.318101
0.302408
0.1678
0.144841
0.314312
0.41167
0.463011
0.403531
0.191361
0.0305302
0.239531
0.18475
-0.178097
-0.0451128
0.0739869
0.153428
0.178743
0.144681
-0.0730571
-0.408928
-0.752548
-0.770718
-0.325612
-0.16877
-0.199723
-0.0508261
0.100655
0.118985
0.0512112
0.13256
0.361572
0.430579
0.34151
0.136459
0.00648443
0.288995
0.570852
0.461847
0.25016
0.231641
0.320527
0.3432
0.128121
-0.0883564
-0.0507294
-0.120502
-0.0897698
0.00406936
-0.0138095
-0.130871
-0.194401
-0.215977
-0.49564
-0.593171
-0.299066
-0.232817
-0.370759
-0.170138
0.229543
0.0824135
-0.0590442
0.104157
0.295648
0.332621
0.425829
0.392052
0.258987
0.296793
0.365703
0.222485
0.0518507
0.168488
0.371623
0.511355
0.394843
0.0912936
-0.225429
-0.150085
0.058847
0.174053
0.0212545
-0.269732
-0.173872
-0.218457
-0.436746
-0.48511
-0.304705
-0.340111
-0.330206
-0.00211845
0.123746
0.0120375
0.0664829
0.2152
0.44247
0.514445
0.481694
0.304859
0.060824
0.156694
0.257517
0.202521
0.165682
0.209163
0.434662
0.553011
0.386291
0.0839867
-0.270315
0.212706
0.257176
0.0119879
-0.0214582
0.28126
0.1277
-0.505099
-0.70058
-0.532392
-0.401561
-0.179651
-0.00942408
-0.266673
-0.585704
-0.296824
0.241218
0.537536
0.548913
0.45096
0.478957
0.569068
0.47018
0.246949
0.172636
0.260961
0.13574
0.181973
0.53883
0.472349
-0.00958504
-0.419786
-0.21372
0.2307
0.308764
-0.0582224
-0.285807
0.218609
0.215594
-0.512755
-0.995168
-0.834653
-0.375871
-0.077842
0.060347
-0.0590905
0.0483226
0.302501
0.215739
0.108481
0.372861
0.457634
0.409038
0.454066
0.322653
0.196327
0.310312
0.227563
0.198385
0.110917
0.163255
0.417689
0.196824
-0.325074
-0.165518
0.146394
0.0125582
-0.183993
0.213577
0.290676
-0.155367
-0.903859
-0.844635
-0.388829
-0.368007
-0.321525
-0.21209
-0.205418
0.00353906
0.225141
0.400682
0.354965
-0.0249481
-0.116539
0.43626
0.727563
0.416145
0.22433
0.304363
0.448532
0.4676
0.276353
0.111904
0.336147
0.408481
-0.0741328
-0.518038
-0.253952
0.122658
0.17016
0.302308
0.360771
0.0309354
-0.441214
-0.634896
-0.830966
-0.59785
-0.176167
-0.132356
-0.0762097
0.18991
0.451225
0.507444
0.47491
0.230517
0.12293
0.371397
0.601826
0.196134
-0.126457
-0.0882341
0.258819
0.335336
0.246084
0.325377
0.452728
0.421797
-0.0945516
-0.156433
-0.164213
-0.0497378
0.0617871
0.160114
0.134361
-0.00427157
-0.479984
-0.769511
-0.538635
-0.327665
-0.248487
-0.0410769
-0.0246531
-0.150212
-0.0296292
0.271272
0.431675
0.33985
0.385582
0.350745
0.267831
0.0524308
-0.20363
-0.0275566
0.392433
0.525351
0.225044
0.0885299
0.348624
0.501227
0.270553
-0.266183
-0.286295
-0.124382
0.0485227
0.240793
0.0795345
-0.47431
-0.882137
-0.582425
-0.30205
-0.299587
-0.0442607
0.232048
0.0967516
0.14766
0.196033
0.0599872
0.00478661
0.268867
0.451373
0.334099
-0.171869
-0.529161
0.0288105
0.512425
0.551952
0.437064
0.377449
0.509415
0.642619
0.63247
0.257198
-0.338694
0.276109
0.224689
-0.161562
-0.304654
-0.183977
-0.124476
-0.268062
-0.44393
-0.404134
-0.44969
-0.383826
-0.0997952
0.221072
0.293089
0.0050788
-0.0381427
0.21707
0.514845
0.383888
0.190502
0.290674
0.233223
0.178734
0.407657
0.394674
0.0711926
-0.0703237
0.18327
0.632246
0.494851
-0.201278
-0.606353
-0.0292228
0.227792
-0.0800548
-0.252085
-0.135143
-0.110861
-0.251882
-0.378132
-0.374709
-0.467222
-0.455196
-0.183499
0.117071
0.0124963
-0.0641527
0.283209
0.301918
0.486257
0.585662
0.463697
0.252791
0.121038
0.208331
0.237079
0.158438
0.260678
0.354016
0.194681
0.47496
0.595749
-0.112192
)
;

boundaryField
{
    wall
    {
        type            zeroGradient;
    }
    outlet
    {
        type            cyclic;
    }
    inlet
    {
        type            cyclic;
    }
    procBoundary3to2
    {
        type            processor;
        value           nonuniform List<scalar> 
256
(
-0.085787
0.138059
0.0496819
-0.207378
-0.151142
0.196342
0.0819241
-0.240603
-0.718008
-0.746174
-0.348655
-0.189025
-0.375812
-0.3542
-0.0850048
0.0878582
0.129395
0.170328
0.260007
0.360793
0.44941
0.519201
0.340046
-0.024584
0.0718646
0.326891
0.287671
0.313745
0.646922
0.774099
0.38615
-0.103823
0.189191
0.0652244
-0.209204
-0.202017
-0.0686523
0.0328916
0.0186843
-0.314992
-0.783564
-0.615507
-0.317899
-0.223269
-0.294846
-0.280222
0.0346632
0.177035
0.214007
0.239385
0.178584
0.216352
0.406315
0.62935
0.475643
0.127311
0.212617
0.434687
0.398342
0.238097
0.305339
0.307604
0.0613759
0.0376523
0.0246493
-0.114033
0.00822357
0.199475
0.0219251
0.00923403
-0.0170507
-0.319171
-0.761451
-0.749005
-0.432363
-0.168662
-0.188799
-0.274082
-0.116893
0.152441
0.230882
0.0945062
0.0989945
0.437247
0.521327
0.482446
0.270409
0.0904533
0.201738
0.360913
0.391095
0.375394
0.52346
0.45241
0.17103
-0.0195283
-0.339625
-0.172386
0.0436436
0.0362666
-0.025721
-0.0374641
0.0475143
-0.0658064
-0.567123
-0.837207
-0.695436
-0.239112
-0.0544672
-0.0713434
0.0413736
0.233241
0.280279
0.259954
0.190865
0.388278
0.491129
0.425238
0.223955
0.0799029
0.194662
0.337117
0.393537
0.373227
0.413591
0.487725
0.273753
-0.14651
-0.00359401
-0.137528
0.0263706
0.0501156
0.0209987
-0.050338
-0.131716
-0.268681
-0.537415
-0.658839
-0.546761
-0.272344
0.000307916
0.14651
0.0301675
0.177899
0.193896
0.14792
0.396497
0.489073
0.257874
0.177686
0.14579
0.152012
0.264562
0.284147
0.274396
0.379677
0.27873
0.126258
0.251799
0.259824
-0.210738
-0.489876
0.0689661
0.373048
0.188462
-0.230419
-0.358995
-0.349853
-0.385381
-0.493429
-0.51998
-0.281533
-0.0529804
0.0607665
0.176487
0.133151
0.0276459
0.211384
0.339248
0.214974
0.143717
0.148904
0.108283
0.25483
0.435266
0.382545
0.30879
0.467791
0.384689
0.269485
0.385059
0.276928
-0.303445
-0.36874
0.141086
0.486645
0.275057
-0.324589
-0.591677
-0.411826
-0.466529
-0.54916
-0.362405
-0.19597
-0.216962
0.0150523
0.523983
0.465808
0.022475
-0.00116676
0.31606
0.202147
-0.0664063
0.093975
0.397088
0.403776
0.374808
0.355395
0.367922
0.402199
0.350692
0.281377
0.275945
0.0484153
-0.254335
-0.310427
0.103481
0.375362
0.11717
-0.177596
-0.296352
-0.416908
-0.640836
-0.642738
-0.468259
-0.416665
-0.243533
0.164219
0.387565
0.303777
0.0116337
0.0896656
0.333292
0.287015
0.0951912
0.0684377
0.349398
0.462581
0.44246
0.410545
0.431512
0.477266
0.34006
0.11973
0.174207
0.12844
)
;
    }
}


// ************************************************************************* //
