/*--------------------------------*- C++ -*----------------------------------*\
| =========                 |                                                 |
| \\      /  F ield         | OpenFOAM: The Open Source CFD Toolbox           |
|  \\    /   O peration     | Version:  2506                                  |
|   \\  /    A nd           | Website:  www.openfoam.com                      |
|    \\/     M anipulation  |                                                 |
\*---------------------------------------------------------------------------*/
FoamFile
{
    version     2.0;
    format      ascii;
    arch        "LSB;label=32;scalar=64";
    class       surfaceScalarField;
    location    "0.009";
    object      phi;
}
// * * * * * * * * * * * * * * * * * * * * * * * * * * * * * * * * * * * * * //

dimensions      [0 3 -1 0 0 0 0];

oriented        oriented;

internalField   nonuniform List<scalar> 
1200
(
0.00154077
-1.15643e-06
4.59191e-06
0.0015343
2.91669e-06
4.9683e-06
0.00152933
3.52263e-06
1.18435e-06
0.00153413
-2.95688e-06
-2.97323e-06
0.00153804
-2.7587e-06
-5.29891e-06
0.00153413
1.46617e-06
-3.80496e-06
0.0015264
1.06364e-06
-3.22637e-06
0.00153059
-8.67849e-07
-4.09077e-06
0.00153824
-1.68997e-06
1.34351e-06
0.00153908
-1.44344e-06
5.61397e-06
0.00153549
-2.04429e-07
1.03506e-05
0.0015333
1.84857e-06
6.27036e-06
0.00153213
2.25228e-06
-5.34628e-07
0.00153265
-4.32181e-07
-3.21324e-06
0.00153008
1.73928e-06
-2.35509e-06
0.0015312
6.4392e-07
-2.26751e-06
0.00153553
-2.60138e-06
-1.85584e-06
0.00153577
-2.06306e-06
-5.76939e-07
0.0015365
-2.16264e-06
-1.68662e-06
0.0015367
-1.06739e-06
-2.60682e-06
0.00153556
4.56852e-07
-2.22329e-06
0.00153415
-1.71223e-08
2.56019e-06
0.00153546
3.14626e-07
2.92247e-06
0.00153673
-5.5182e-07
-1.9535e-06
0.00153673
-8.93022e-07
-3.54642e-06
0.00153742
-9.97974e-07
-2.24319e-06
0.00153741
-1.48264e-06
1.08223e-06
0.00153503
-1.90163e-08
3.09347e-06
0.00153323
1.16946e-06
2.6427e-06
0.00153168
1.47209e-06
3.05363e-06
0.00153505
1.91078e-06
-1.23094e-06
-8.74954e-07
-1.88247e-06
0.00157526
-1.83815e-06
3.67982e-07
0.00157495
2.25778e-06
1.72492e-06
0.00157194
5.40544e-06
2.21997e-07
0.00156534
1.47369e-06
1.96448e-07
0.00156153
-1.59758e-06
-1.60859e-06
0.00156188
5.02946e-07
-6.70322e-06
0.00156039
1.15919e-06
-3.71008e-06
0.00156226
-1.43925e-07
-6.37054e-07
0.00156611
-2.46671e-06
1.06397e-06
0.00156496
-1.22923e-06
5.02726e-06
0.00155922
1.02057e-06
1.00079e-05
0.00155657
2.6834e-06
8.10702e-06
0.00155269
2.81028e-06
4.9125e-06
0.00154963
1.57573e-07
1.07519e-06
0.00155088
6.30837e-07
-4.48667e-07
0.00155352
5.32247e-07
-3.93012e-06
0.0015567
-2.51805e-06
-3.82879e-06
0.00155298
-5.47203e-07
2.4954e-07
0.00154996
-6.27656e-07
-8.22229e-07
0.00155756
-3.7057e-06
-5.35045e-06
0.00156374
-2.80827e-06
-4.42223e-06
0.00156545
-4.28684e-07
-1.41189e-06
0.00156529
7.66746e-07
2.1641e-06
0.00156295
5.79808e-07
1.19944e-07
0.0015629
-2.67934e-07
-3.14404e-06
0.00156464
-3.0785e-06
-5.22208e-07
0.00156413
-1.85726e-06
1.02591e-06
0.00156338
-1.0728e-06
-1.56782e-07
0.00156081
6.66174e-07
2.63876e-06
0.00155904
2.14292e-06
3.88903e-06
0.00156432
-5.36382e-07
1.07835e-06
-3.57996e-06
-8.83891e-07
0.0015613
2.24161e-06
4.4899e-06
0.00156217
6.69185e-07
-3.38997e-06
0.00156344
3.21031e-06
-7.05478e-06
0.00155931
3.6952e-06
-2.52241e-06
0.00155893
-1.72245e-06
-9.59308e-07
0.00156231
-2.86727e-06
-2.34556e-06
0.00156388
6.12177e-08
-4.91305e-06
0.00156482
-4.37024e-07
7.09166e-07
0.00156257
-3.92181e-07
8.32216e-06
0.00156309
6.80902e-08
4.15813e-06
0.00156329
1.79814e-06
-6.9783e-07
0.00156618
1.42043e-06
-1.15393e-06
0.00156513
2.21424e-06
-3.25701e-07
0.00156184
9.74293e-07
-1.30285e-06
0.00156273
-1.14935e-06
-2.29019e-06
0.00156586
-1.27975e-06
-1.71257e-06
0.00156641
-1.25558e-06
-6.4411e-07
0.00156614
-7.75823e-07
-1.98463e-06
0.00156314
-5.52815e-07
-1.82242e-06
0.00155477
-1.58628e-06
3.31639e-06
0.0015542
-3.23323e-06
3.31055e-06
0.00155701
-2.61122e-06
1.76033e-06
0.00155707
4.59554e-07
2.86488e-06
0.00155555
2.77384e-06
-2.09539e-07
0.00155385
2.22096e-06
-8.63742e-07
0.00155331
8.51046e-08
-2.34882e-06
0.00155544
-5.97638e-08
-5.42111e-06
0.00155385
-8.37282e-07
-1.48861e-06
0.00155176
-2.78083e-06
3.83709e-06
0.00155756
-3.26298e-06
1.77271e-06
0.0015645
-2.40274e-06
-2.60681e-07
5.63576e-07
1.95767e-06
0.00155915
-4.78102e-06
-1.94963e-07
0.00155844
-1.55496e-06
2.6251e-06
0.0015577
2.14098e-06
1.10666e-06
0.00155982
1.26758e-06
-1.04665e-07
0.001559
-1.41158e-06
8.26251e-07
0.00155779
-2.71169e-06
-1.16582e-06
0.00155986
-3.45926e-06
-7.09829e-06
0.00156613
-3.98163e-06
-5.19034e-06
0.00156866
3.86194e-06
-4.85406e-07
0.00156251
6.46282e-06
5.66912e-06
0.00155739
2.93388e-06
7.94892e-06
0.00156214
-2.3279e-06
4.6108e-06
0.00156185
2.14873e-06
3.65091e-06
0.00155597
4.19233e-06
3.04246e-06
0.00155626
-2.55397e-06
-1.58983e-07
0.00155963
-5.13555e-06
-5.14714e-07
0.00156118
-1.8086e-06
-1.26032e-06
0.00156346
1.13598e-06
-4.59423e-06
0.00156536
2.42049e-07
-5.76234e-06
0.00156447
2.66843e-07
-3.97176e-06
0.00156457
-1.55017e-07
-3.02919e-06
0.00156486
-3.89865e-07
-1.54662e-06
0.00156263
2.25118e-06
6.82448e-07
0.00155996
2.03271e-06
1.87057e-06
0.00155944
-1.45889e-07
1.44868e-06
0.00155369
3.02127e-07
2.07598e-06
0.00154999
-6.02228e-07
1.83048e-06
0.00155241
-5.44519e-06
-2.57714e-08
0.00155328
-3.333e-06
-1.13229e-06
0.00154693
1.20259e-06
2.41958e-06
0.00154438
9.76899e-07
2.18505e-06
-3.02185e-06
-4.79694e-07
0.00155849
8.66905e-07
4.15187e-09
0.00155725
1.45149e-06
-4.59892e-07
0.00156084
2.51211e-06
-2.72749e-06
0.00155987
4.05814e-06
-2.36225e-06
0.0015567
1.48211e-06
3.44553e-08
0.00155632
-1.616e-06
-1.84982e-06
0.00155186
-2.34351e-06
-4.48692e-06
0.00154823
-3.20998e-06
-1.98212e-06
0.00154845
4.16273e-06
3.07913e-06
0.00155143
5.45064e-06
1.44728e-06
0.00155503
1.18532e-07
-8.21087e-07
0.0015594
-3.98114e-06
-9.03268e-07
0.00156484
2.69967e-06
-2.24915e-07
0.00156614
5.81905e-06
-2.93286e-07
0.00156027
-4.76323e-07
8.04503e-07
0.00155568
-6.47759e-06
1.77573e-06
0.00155803
-6.70994e-06
-1.18047e-06
0.00156424
-1.77268e-06
-5.19195e-06
0.0015656
-1.76e-07
-2.67255e-06
0.0015658
-1.26874e-06
-1.5517e-06
0.00156476
-4.84243e-07
-1.48618e-06
0.00156044
3.07467e-06
2.1623e-07
0.00155848
3.75513e-06
-4.46156e-08
0.0015581
1.38521e-06
-6.24325e-07
0.0015594
-2.27354e-06
-6.71044e-07
0.00156255
-3.62916e-06
3.7793e-07
0.00156395
-2.27101e-06
-1.20694e-06
0.0015598
-2.60801e-06
7.81292e-07
0.00155305
-1.74228e-06
5.91742e-06
0.00155639
-4.55335e-07
4.10375e-06
0.00156057
2.78069e-07
2.99683e-06
7.66809e-07
7.33078e-07
0.00156518
-2.60047e-06
2.66411e-06
0.0015624
5.74847e-07
1.70966e-06
0.00155889
3.86446e-06
-2.34569e-06
0.00155928
2.61445e-06
-2.34069e-06
0.00156202
8.85412e-07
2.39746e-06
0.00155826
2.71973e-06
2.14101e-06
0.00154573
3.83832e-06
-1.85564e-06
0.00153387
8.17168e-07
2.64766e-06
0.00154519
-3.83735e-06
1.51877e-06
0.00156302
-4.73147e-06
-1.66657e-06
0.00156051
2.32463e-07
3.77987e-06
0.00155299
2.14432e-06
3.95197e-06
0.00155706
4.41343e-06
-5.33723e-06
0.0015631
4.15936e-06
-7.84121e-06
0.00156234
7.91366e-07
-2.74223e-06
0.00155935
-2.87048e-06
8.93284e-07
0.00155878
-4.90234e-06
-1.19896e-06
0.00156169
-3.93624e-06
-9.15776e-07
0.00156001
1.4216e-07
1.61465e-06
0.00155742
1.24257e-06
1.35907e-06
0.00155901
6.18966e-07
-2.5571e-06
0.00156147
1.35475e-06
-1.56867e-06
0.00156294
-4.81924e-07
4.53539e-06
0.0015617
-1.07751e-06
6.09129e-06
0.00156127
-3.18072e-06
3.94397e-06
0.00155931
-3.07573e-06
1.56954e-06
0.00155143
9.8306e-08
1.51036e-06
0.00154526
5.16027e-07
7.6463e-07
0.00153544
5.95369e-06
-1.2085e-06
0.00153061
6.06569e-06
-3.38044e-06
0.00154301
-7.12969e-07
-5.72641e-06
-2.6437e-06
-4.18984e-06
0.00155211
8.7446e-07
7.74851e-06
0.00154781
2.35266e-06
-2.70083e-06
0.0015561
3.61912e-07
-9.4723e-06
0.00156267
-1.54729e-06
-4.2319e-06
0.00156509
6.73599e-07
2.65853e-06
0.00156605
1.09832e-06
3.92431e-06
0.00156803
9.69702e-07
2.07951e-06
0.00156505
1.59433e-06
2.05445e-06
0.00156278
-9.36057e-07
-9.10789e-07
0.00156495
-2.87217e-06
-6.17655e-06
0.00156348
1.53663e-06
-8.5126e-08
0.00155503
4.46168e-06
4.05061e-06
0.00155209
3.57438e-06
1.76781e-06
0.00155944
6.57145e-07
-4.02314e-06
0.00156126
1.91073e-06
-3.54253e-06
0.00155949
1.18227e-06
4.31903e-07
0.00155644
-1.99102e-06
2.31484e-06
0.00155448
-4.12556e-06
5.49497e-07
0.00155603
-2.28342e-06
-1.34663e-06
0.00155859
-1.7047e-06
-5.30327e-08
0.00155915
-1.39026e-06
1.58975e-06
0.00156016
-1.10278e-06
-3.33399e-08
0.00156033
2.15067e-06
-2.48885e-06
0.00155817
1.09836e-06
3.71514e-07
0.00155374
-8.75481e-07
7.7856e-07
0.00155364
-1.14384e-06
-2.95898e-06
0.0015582
1.12606e-07
-4.32266e-06
0.0015587
1.15951e-06
-4.54454e-07
0.00156133
2.69391e-06
4.56096e-06
0.00155961
4.6951e-06
3.55061e-06
0.00155567
2.59138e-06
3.90901e-07
-4.88332e-07
3.40459e-06
0.00153588
8.08149e-06
0.00153504
1.67383e-06
0.00153486
-3.85682e-06
0.00153246
8.19264e-07
0.00153198
3.25673e-06
0.0015354
2.75499e-06
0.00153783
1.80937e-06
0.00153717
7.8353e-07
0.00153436
-4.28328e-07
0.00153245
-3.03889e-07
0.00153204
3.00241e-06
0.00153176
2.04031e-06
0.00153652
-3.24737e-06
0.00153915
-3.36746e-06
0.00153903
1.64814e-06
0.00154205
4.16476e-06
0.00154431
3.14784e-06
0.00154032
1.11598e-09
0.00153486
-1.67803e-08
0.00153279
6.04337e-07
0.00152898
2.52669e-06
0.0015239
1.14248e-06
0.00152858
-4.54107e-06
0.00153443
-5.95823e-06
0.0015359
-3.79615e-06
0.0015336
-2.20894e-06
0.00153255
-8.88565e-07
0.00153503
-1.35314e-06
0.00153774
9.81215e-07
0.00153806
2.11108e-06
0.0015398
-1.26603e-06
1.45727e-06
0.00146075
-4.61895e-06
0.00147007
-4.36109e-06
0.00147411
-2.86465e-06
0.00147359
-2.46702e-06
0.00146496
3.33072e-06
0.00145836
2.7187e-06
0.00145677
-1.67935e-06
0.00145557
-2.92978e-06
0.00145595
9.39466e-07
0.00146018
1.33992e-06
0.00146804
2.45803e-06
0.00147302
1.28352e-06
0.00147046
2.01344e-06
0.00146506
2.1357e-06
0.00146252
1.75548e-07
0.00146106
-7.9458e-07
0.00146122
-2.01376e-06
0.00146056
-3.70015e-08
0.00145893
-6.08124e-08
0.00145667
-3.60364e-07
0.001453
1.44706e-06
0.00145476
7.19728e-07
0.0014585
-8.18197e-07
0.00145725
-6.9669e-07
0.00145081
2.87897e-06
0.00144427
4.28489e-06
0.00144568
-3.65964e-07
0.00145401
-5.25538e-06
0.00145764
-1.04655e-06
0.00145996
7.20942e-07
0.0014559
2.80542e-06
2.45158e-06
0.00146966
-3.16103e-06
0.00146884
-1.83606e-06
0.0014631
3.09038e-06
0.0014592
1.54215e-06
0.00146182
-9.10352e-07
0.00145668
1.02788e-06
0.00144869
2.50193e-06
0.00144217
2.956e-06
0.00144337
7.36324e-07
0.00145103
-1.32459e-06
0.00146599
-2.49683e-06
0.00147668
-1.34188e-06
0.00148439
-7.9843e-07
0.00148624
1.35461e-06
0.00148156
4.38963e-06
0.00147217
4.64479e-06
0.00146742
-1.10857e-06
0.00147158
-3.98391e-06
0.00146865
2.01528e-06
0.00145664
6.26449e-06
0.00145005
3.58663e-06
0.00145026
-9.85815e-07
0.00145237
-8.06765e-07
0.00145158
2.118e-07
0.00144977
1.49225e-06
0.00145365
-1.18332e-07
0.00145849
-4.18014e-06
0.00145649
-3.50282e-06
0.00145611
1.94391e-06
0.0014581
2.60504e-06
0.00146419
-2.22483e-06
-5.02856e-06
0.00146844
3.46613e-07
0.00145982
3.34888e-06
0.00145296
2.85905e-06
0.00145136
5.94125e-07
0.00145259
-3.06306e-06
0.00145526
-4.02151e-06
0.0014546
-1.81169e-06
0.00145789
3.62957e-07
0.00146725
-3.16236e-07
0.00146849
1.46857e-06
0.00146709
-1.79404e-06
0.00146896
-4.36202e-06
0.00147049
-2.6854e-06
0.00147065
-1.165e-07
0.00147242
3.27213e-07
0.00147443
8.89207e-07
0.00147143
1.25752e-06
0.00146464
8.07353e-07
0.00146765
-2.8287e-06
0.00148249
-5.26318e-06
0.00149265
-3.27503e-06
0.00149407
-6.58202e-07
0.00149244
3.65877e-06
0.00148669
5.68449e-06
0.00148078
6.51715e-06
0.0014733
4.96887e-06
0.00146175
1.91172e-06
0.00145703
-3.94386e-07
0.00146389
-1.08025e-06
0.00146874
-4.69459e-07
0.00146694
-7.66507e-07
-3.70212e-06
0.00146598
-4.80677e-06
0.00147569
-3.72779e-06
0.00148052
-8.62508e-07
0.0014795
1.51281e-06
0.00147979
-2.51424e-06
0.00148065
-6.06005e-06
0.00147485
-3.19321e-06
0.00146444
5.53998e-06
0.00145566
7.96175e-06
0.00146376
-9.38156e-07
0.00147552
-5.61918e-06
0.00147689
-1.13857e-06
0.00147765
1.97619e-07
0.00148016
4.16647e-07
0.00147922
1.07996e-06
0.0014791
4.7179e-07
0.00147972
-6.22043e-07
0.00147575
1.6391e-07
0.00146714
-1.0268e-08
0.00146217
-4.32805e-06
0.0014607
-4.83065e-06
0.00145962
-1.23886e-06
0.00146101
2.90864e-06
0.00146341
5.14761e-06
0.00146758
3.75981e-06
0.00147146
3.14411e-06
0.00147227
2.91971e-06
0.00146842
3.39165e-06
0.0014634
2.80157e-06
0.00146244
2.84757e-06
0.00146298
8.04362e-07
-2.27694e-06
0.00147336
2.61102e-06
0.00146775
1.39425e-06
0.00146379
3.22682e-07
0.00146232
6.20735e-07
0.00146318
-3.37429e-06
0.00145921
-3.95373e-06
0.00144955
1.8552e-06
0.00144416
8.91873e-06
0.00145126
3.90767e-06
0.00144905
2.67298e-06
0.00144193
6.35027e-07
0.00144028
-4.00409e-07
0.0014404
-2.09452e-07
0.00144162
-1.07379e-06
0.00145261
-9.14284e-06
0.00146756
-1.27739e-05
0.00147078
-5.02597e-06
0.00146691
-1.19529e-06
0.001463
1.19686e-06
0.00145484
2.25007e-06
0.00144661
1.85335e-06
0.00144169
3.84802e-06
0.00143633
8.25648e-06
0.00143714
3.70629e-06
0.00144425
-4.03922e-06
0.00145078
-3.04043e-06
0.00145198
4.67496e-07
0.00145301
3.14103e-06
0.0014615
2.20256e-07
0.001472
-3.60877e-06
0.00147969
-3.90813e-06
-2.68877e-06
0.00146911
4.08177e-06
0.00147121
1.00715e-06
0.00146545
3.72705e-06
0.00146191
1.8e-06
0.0014621
-1.16693e-06
0.00145701
3.27959e-06
0.00145518
1.77307e-06
0.00146863
-1.95357e-06
0.00147494
-8.91352e-07
0.00147607
-1.41845e-07
0.00148033
1.60984e-07
0.00148138
2.49889e-06
0.00147289
2.8761e-06
0.00146495
-9.77294e-07
0.00146059
-7.5663e-06
0.001453
-4.33536e-06
0.00145074
-3.98935e-06
0.0014569
-8.26923e-06
0.00146589
-6.16615e-06
0.00146661
2.79814e-06
0.0014579
8.00346e-06
0.00145956
6.26436e-07
0.00147725
-4.91331e-06
0.00149245
-5.41855e-06
0.0014976
-5.27578e-06
0.00150072
-4.58957e-06
0.00150347
-7.7314e-07
0.00150058
6.81521e-06
0.00149509
4.43401e-06
0.00148843
-3.34423e-07
0.00147892
-2.09613e-07
4.08076e-06
0.0014806
4.98844e-06
0.00147098
7.90179e-06
0.00145728
7.89119e-06
0.00145596
-1.11743e-06
0.00146274
-5.31193e-06
0.00146843
1.51344e-06
0.00146743
4.77589e-06
0.00146625
1.27212e-06
0.00146549
-1.06617e-06
0.00146034
-1.20009e-06
0.00146202
-1.61634e-06
0.00146895
-4.02635e-07
0.00147381
-2.19793e-07
0.00147057
-1.75638e-06
0.00146105
-1.59564e-06
0.00145426
2.85054e-06
0.00145166
9.10463e-07
0.00144831
-4.38653e-06
0.00144715
-6.3643e-06
0.00145511
-5.27949e-06
0.00146636
-1.65101e-06
0.00146599
9.56763e-07
0.00145827
3.0491e-07
0.00145877
-5.57293e-06
0.00145821
-3.95953e-06
0.00145
6.08251e-07
0.00144496
-8.512e-08
0.00145382
-2.51264e-06
0.00146695
-4.13151e-06
0.00146965
4.84244e-07
0.00146783
1.99307e-06
1.53636e-06
0.0014538
0.00146338
0.00146737
0.00146706
0.001465
0.00146927
0.00147585
0.00147791
0.00147641
0.00147484
0.00147623
0.00147786
0.00147438
0.00146925
0.00146929
0.0014763
0.0014803
0.00147591
0.00146953
0.00146484
0.0014657
0.00146778
0.00146352
0.00145199
0.00144418
0.00144257
0.00144159
0.00143769
0.00143449
0.00143709
0.0014378
)
;

boundaryField
{
    wall
    {
        type            calculated;
        value           nonuniform List<scalar> 
384
(
1.59792e-09
-4.11414e-09
1.08072e-07
3.8314e-39
4.48468e-08
5.96275e-08
5.74084e-10
-4.28713e-17
9.62952e-09
1.98835e-08
5.47059e-08
-3.4848e-09
2.71793e-08
-1.5274e-09
1.6407e-08
-6.30297e-10
7.0637e-09
6.01928e-09
3.105e-08
4.9951e-10
4.7153e-08
8.85785e-09
6.39562e-08
2.92376e-08
9.46348e-09
8.40368e-08
2.78384e-08
-8.94694e-09
4.90225e-09
1.66177e-08
1.04469e-08
1.58298e-08
9.02993e-11
1.15381e-08
-3.4591e-08
-7.88866e-09
3.11762e-08
4.47016e-09
2.17312e-08
8.37934e-11
8.60442e-08
1.26083e-07
2.81937e-08
1.46818e-08
1.12919e-08
-1.06178e-09
3.32774e-10
-3.05151e-09
3.51523e-08
1.04793e-07
6.52129e-08
8.18155e-08
1.22073e-07
5.26262e-08
7.37353e-08
2.56211e-09
2.87594e-08
-1.14354e-09
1.24659e-08
4.34232e-08
2.97435e-08
6.93243e-08
1.48523e-08
3.67351e-10
2.23386e-08
6.72621e-08
9.30338e-09
1.74242e-08
3.92929e-08
6.73008e-09
2.39676e-08
7.91406e-09
4.74808e-08
2.91893e-08
1.31156e-07
-2.55291e-08
4.1981e-08
1.60578e-08
2.42633e-08
4.54884e-08
2.91168e-08
1.55197e-10
-2.77551e-09
9.12562e-09
4.21167e-08
7.96767e-10
1.57209e-08
-1.45893e-09
1.06763e-08
4.35761e-08
-2.89799e-09
2.46618e-08
1.09038e-08
-4.66825e-10
1.79241e-08
6.5515e-09
1.20454e-08
9.71367e-09
3.03916e-08
-2.23185e-10
6.51451e-08
6.33278e-08
7.39697e-09
7.40991e-09
5.40326e-08
5.68988e-09
9.43808e-09
2.37626e-09
-2.73358e-08
8.44129e-09
-5.97501e-09
7.3493e-09
3.52863e-09
2.21213e-08
3.67517e-09
2.74309e-08
4.36726e-08
4.14925e-08
9.6496e-09
1.11305e-08
-1.25722e-08
2.53841e-08
3.06085e-08
2.03566e-08
7.19686e-08
4.37866e-08
4.08361e-08
6.92487e-11
-3.13825e-09
1.20946e-08
-1.6589e-08
-7.66841e-11
6.2002e-18
2.38929e-08
9.46493e-09
6.09204e-08
1.26064e-07
3.59194e-08
1.43478e-08
2.21774e-08
4.04818e-08
4.33642e-10
1.48389e-08
4.26851e-09
3.31254e-09
3.45369e-08
1.56016e-08
3.24915e-08
2.439e-08
-1.28829e-08
1.02981e-08
-6.62635e-10
1.01659e-08
2.68285e-08
4.48041e-09
5.59671e-08
3.36004e-08
8.86438e-08
6.40817e-08
-1.14289e-08
5.43844e-09
2.93931e-08
1.52707e-08
1.67908e-09
6.39157e-08
-6.10409e-10
4.5742e-10
1.08451e-08
7.27947e-08
8.28281e-08
7.12785e-09
1.14328e-07
3.9927e-08
0
1.60574e-09
8.94806e-09
3.27396e-09
4.51481e-08
3.68749e-08
4.13739e-08
-3.15545e-08
1.20134e-08
2.07222e-08
2.70109e-08
-4.87052e-10
7.78587e-09
6.20963e-08
5.04996e-09
1.34081e-08
1.96563e-08
2.22942e-08
-5.92852e-09
5.47873e-09
5.21617e-08
2.62978e-08
3.92038e-08
1.78882e-08
2.38029e-08
2.24269e-08
4.93863e-08
1.67747e-08
-2.51973e-09
4.18197e-08
1.56956e-08
2.77573e-08
2.69619e-09
5.42586e-08
1.52284e-08
2.38336e-08
3.40575e-10
3.10304e-08
1.40923e-08
4.31377e-08
0
2.37885e-08
3.2111e-09
1.96021e-08
9.17549e-08
1.28702e-07
4.05522e-08
8.07046e-09
-1.61098e-08
1.52427e-08
3.63806e-08
5.92226e-08
3.02909e-08
-2.65333e-09
8.5449e-09
5.70898e-09
5.93078e-08
0
5.23124e-08
1.80097e-08
1.57701e-08
-5.46102e-11
5.48979e-08
6.4344e-08
4.37423e-09
3.45727e-08
-7.22492e-09
2.32866e-08
1.46195e-08
7.73639e-08
8.13608e-08
1.17028e-08
8.62546e-08
7.9263e-09
-3.0139e-09
2.32808e-08
4.28285e-08
3.62523e-09
4.66316e-08
2.11507e-08
-1.04877e-08
2.07805e-08
5.19457e-08
0
3.3744e-12
3.31171e-13
7.06289e-11
2.56176e-11
2.01875e-11
0
3.20978e-10
0
-1.04394e-12
0
-2.30397e-09
0
3.79463e-10
0
1.23883e-08
0
4.97958e-10
0
-1.57089e-10
0
-3.53079e-10
0
-1.0521e-11
0
-1.10159e-10
0
-2.53265e-10
0
1.00121e-10
0
9.34887e-11
0
-1.05997e-10
0
7.89799e-11
0
-1.53126e-12
0
-1.61898e-11
0
-1.317e-10
0
-3.72487e-10
0
-3.71989e-10
0
-1.57634e-11
0
5.17543e-11
9.31648e-11
7.08774e-10
0
1.23909e-08
0
-9.9565e-12
0
-2.53829e-10
0
-1.10081e-10
0
-9.22472e-11
0
-2.76949e-10
0
-9.13814e-10
0
-2.41412e-11
0
1.19016e-08
-5.06764e-10
-2.71509e-10
0
-3.14356e-13
0
-1.64573e-10
0
1.87685e-10
0
-6.14912e-10
0
-1.75173e-09
0
2.20732e-08
0
3.19777e-11
2.80872e-41
3.57177e-12
8.89866e-11
3.31643e-10
0
3.55731e-09
0
5.22564e-11
0
-2.48546e-12
0
-4.1908e-10
0
-1.48466e-11
0
9.31188e-14
0
3.0992e-08
0
-3.31646e-10
0
1.27069e-08
0
7.32388e-11
0
3.4627e-09
0
-6.49393e-11
-5.70997e-14
-3.00288e-09
0
-9.09854e-11
0
-4.78787e-10
3.27199e-11
3.60216e-10
0
2.35524e-10
0
1.89166e-08
0
1.42809e-08
)
;
    }
    outlet
    {
        type            cyclic;
        value           nonuniform List<scalar> 
16
(
0.00154164
0.0015716
0.00156367
0.00155077
0.00156154
0.00155853
0.00155724
0.00154023
0.00145154
0.00147074
0.00146757
0.00146103
0.00148082
0.00146797
0.00147375
0.00144073
)
;
    }
    inlet
    {
        type            cyclic;
        value           nonuniform List<scalar> 
16
(
-0.00154164
-0.0015716
-0.00156367
-0.00155077
-0.00156154
-0.00155853
-0.00155724
-0.00154023
-0.00145154
-0.00147074
-0.00146757
-0.00146103
-0.00148082
-0.00146797
-0.00147375
-0.00144073
)
;
    }
    procBoundary3to2
    {
        type            processor;
        value           nonuniform List<scalar> 
256
(
-2.56871e-06
-1.41519e-06
2.63305e-07
1.12984e-06
4.15221e-06
6.24627e-06
9.89453e-06
7.6376e-07
-7.30682e-06
-5.00154e-06
-6.55901e-06
-5.93117e-06
-5.46337e-07
3.12898e-06
3.1819e-06
5.04882e-07
1.27632e-07
2.39923e-06
3.12042e-06
3.47338e-06
2.90908e-06
-1.14212e-06
-4.54714e-06
1.24183e-06
4.43462e-06
2.55855e-06
4.10086e-07
-7.03733e-07
-2.00266e-06
-2.98382e-06
-4.04523e-06
-3.83009e-06
-3.35121e-06
-7.55778e-07
9.13126e-07
1.96986e-06
4.25433e-06
7.32347e-06
5.09598e-06
-1.94849e-06
-4.13969e-06
-4.09677e-06
-5.48626e-06
-6.29608e-06
-1.5938e-06
1.40397e-06
2.99329e-07
1.40778e-06
5.6028e-07
1.95741e-06
2.30819e-06
3.82852e-07
1.51286e-06
1.09058e-07
-2.44924e-06
1.08457e-06
2.57381e-06
8.56476e-07
-1.42891e-07
1.96028e-06
4.43161e-07
-2.79454e-06
-3.90648e-06
-3.69562e-06
-6.19992e-06
4.11637e-06
7.97869e-06
4.42244e-06
1.46469e-06
2.34073e-06
4.4437e-06
-1.35895e-06
-8.14341e-06
-5.97827e-06
-2.7975e-07
-4.77512e-07
1.97805e-06
3.77332e-06
3.1813e-06
3.96839e-07
-1.1751e-06
2.48704e-06
4.74785e-06
2.93701e-06
-2.32023e-06
-2.38662e-06
-2.61768e-06
-4.59583e-07
6.86095e-08
-2.68414e-07
1.48689e-06
2.84648e-06
1.70094e-06
-2.17369e-06
-4.81056e-06
-5.27193e-06
-1.16272e-06
3.12106e-07
6.9986e-07
4.1997e-07
-3.18688e-07
2.22162e-06
8.54539e-06
2.46095e-06
-6.29875e-06
-5.91085e-06
-3.96139e-06
-5.61871e-06
-3.29363e-06
-3.74764e-07
1.26665e-06
1.00671e-06
2.64046e-07
3.95916e-07
3.06635e-06
3.0161e-06
-1.56561e-07
-9.60414e-07
-2.4462e-07
1.5424e-06
1.43935e-06
3.45889e-06
2.41162e-06
2.20789e-06
8.16242e-07
-5.39339e-07
-3.00738e-06
-2.33206e-06
-2.59888e-06
-1.30501e-06
-1.23697e-06
5.47598e-07
2.38555e-07
1.13715e-06
7.82909e-06
4.83528e-06
-3.59141e-06
-3.42022e-06
4.2319e-08
-1.82054e-06
-5.76818e-06
-2.62717e-06
2.98728e-06
4.15714e-06
3.72498e-06
1.8939e-06
1.72938e-06
2.88636e-06
2.85517e-06
6.46384e-07
5.00947e-07
1.65303e-06
1.49107e-06
4.04246e-07
1.47387e-06
5.3702e-07
-7.62484e-07
-5.78003e-06
-6.48454e-06
-5.49259e-06
-5.84354e-06
1.93958e-06
4.50528e-06
3.39973e-06
-4.54828e-06
-2.71449e-06
8.20508e-06
5.19021e-06
-4.84128e-06
-5.9786e-06
-1.39e-06
-2.55091e-06
-4.55407e-07
3.46587e-06
2.23137e-06
-1.50989e-06
-3.97047e-08
1.74811e-07
-2.55583e-07
-1.27627e-06
-1.37965e-07
8.25981e-07
-1.76987e-06
-2.38442e-06
-2.60841e-06
-1.60821e-07
4.00198e-06
2.27885e-06
3.32714e-06
1.6901e-06
-5.67594e-06
-7.92315e-06
-6.10094e-06
5.23019e-06
4.67758e-06
1.82508e-06
-4.86488e-06
-3.259e-06
-1.18946e-06
1.43505e-07
2.8259e-07
2.14695e-06
2.54357e-07
2.07967e-06
2.01164e-06
1.72015e-07
6.05565e-07
-2.71672e-06
-2.17652e-06
1.59663e-06
2.22501e-06
4.40875e-07
-1.41928e-07
1.47857e-06
-3.096e-07
-3.82895e-07
1.34034e-06
1.13056e-06
-2.57859e-07
-6.84636e-07
-3.92672e-06
-4.68821e-07
2.44938e-07
-7.12367e-06
-2.86281e-06
1.51528e-06
4.40251e-06
3.47803e-08
-2.09927e-06
-5.08343e-06
-3.26901e-06
1.46951e-06
2.30814e-06
-6.60766e-07
-1.05302e-06
2.69517e-06
2.06221e-06
1.39638e-06
3.80184e-07
-6.00301e-06
-7.3925e-06
-1.34775e-07
3.18809e-06
-2.33766e-07
-1.14991e-07
2.84393e-06
2.00813e-06
1.2102e-06
1.44402e-06
3.36593e-06
2.05062e-06
3.82654e-08
-9.98081e-07
2.26029e-06
2.11394e-06
-2.36743e-06
)
;
    }
}


// ************************************************************************* //
