/*--------------------------------*- C++ -*----------------------------------*\
| =========                 |                                                 |
| \\      /  F ield         | OpenFOAM: The Open Source CFD Toolbox           |
|  \\    /   O peration     | Version:  2506                                  |
|   \\  /    A nd           | Website:  www.openfoam.com                      |
|    \\/     M anipulation  |                                                 |
\*---------------------------------------------------------------------------*/
FoamFile
{
    version     2.0;
    format      ascii;
    arch        "LSB;label=32;scalar=64";
    class       volVectorField;
    location    "0.009";
    object      Us;
}
// * * * * * * * * * * * * * * * * * * * * * * * * * * * * * * * * * * * * * //

dimensions      [0 1 -1 0 0 0 0];

internalField   nonuniform List<vector> 
512
(
(0 0 0)
(0.145498 -1.57926e-05 -0.101349)
(0.221836 -0.000222534 -0.0371206)
(0 0 0)
(0 0 0)
(0 0 0)
(0 0 0)
(0 0 0)
(0 0 0)
(0 0 0)
(0 0 0)
(0 0 0)
(0 0 0)
(0 0 0)
(0 0 0)
(0 0 0)
(0 0 0)
(0 0 0)
(0 0 0)
(0 0 0)
(0 0 0)
(0 0 0)
(0 0 0)
(0 0 0)
(0 0 0)
(0.472214 -0.00217192 -0.0403409)
(0 0 0)
(0 0 0)
(0 0 0)
(0 0 0)
(0 0 0)
(0 0 0)
(0 0 0)
(0 0 0)
(0 0 0)
(0 0 0)
(0 0 0)
(0 0 0)
(0 0 0)
(0 0 0)
(0 0 0)
(0 0 0)
(0 0 0)
(0 0 0)
(0 0 0)
(0.471287 0.000855615 -0.0885533)
(0 0 0)
(0 0 0)
(0 0 0)
(0 0 0)
(0 0 0)
(0 0 0)
(0 0 0)
(0 0 0)
(0 0 0)
(0 0 0)
(0 0 0)
(0 0 0)
(0 0 0)
(0 0 0)
(0.467111 0.00123518 -0.0982527)
(0 0 0)
(0 0 0)
(0 0 0)
(0 0 0)
(0 0 0)
(0.478642 -0.00143414 -0.0789222)
(0 0 0)
(0.467885 -0.00143222 -0.125087)
(0.457388 -0.00149105 -0.14801)
(0 0 0)
(0 0 0)
(0 0 0)
(0 0 0)
(0 0 0)
(0 0 0)
(0 0 0)
(0 0 0)
(0 0 0)
(0 0 0)
(0 0 0)
(0.473805 -0.00100487 -0.0784453)
(0 0 0)
(0 0 0)
(0 0 0)
(0 0 0)
(0 0 0)
(0 0 0)
(0 0 0)
(0 0 0)
(0 0 0)
(0 0 0)
(0 0 0)
(0 0 0)
(0 0 0)
(0 0 0)
(0 0 0)
(0 0 0)
(0.481574 -0.000547172 -0.0820101)
(0 0 0)
(0 0 0)
(0 0 0)
(0 0 0)
(0 0 0)
(0 0 0)
(0.470098 -0.000359402 -0.136313)
(0 0 0)
(0 0 0)
(0.466966 0.00163759 -0.117569)
(0 0 0)
(0 0 0)
(0 0 0)
(0 0 0)
(0 0 0)
(0 0 0)
(0.471657 -0.00125818 -0.081881)
(0 0 0)
(0 0 0)
(0.474582 -0.000755641 -0.0930771)
(0 0 0)
(0 0 0)
(0.470564 0.000457253 -0.139892)
(0 0 0)
(0 0 0)
(0 0 0)
(0.475859 0.00178552 -0.0295047)
(0 0 0)
(0 0 0)
(0 0 0)
(0 0 0)
(0 0 0)
(0 0 0)
(0.463867 -0.00491054 -0.0977478)
(0.46078 -0.00228291 -0.120412)
(0 0 0)
(0 0 0)
(0 0 0)
(0 0 0)
(0 0 0)
(0 0 0)
(0 0 0)
(0 0 0)
(0 0 0)
(0 0 0)
(0 0 0)
(0.469835 0.000464563 0.000716413)
(0.472732 -0.000436435 -0.0280983)
(0.472732 -0.000436435 -0.0280983)
(0 0 0)
(0.473926 -0.000166715 -0.10828)
(0.474674 -0.00216972 -0.111835)
(0 0 0)
(0 0 0)
(0 0 0)
(0 0 0)
(0 0 0)
(0 0 0)
(0 0 0)
(0 0 0)
(0 0 0)
(0 0 0)
(0 0 0)
(0.478521 -0.000452307 -0.00793325)
(0 0 0)
(0 0 0)
(0.46078 -0.00228291 -0.120412)
(0.465546 -0.00119637 -0.113133)
(0 0 0)
(0.468769 0.00289105 -0.159536)
(0 0 0)
(0 0 0)
(0 0 0)
(0.470286 0.000188123 -0.118988)
(0 0 0)
(0 0 0)
(0.468443 -0.00339717 -0.123589)
(0 0 0)
(0 0 0)
(0.470806 0.00191067 -0.0946838)
(0 0 0)
(0 0 0)
(0 0 0)
(0 0 0)
(0 0 0)
(0.480818 -0.00223916 -0.0770295)
(0 0 0)
(0 0 0)
(0 0 0)
(0 0 0)
(0 0 0)
(0 0 0)
(0 0 0)
(0 0 0)
(0 0 0)
(0 0 0)
(0 0 0)
(0 0 0)
(0 0 0)
(0 0 0)
(0 0 0)
(0 0 0)
(0 0 0)
(0 0 0)
(0 0 0)
(0 0 0)
(0.463504 0.000492137 -0.0869631)
(0.462567 -0.00146101 -0.0476116)
(0 0 0)
(0 0 0)
(0 0 0)
(0 0 0)
(0 0 0)
(0 0 0)
(0 0 0)
(0 0 0)
(0 0 0)
(0 0 0)
(0 0 0)
(0 0 0)
(0 0 0)
(0 0 0)
(0 0 0)
(0 0 0)
(0 0 0)
(0 0 0)
(0 0 0)
(0 0 0)
(0.450918 -0.00280364 -0.151782)
(0 0 0)
(0 0 0)
(0 0 0)
(0 0 0)
(0 0 0)
(0 0 0)
(0 0 0)
(-2.58282e-16 -1.50269e-18 5.58867e-17)
(0.334634 0.00169463 -0.0527781)
(0 0 0)
(0 0 0)
(0 0 0)
(0 0 0)
(0 0 0)
(0 0 0)
(0 0 0)
(0 0 0)
(0 0 0)
(0 0 0)
(0 0 0)
(0 0 0)
(0.0284583 -0.000123522 -0.0565622)
(0 0 0)
(0 0 0)
(0.221913 0.000423763 -0.0846406)
(0 0 0)
(0 0 0)
(0 0 0)
(0.0278641 -0.000111253 0.0526829)
(0.167692 -0.000239358 0.032634)
(0.0837549 -0.000292352 0.102295)
(0.247928 -0.00560913 0.165375)
(0.00981381 0.000102196 0.00883983)
(0.181575 0.00320637 0.119745)
(0.197363 -0.00131433 0.121755)
(0.138962 -0.0270282 0.0627459)
(0.210266 -0.00194746 0.0873642)
(0.15711 0.000604298 0.182652)
(0.226178 0.000866805 0.0714812)
(0.112324 0.000193073 0.195923)
(0.119622 0.000375171 0.0410232)
(0.205181 0.000579598 0.123654)
(0.225136 -0.000587502 0.0207058)
(0.170929 -0.000458137 -0.0616096)
(0.0851283 0.000545126 -0.0161395)
(0.253762 -0.000122914 0.19619)
(0.0555666 7.10378e-05 0.153675)
(0.152258 7.34627e-05 0.0461288)
(0.280526 0.000494539 0.0204216)
(0.203798 0.000730573 0.142775)
(0.152945 0.000593638 0.00522475)
(0.0869417 0.000314593 -0.00972019)
(0.0769672 -0.000336195 0.0355898)
(0.218281 -0.00136174 0.0322284)
(0.203916 -0.0405079 0.0779157)
(0.127095 0.000147555 0.290503)
(0.240139 0.000612952 0.143012)
(0.176166 0.000436341 0.0713869)
(0.203259 0.00056252 0.142001)
(0.154521 0.000739091 0.0621293)
(0.155527 -0.0342362 -0.0195704)
(0.251178 -0.00397664 0.0570379)
(0.155974 -0.00061427 0.0298116)
(0.288392 0.000390614 0.139952)
(0.160217 0.000468361 0.0490643)
(0.319913 -0.000790051 0.140714)
(0.371071 -0.00245621 0.110765)
(0.161267 -0.000404035 -0.00466666)
(0.122651 -0.0107824 0.166469)
(0.170928 0.000329077 0.0774425)
(0.0170351 -0.000122542 0.00257664)
(0.290837 -0.00029145 0.163533)
(0.286083 0.000449449 0.0233053)
(0.175833 0.000392736 0.0227579)
(0.21564 -0.000447539 0.0999362)
(0.155536 -0.000911422 0.0720951)
(0.220547 -0.00208584 0.0175148)
(0.193459 -0.0145099 0.0602197)
(0.213441 -0.0120017 0.106222)
(0.346196 -0.0759728 0.0302787)
(0.231216 0.000344846 0.0696987)
(0.337381 0.000852828 0.177695)
(0.230567 0.0020345 0.0873813)
(0.444268 0.00358785 0.257234)
(0.377659 0.001718 0.0597625)
(0.256746 -0.00498833 -0.00434489)
(0.00479686 0.0173629 0.00957435)
(0.305426 0.000860736 0.169651)
(0.297366 0.00112749 0.0529766)
(0.205969 0.000586398 0.210129)
(0.201454 0.000331894 0.0284311)
(0.305024 0.000518268 0.0949572)
(0.287701 -0.000256858 0.257053)
(0.303939 -0.000466932 0.0586992)
(0.463788 -0.00101577 0.0640449)
(0.283553 -0.013867 0.0846443)
(0.465312 -0.000915969 -0.0888131)
(0.412398 -0.00189402 0.0630111)
(0.222992 -0.000369593 0.0947343)
(0.0930341 0.040889 0.0452376)
(0.101467 0.000434912 0.209292)
(0.38151 -0.00022282 0.16318)
(0.148659 0.0311187 -0.00809407)
(0.143762 -0.000191669 -0.00696871)
(0.311534 0.000630791 0.108159)
(0.344798 -0.0228933 0.0393268)
(0.345882 -0.000467152 0.00574727)
(0.25919 -0.00146167 0.054011)
(0.470296 -0.0011667 -0.0728547)
(0.14077 0.0545048 0.0546627)
(0.121974 -3.85184e-06 0.13201)
(0.0951385 -9.71563e-05 0.0176279)
(0.21641 -5.21121e-05 0.311054)
(0.443469 -0.0985202 0.0109533)
(0.236411 0.00192245 0.134604)
(0.366549 0.00178219 0.179622)
(0.105023 -0.0364171 0.0942552)
(0.309809 -0.000907924 0.116183)
(0.332974 -0.00118145 0.0362401)
(0.340298 -9.16342e-05 0.211502)
(0.407936 0.0262671 -0.011617)
(0.0112475 9.50814e-05 -0.0136043)
(0.365527 0.00174431 0.0961164)
(0.476774 0.00150855 0.0130958)
(-1.597e-16 -3.41533e-16 -1.63281e-16)
(0.481574 -0.000547172 -0.0820101)
(0.233584 -0.000474426 0.00139188)
(0.255997 -0.00104787 -0.0220284)
(0.132754 0.000398517 -0.0356429)
(0.310249 -0.000537653 0.0172224)
(0.324943 0.000652787 0.161823)
(0.243392 0.000524128 0.0738163)
(0.0893378 0.000255011 0.138072)
(0.465325 0.000447563 -0.0926433)
(0.111224 1.61458e-05 0.0533433)
(0.344884 -0.00276303 0.0331464)
(0.105888 0.000400112 -0.00145053)
(0.0522778 2.18275e-05 0.366014)
(0.209917 0.000111517 0.0806721)
(0.195528 0.0251924 0.0331812)
(0.106783 -0.122903 -0.000360789)
(0.405247 -0.000573962 0.071925)
(0.2578 -0.000885524 0.0438889)
(0.26486 0.00775561 0.0626429)
(0.0417313 5.71853e-05 0.0471632)
(0.40437 0.00109044 0.128472)
(0.157145 -6.73688e-05 0.150612)
(0.0705023 -0.00053396 0.353515)
(0.180871 -0.000957504 0.30352)
(0.203026 0.00383089 0.0293175)
(0.133414 0.00305816 0.0552234)
(0.19404 -0.015714 0.0859432)
(0.169962 0.000477271 0.0411739)
(0.252214 0.00117991 0.0991578)
(0.373809 0.0010626 0.166185)
(0.447427 -0.00104026 0.226951)
(0.194671 0.0715688 0.130935)
(0.188232 0.000622723 0.0536272)
(0.204537 0.000880413 0.124992)
(0.118013 -0.00106736 0.0301245)
(0.325098 -0.00284826 0.058212)
(0.214598 -0.00109636 0.0571818)
(0.283554 -0.000453756 0.140195)
(0.392557 0.0006137 0.038925)
(0.212809 0.000911355 0.0666272)
(0.390933 0.00115933 0.0755253)
(0.26161 0.0294695 0.0528491)
(0.151482 -0.00546901 0.0162923)
(0.213961 0.00010786 0.187878)
(0.462587 -0.000658193 -0.0511706)
(0.192565 -0.0105902 0.0711511)
(0.245034 -0.000184526 0.186581)
(0.0087513 7.8048e-05 1.19951e-09)
(0.223693 -0.000716141 0.0744971)
(0.469804 -0.000585141 0.0509486)
(0.228214 8.50249e-05 0.0653928)
(0.184156 -0.0469209 0.116401)
(0.257226 -0.0187024 0.0455383)
(0.473341 -0.00185971 -0.0475645)
(0.275107 0.00978588 0.0284957)
(0.171484 0.000143333 0.0575145)
(0.175683 0.0132356 0.100376)
(0.275079 0.00732312 0.0714569)
(0.218337 0.000631877 0.0151638)
(0.082064 -0.000270888 0.161035)
(0.344327 -7.94701e-05 0.187903)
(0.15959 -0.000106387 0.317348)
(0.322489 -0.00028969 0.0422499)
(0.356117 0.00193809 0.0648204)
(0.0281202 -0.0432631 -0.00426242)
(0.352978 -0.00227524 0.0231786)
(0.16647 -0.000747896 0.0500436)
(0.457497 -0.00255794 0.00887755)
(0.256304 -0.00123353 -0.0020781)
(0.200427 -0.000366113 0.224179)
(0.278925 -0.0179589 0.113377)
(0.0743754 0.000361651 0.074175)
(0.461149 0.00293071 0.0390882)
(0.0886877 0.000575843 0.00523521)
(0.0154167 -0.00011383 -0.0327723)
(0.284022 0.000148279 0.11038)
(0.3542 -0.000893374 0.011705)
(0.298158 -0.00147325 0.153594)
(0.349583 -0.00183225 0.0385223)
(0.348293 0.0592901 0.0361772)
(-0.00337329 -0.00688114 0.0161464)
(0.303326 0.00183689 -0.0321178)
(0.218427 0.000958413 0.163101)
(-0.00505073 0.0546793 -0.0419953)
(0 0 0)
(0.130718 -0.00110688 0.157867)
(0.40324 -0.00286224 0.0966244)
(0.351752 -0.00164534 0.113363)
(0.0951734 -0.0537705 0.180886)
(0 0 0)
(0.231016 0.00101705 -0.0728218)
(0.240086 -0.0288737 0.122823)
(0.241428 -0.00409759 0.0173285)
(0.424767 -0.000118327 0.163051)
(0.360076 0.00192373 -0.0133204)
(0.0418652 0.000379546 0.0148629)
(0.456765 0.00206705 0.0249818)
(0.233538 -0.00606407 0.0761604)
(0.299461 0.0167482 0.0143181)
(0.241668 -0.0016958 0.0450803)
(0.157776 2.81525e-05 0.0017279)
(0.297248 0.000507009 0.188258)
(0.16501 0.000558144 0.0441462)
(0.21366 0.000741448 0.102304)
(0.318 0.00127018 0.0448809)
(0.283544 -0.00535797 0.0284764)
(0.239912 -0.0296465 0.0752104)
(0.134095 0.000290337 0.103015)
(0.302531 4.06621e-05 -0.0160764)
(0.195822 -0.00179942 0.0138688)
(0.335644 -0.00306849 0.0644434)
(0.347701 -0.00323418 0.0146943)
(0.288688 -0.000300129 0.0232955)
(0.103866 0.00100548 0.0684576)
(0.28164 0.000806476 0.211108)
(0.0289296 -0.000412781 0.0259262)
(0.249211 -0.000932349 0.00296385)
(0.381862 -0.00104963 0.0206482)
(0.190012 -0.000394464 0.0665732)
(0.139099 -0.0133944 0.0430397)
(0.337994 -0.013284 0.0527891)
(0.281756 -0.000783422 0.0864362)
(0.0928867 0.000381468 0.186281)
(0 0 0)
(0.173531 -0.000425922 0.0850397)
(0.0849562 -0.000133303 0.0692579)
(0.083046 -0.149965 0.0540335)
(0.0271388 -0.145695 -6.83524e-09)
(0.0245287 -0.00168636 -0.0440288)
(0.115491 0.0325497 0.079962)
(0.162791 -0.00142205 0.0829102)
(0.0220499 -3.13212e-05 0.00834884)
(0.174862 -0.000494336 -0.00916596)
(0.44541 0.000488011 0.00666191)
(0.0227243 -0.00935216 0.00558702)
(0.115036 -0.0140484 0.063469)
(0.336332 0.0419303 0.0864101)
(0.0588365 0.000311903 -0.01423)
(0.0386378 0.000177268 0.325153)
(0.229085 0.000874331 0.0195352)
(0.169347 0.0560543 0.115807)
(0.27838 0.000130207 0.0277338)
(0.0211844 -0.000213564 0.00595022)
(0.195749 -0.00156305 0.227216)
(0.0680898 -0.000121298 0.0348741)
(0.0221345 9.90097e-06 -0.0704555)
(0.224628 0.0658953 -0.0243003)
(0.177923 -0.000653901 0.0213832)
(0.10604 0.0653305 0.046005)
(0.154275 0.000219915 0.0811057)
(0.206152 0.007299 -0.0124967)
(0.231741 -0.000234783 0.178552)
(0.0972475 -0.00938123 0.0475746)
(0.118136 -0.000492344 0.017376)
(0.21876 -0.000639745 0.048611)
(0.250185 0.0021344 0.309969)
(0.15199 0.000769751 -0.0236128)
(0.176847 0.0502342 -0.0080036)
(0.332825 0.0327881 0.119265)
)
;

boundaryField
{
    wall
    {
        type            zeroGradient;
    }
    outlet
    {
        type            cyclic;
    }
    inlet
    {
        type            cyclic;
    }
    procBoundary3to2
    {
        type            processor;
        value           uniform (0 0 0);
    }
}


// ************************************************************************* //
