/*--------------------------------*- C++ -*----------------------------------*\
| =========                 |                                                 |
| \\      /  F ield         | OpenFOAM: The Open Source CFD Toolbox           |
|  \\    /   O peration     | Version:  2506                                  |
|   \\  /    A nd           | Website:  www.openfoam.com                      |
|    \\/     M anipulation  |                                                 |
\*---------------------------------------------------------------------------*/
FoamFile
{
    version     2.0;
    format      ascii;
    arch        "LSB;label=32;scalar=64";
    class       volScalarField;
    location    "0.009";
    object      voidfraction;
}
// * * * * * * * * * * * * * * * * * * * * * * * * * * * * * * * * * * * * * //

dimensions      [0 0 0 0 0 0 0];

internalField   nonuniform List<scalar> 
512
(
1
0.999908
0.999732
1
1
1
1
1
1
1
1
1
1
1
1
1
1
1
1
1
1
1
1
1
1
0.999945
1
1
1
1
1
1
1
1
1
1
1
1
1
1
1
1
1
1
1
0.999732
1
1
1
1
1
1
1
1
1
1
1
1
1
1
0.999991
1
1
1
1
1
0.999824
1
0.999945
0.999732
1
1
1
1
1
1
1
1
1
1
1
0.999732
1
1
1
1
1
1
1
1
1
1
1
1
1
1
1
1
0.999991
1
1
1
1
1
1
0.999732
1
1
0.999908
1
1
1
1
1
1
0.999945
1
1
0.999963
1
1
0.999732
1
1
1
0.999732
1
1
1
1
1
1
0.999732
0.999982
1
1
1
1
1
1
1
1
1
1
1
0.999908
0.999991
0.999741
1
0.999908
0.999621
1
1
1
1
1
1
1
1
1
1
1
0.999908
1
1
0.999963
0.999732
1
0.999741
1
1
1
0.999945
1
1
0.999945
1
1
0.999908
1
1
1
1
1
0.999732
1
1
1
1
1
1
1
1
1
1
1
1
1
1
1
1
1
1
1
1
0.999954
0.999732
1
1
1
1
1
1
1
1
1
1
1
1
1
1
1
1
1
1
1
1
0.999741
1
1
1
1
1
1
1
1
0.999908
1
1
1
1
1
1
1
1
1
1
1
1
0.999991
1
1
0.999732
1
1
1
0.999196
0.998844
0.999464
0.999464
0.999556
0.99829
0.999196
0.998392
0.999177
0.999205
0.998928
0.999464
0.998392
0.998928
0.999464
0.999196
0.998401
0.998123
0.999464
0.999196
0.999473
0.99865
0.997735
0.999676
0.998373
0.998558
0.999103
0.999713
0.998955
0.999187
0.999473
0.99866
0.999196
0.998854
0.999233
0.998928
0.999177
0.998419
0.99865
0.999196
0.998086
0.998493
0.998345
0.999455
0.999131
0.999205
0.999464
0.99866
0.998382
0.998244
0.998983
0.99866
0.998928
0.999196
0.998549
0.999945
0.998447
0.99866
0.999196
0.998928
0.99866
0.999639
0.998678
0.999196
0.998928
0.998216
0.999427
0.999251
0.999519
0.999464
0.998401
0.998123
0.999464
0.998752
0.998567
0.998142
0.999418
0.999196
0.998937
0.99866
0.999732
0.99902
0.999418
0.99865
0.999732
0.998928
0.999122
0.999288
0.99866
0.999279
0.998613
0.998909
0.999473
0.999824
0.998428
0.999676
1
0.999945
0.999002
0.998983
0.998928
0.998392
0.999214
0.998715
0.99866
0.999732
0.99902
0.998549
0.999122
0.999732
0.998918
0.998392
0.998928
0.999584
0.998493
0.997929
0.999362
0.998493
0.998872
0.999732
0.999371
0.998123
0.998918
0.997643
0.999187
0.998669
0.999214
0.999713
0.998567
0.998123
0.998752
0.999223
0.999113
0.999501
0.997976
0.99902
0.998392
0.999196
0.998392
0.997587
0.998928
0.999464
0.998401
0.998918
0.999732
0.998586
0.999455
0.99865
0.99866
0.998207
0.999399
0.999196
0.99866
0.998937
0.998401
0.99841
0.999455
0.999288
0.999695
0.998928
0.998807
0.997597
0.999445
0.998715
0.999464
0.998826
0.999187
0.998789
0.998918
0.999464
0.999029
0.999455
0.998715
0.998928
0.999455
0.998465
0.99865
0.998946
0.999288
0.998123
0.999464
1
0.999464
0.999676
0.99963
0.999455
1
0.999464
0.998937
0.999418
0.999177
0.998928
0.999408
0.999196
0.998133
0.998604
0.998928
0.999187
0.999076
0.998465
0.999177
0.998835
0.999011
0.999556
0.999639
0.999242
0.998133
0.998909
0.998872
0.99866
0.998928
0.999464
0.999732
0.998835
0.99866
0.998983
0.997957
0.998123
0.998909
0.999307
1
0.998401
0.998928
0.998392
0.999732
0.999455
0.99865
0.999214
0.999723
0.998669
0.999473
0.998771
0.998854
0.998576
0.999103
0.999713
0.998872
0.999187
0.999196
0.999723
0.998992
0.99866
0.999732
0.99866
0.998392
0.998752
0.99866
0.998928
0.999288
0.997772
0.998928
0.998031
0.999464
0.998918
0.998364
0.998955
)
;

boundaryField
{
    wall
    {
        type            zeroGradient;
    }
    outlet
    {
        type            cyclic;
    }
    inlet
    {
        type            cyclic;
    }
    procBoundary3to2
    {
        type            processor;
        value           uniform 1;
    }
}


// ************************************************************************* //
