FoamFile
{version 2.0; format ascii;class Cloud<passiveParticle>; location 0;object  positions;}
2510
(
( 0.00589107 4.60431e-06 0.000499274 ) 0 
( 0.00232381 0.000199848 0.000499635 ) 0 
( 0.00113562 0.00012419 0.00705388 ) 0 
( 0.00904074 2.14601e-05 0.00567119 ) 0 
( 0.00928403 0.000143988 0.00470915 ) 0 
( 0.0124766 5.10336e-05 0.000499271 ) 0 
( 0.000892376 0.000655833 0.00150655 ) 0 
( 0.00682777 0.000173761 0.00181001 ) 0 
( 0.0100215 0.000133605 0.00544001 ) 0 
( 0.00918974 0.000316417 0.0105465 ) 0 
( 0.0123872 0.000207736 0.0143262 ) 0 
( 0.00115341 0.000108507 0.0138576 ) 0 
( 0.00255124 0.000498897 0.0146811 ) 0 
( 0.00573324 0.00136711 0.0147341 ) 0 
( 0.00664143 0.00103361 0.0144822 ) 0 
( 0.00892538 0.000259811 0.0133912 ) 0 
( 0.00945985 0.000499648 0.0146163 ) 0 
( 0.011368 8.08556e-05 0.0130376 ) 0 
( 0.0133373 0.000589643 0.00798068 ) 0 
( 0.0046226 0.000713619 0.0148261 ) 0 
( 0.00940916 0.00186529 0.014626 ) 0 
( 0.010023 0.000405145 0.0110915 ) 0 
( 0.00789955 5.29058e-05 0.00914262 ) 0 
( 0.00723431 0.0056702 0.0152463 ) 0 
( 0.00402441 0.0083746 0.0146075 ) 0 
( 0.00829604 0.000297797 0.0149119 ) 0 
( 0.0020283 0.000787571 0.0129762 ) 0 
( 0.00214272 0.000241786 0.0138058 ) 0 
( 0.0119304 0.00105765 0.0140619 ) 0 
( 0.0114803 0.000271375 0.014742 ) 0 
( 0.0104846 4.51385e-05 0.0145121 ) 0 
( 0.00236515 0.000171812 0.00904775 ) 0 
( 0.00346524 0.0037397 0.00261705 ) 0 
( 0.00173744 0.00543292 0.00791347 ) 0 
( 0.000226364 0.0127652 0.00566365 ) 0 
( 0.00707352 0.00503298 0.0021425 ) 0 
( 0.006789 0.00473695 0.00528726 ) 0 
( 0.00897241 0.00551547 0.00670242 ) 0 
( 0.000329882 0.0133126 0.00353754 ) 0 
( 0.00616991 0.00339521 0.00426505 ) 0 
( 0.00548318 0.0121496 0.00464272 ) 0 
( 0.0102988 0.00531084 0.00560078 ) 0 
( 0.000913221 0.00733168 0.00447992 ) 0 
( 0.00713036 0.0103243 0.000499748 ) 0 
( 0.00635938 0.0097721 0.00163372 ) 0 
( 0.00222954 0.0122958 0.00397016 ) 0 
( 0.00187973 0.00315625 0.000499645 ) 0 
( 0.00441757 0.00759167 0.00188887 ) 0 
( 0.0107327 0.00370919 0.00377897 ) 0 
( 0.0112962 0.00535996 0.00564147 ) 0 
( 0.00472265 0.00334817 0.00407336 ) 0 
( 0.00825405 0.00272426 0.00674535 ) 0 
( 0.00874242 0.00266975 0.00482668 ) 0 
( 0.0026258 0.0100575 0.00624486 ) 0 
( 0.00724057 0.00683295 0.00119138 ) 0 
( 0.00671576 0.00467105 0.0040891 ) 0 
( 0.00551174 0.00766366 0.00319544 ) 0 
( 0.00373926 0.0128106 0.00571373 ) 0 
( 0.00252511 0.00796096 0.0030529 ) 0 
( 0.0116721 0.00436673 0.000498874 ) 0 
( 0.00113462 0.00226418 0.0032357 ) 0 
( 0.00529024 0.0068697 0.00453372 ) 0 
( 0.0109949 0.00372521 0.000858847 ) 0 
( 0.00932791 0.0022185 0.00415388 ) 0 
( 0.00274896 0.0014799 0.00624443 ) 0 
( 0.00684341 0.000170516 0.00836144 ) 0 
( 0.000902214 0.00607925 0.00469828 ) 0 
( 0.00184559 0.00813389 0.00781916 ) 0 
( 0.00155485 0.00796468 0.00281085 ) 0 
( 0.00905563 0.00978908 0.00420967 ) 0 
( 0.0128487 0.00362517 0.00655089 ) 0 
( 0.00256731 0.00710734 0.00131337 ) 0 
( 0.00992868 0.00321785 0.00543407 ) 0 
( 0.00276288 0.000678409 0.00126001 ) 0 
( 0.00718833 0.0057061 0.0057036 ) 0 
( 0.0057968 0.00468129 0.00567919 ) 0 
( 0.000753409 0.000340573 0.00245447 ) 0 
( 0.00121533 0.00588854 0.00562836 ) 0 
( 0.00874076 0.00128387 0.00686418 ) 0 
( 0.00138838 0.0118866 0.00432328 ) 0 
( 0.00296172 0.0080079 0.00395365 ) 0 
( 0.00746445 0.00211925 0.00545982 ) 0 
( 0.00900771 0.00985359 0.00768151 ) 0 
( 0.0121209 0.00412184 0.00221626 ) 0 
( 0.00570433 0.00823115 0.00646599 ) 0 
( 0.00292809 0.0070628 0.00286747 ) 0 
( 0.00806616 0.000562623 0.0071991 ) 0 
( 0.0100039 0.00526298 0.00312347 ) 0 
( 0.000354724 0.00375169 0.00619806 ) 0 
( 0.00273719 0.00100302 0.00536577 ) 0 
( 0.00397369 0.0101211 0.00318522 ) 0 
( 0.00357146 0.00215457 0.00194164 ) 0 
( 0.00579869 0.00505137 0.00360249 ) 0 
( 0.00827181 0.00136631 0.00775691 ) 0 
( 0.00315105 0.0124132 0.00500952 ) 0 
( 0.00134679 0.00885752 0.00323034 ) 0 
( 0.000918903 0.0123433 0.00507872 ) 0 
( 0.00584176 0.00412742 0.00308194 ) 0 
( 0.00774861 0.0028989 0.00490179 ) 0 
( 0.00189365 0.00999678 0.00049979 ) 0 
( 0.00906788 0.00848659 0.00402912 ) 0 
( 0.00491268 0.00495742 0.00801711 ) 0 
( 0.00935933 6.61482e-05 0.00233199 ) 0 
( 0.00476563 0.00724209 0.00700156 ) 0 
( 0.00223312 0.00522607 0.00707035 ) 0 
( 0.0102266 0.00852646 0.00374939 ) 0 
( 0.00474034 0.00120728 0.00589591 ) 0 
( 0.00693816 0.0036201 0.00745005 ) 0 
( 0.00694097 0.00668022 0.00415267 ) 0 
( 0.000782243 0.00775314 0.00642318 ) 0 
( 0.00641017 0.00640932 0.00207654 ) 0 
( 0.000655389 0.00287215 0.00260262 ) 0 
( 0.011874 0.00610261 0.00597839 ) 0 
( 0.000922662 0.00127208 0.00472366 ) 0 
( 0.00709314 0.0102262 0.00710804 ) 0 
( 0.00106018 0.00294535 0.00168938 ) 0 
( 0.00798355 0.0107 0.00206057 ) 0 
( 0.00457566 0.00342236 0.00593283 ) 0 
( 0.00364815 0.0113999 0.00710014 ) 0 
( 0.011102 0.00130783 0.00434174 ) 0 
( 0.000758105 0.0133281 0.000499768 ) 0 
( 0.0021914 0.000652556 0.0061272 ) 0 
( 0.000517084 0.00911816 0.00273671 ) 0 
( 0.00673281 0.000698848 0.000499684 ) 0 
( 0.00499067 0.00196489 0.00649825 ) 0 
( 0.00336963 0.00512451 0.00129639 ) 0 
( 0.00091578 0.00456658 0.00605471 ) 0 
( 0.00090742 0.00338903 0.000499447 ) 0 
( 0.0114652 0.00290794 0.000499536 ) 0 
( 0.00472578 0.0115084 0.00595045 ) 0 
( 0.0031962 0.00566955 0.00721183 ) 0 
( 0.00270443 0.00115194 0.00309099 ) 0 
( 0.008405 0.00247936 0.00132578 ) 0 
( 0.00646042 0.00665956 0.00575953 ) 0 
( 0.012264 0.00527287 0.0037014 ) 0 
( 0.00248979 0.0113905 0.00295276 ) 0 
( 0.0045484 0.00110451 0.00219509 ) 0 
( 0.00259624 0.0112103 0.000499153 ) 0 
( 0.0123507 0.00506834 0.00467617 ) 0 
( 0.000868509 0.00793923 0.00201502 ) 0 
( 0.00455879 0.00912113 0.00499278 ) 0 
( 0.00268955 0.00545152 0.00443356 ) 0 
( 0.00325291 0.00938842 0.00305711 ) 0 
( 0.00489413 0.00944407 0.00256793 ) 0 
( 0.00370229 0.00962687 0.00509359 ) 0 
( 0.00315566 0.00434135 0.00188005 ) 0 
( 0.00640522 0.0107311 0.00548265 ) 0 
( 0.0110895 0.00741754 0.00479342 ) 0 
( 0.0071033 0.00103971 0.0022264 ) 0 
( 0.00705117 0.00851367 0.00384398 ) 0 
( 0.0108939 0.00532198 0.00138797 ) 0 
( 0.0094353 0.00818611 0.00490909 ) 0 
( 0.0129439 0.00326976 0.00239562 ) 0 
( 0.000433033 0.00899485 0.00372535 ) 0 
( 0.00391732 0.0127071 0.000500235 ) 0 
( 0.00874006 0.0100818 0.00227102 ) 0 
( 0.00197472 0.00913843 0.00119515 ) 0 
( 0.00613429 0.00536893 0.00460034 ) 0 
( 0.00683295 0.00382404 0.00487854 ) 0 
( 0.0079126 0.00722421 0.00206782 ) 0 
( 0.000389453 0.0106866 0.00660311 ) 0 
( 3.25237e-05 0.00169164 0.00639073 ) 0 
( 0.0124308 0.00431839 0.00533216 ) 0 
( 0.0104298 0.00188826 0.00145908 ) 0 
( 0.0119912 0.00086867 0.000806439 ) 0 
( 0.0111719 0.00195223 0.000499781 ) 0 
( 0.00557635 0.00081984 0.00725381 ) 0 
( 0.00877095 0.000443659 0.0038954 ) 0 
( 0.0100028 0.00200435 0.00235535 ) 0 
( 0.00176984 0.00783367 0.00655679 ) 0 
( 0.00808903 0.00865828 0.00359724 ) 0 
( 0.0086276 0.00635327 0.00234689 ) 0 
( 0.00652494 0.00278841 0.00598047 ) 0 
( 0.00596348 0.00398813 0.00149724 ) 0 
( 0.000703028 0.00313772 0.00549004 ) 0 
( 0.00859965 0.00446171 0.00509405 ) 0 
( 0.0022652 0.012305 0.000499833 ) 0 
( 0.0122122 0.00455114 0.00131837 ) 0 
( 0.00625843 0.00342585 0.00670313 ) 0 
( 0.00457189 0.00805593 0.00754916 ) 0 
( 0.00892438 0.00750848 0.00419487 ) 0 
( 0.0060699 0.00221712 0.00395452 ) 0 
( 0.0009786 0.00415453 0.00419298 ) 0 
( 0.0105043 0.00674904 0.00267468 ) 0 
( 0.00402031 0.00361928 0.00696986 ) 0 
( 0.000284261 0.00454609 0.00687647 ) 0 
( 0.00359678 0.0053993 0.00369421 ) 0 
( 0.0119714 0.00116816 0.00386803 ) 0 
( 0.00220454 0.00138465 0.00442268 ) 0 
( 0.00854222 0.00899004 0.00169297 ) 0 
( 0.00315907 0.0108979 0.003761 ) 0 
( 0.00235039 0.0122277 0.00646196 ) 0 
( 0.0103865 0.00838751 0.00141821 ) 0 
( 0.00266973 0.00414565 0.0030845 ) 0 
( 0.000739895 0.0119435 0.00301148 ) 0 
( 0.00162191 0.00614733 0.00314457 ) 0 
( 0.00370942 0.00278301 0.00277599 ) 0 
( 0.00510355 0.000142389 0.00563519 ) 0 
( 0.00644638 0.000301462 0.00728908 ) 0 
( 0.00755003 0.000700973 0.00135055 ) 0 
( 0.0100011 0.00532366 0.000499527 ) 0 
( 0.00648507 0.00482358 0.0013246 ) 0 
( 0.00177116 0.0123504 0.0014496 ) 0 
( 0.00630817 0.0117659 0.00239227 ) 0 
( 0.00434481 0.00877946 0.00311103 ) 0 
( 0.00514625 0.0113741 0.00377317 ) 0 
( 0.00316475 0.010398 0.00464577 ) 0 
( 0.00300744 0.0111282 0.00198778 ) 0 
( 0.00386922 0.00600323 0.00655209 ) 0 
( 0.00986264 0.00707112 0.00600083 ) 0 
( 0.00459958 0.00302238 0.00501682 ) 0 
( 0.00321636 0.0119944 0.0004999 ) 0 
( 0.00269393 0.00421422 0.0040965 ) 0 
( 0.00465923 0.0095611 0.00364961 ) 0 
( 0.00394604 0.00352452 0.00346747 ) 0 
( 0.00944697 0.00100361 0.00571271 ) 0 
( 0.00400122 0.0108706 0.00436761 ) 0 
( 0.00476426 0.00435657 0.000499564 ) 0 
( 0.00342733 0.00839128 0.00302541 ) 0 
( 0.00342344 0.00775041 0.0022488 ) 0 
( 0.00809767 0.00523716 0.00725851 ) 0 
( 0.00738947 0.00839585 0.00673208 ) 0 
( 0.00283389 0.0023828 0.00445609 ) 0 
( 0.00022861 0.0015897 0.00753564 ) 0 
( 0.00702154 0.00829545 0.00571505 ) 0 
( 0.00925953 0.00961697 0.00517329 ) 0 
( 0.0107263 0.000800918 0.00697947 ) 0 
( 0.00407776 0.00280931 0.00755484 ) 0 
( 0.0108973 0.0027056 0.00670392 ) 0 
( 0.00399708 0.0110279 0.00208845 ) 0 
( 0.00566497 0.00014654 0.00381199 ) 0 
( 0.00803535 0.00976008 0.00108714 ) 0 
( 0.00682578 0.00891078 0.00192409 ) 0 
( 0.0051034 0.00567395 0.00134078 ) 0 
( 0.00696304 0.00228623 0.00443944 ) 0 
( 0.00303277 0.00173692 0.00121012 ) 0 
( 0.000252356 0.00654166 0.00409544 ) 0 
( 0.00358104 0.0119594 0.00165254 ) 0 
( 0.00328537 0.00389179 0.00767705 ) 0 
( 0.0106503 0.0063323 0.00746091 ) 0 
( 0.00480374 0.00563545 0.00229399 ) 0 
( 0.00318054 0.000574674 0.00625011 ) 0 
( 0.000539401 0.00265777 0.00642908 ) 0 
( 0.0120263 0.00373613 0.00456949 ) 0 
( 0.00889588 0.00734701 0.00518678 ) 0 
( 0.00528299 0.00675638 0.00252668 ) 0 
( 0.0100616 0.00246992 0.00478451 ) 0 
( 0.00748636 0.00751088 0.000499202 ) 0 
( 0.00196171 0.00802739 0.00396882 ) 0 
( 0.0114633 5.58738e-05 0.00146685 ) 0 
( 0.00159982 0.00347811 0.0045892 ) 0 
( 0.00637073 0.00800625 0.00500171 ) 0 
( 0.00359973 0.00130263 0.00264387 ) 0 
( 0.00816581 0.00432306 0.00685969 ) 0 
( 0.0133184 0.000921367 0.00421972 ) 0 
( 0.00279342 0.0130548 0.00218454 ) 0 
( 0.0105103 0.00371881 0.00479322 ) 0 
( 0.00975102 0.00430286 0.000499473 ) 0 
( 0.00442356 0.00533661 0.00723197 ) 0 
( 0.00949347 0.00883627 0.00142699 ) 0 
( 0.00672345 0.0050063 0.00624793 ) 0 
( 0.0106533 0.00628824 0.00147856 ) 0 
( 0.00440552 0.00386134 0.00153563 ) 0 
( 0.00193013 0.00703792 0.00281041 ) 0 
( 0.00301451 0.00468061 0.00498082 ) 0 
( 0.0133501 5.50905e-05 0.00136535 ) 0 
( 0.0051606 0.00355949 0.000953905 ) 0 
( 0.00604487 0.00834643 0.00219084 ) 0 
( 0.00556656 0.0121341 0.00565602 ) 0 
( 0.00111355 0.00928567 0.00195198 ) 0 
( 0.0092441 0.00922427 0.00236992 ) 0 
( 0.00215127 0.0107828 0.00367088 ) 0 
( 0.00201168 0.0113054 0.00618524 ) 0 
( 0.00449472 0.0116196 0.0014299 ) 0 
( 0.00177974 0.00505141 0.0061895 ) 0 
( 0.00801706 0.00794825 0.00429769 ) 0 
( 0.00126115 0.00996964 0.00479103 ) 0 
( 0.00311794 0.00726703 0.00470076 ) 0 
( 0.0016608 0.000743732 0.00528472 ) 0 
( 0.0133502 8.35959e-05 0.00554051 ) 0 
( 0.00349833 0.000584444 0.00194121 ) 0 
( 0.0118647 0.00179217 0.00188014 ) 0 
( 0.0104446 6.0298e-05 0.00311268 ) 0 
( 0.0023145 0.000428221 0.00366024 ) 0 
( 0.00731006 0.00764994 0.00341185 ) 0 
( 0.0086648 0.00813018 0.00218817 ) 0 
( 0.011238 0.00525777 0.00376298 ) 0 
( 0.00400844 0.00791473 0.00368491 ) 0 
( 0.00449677 0.0119697 0.00301144 ) 0 
( 0.00988386 0.00038711 0.00732349 ) 0 
( 0.00964485 0.00800816 0.00234273 ) 0 
( 0.00428927 0.0062754 0.000499425 ) 0 
( 0.00401646 0.00902426 0.0058269 ) 0 
( 0.0111741 0.00447566 0.00486986 ) 0 
( 0.0133396 0.000553818 0.000499305 ) 0 
( 0.00178345 0.005462 0.00385469 ) 0 
( 0.00795237 0.00518928 0.00531879 ) 0 
( 4.49602e-05 0.00401239 0.00452496 ) 0 
( 0.00167294 0.00336333 0.00557979 ) 0 
( 0.000395662 0.00132756 0.00209726 ) 0 
( 0.000649508 0.0115598 0.000499781 ) 0 
( 0.00505837 0.00840508 0.00374217 ) 0 
( 0.0100323 0.00342743 0.00310255 ) 0 
( 0.000405764 0.0121919 0.00646279 ) 0 
( 0.00861974 0.00906299 0.00049978 ) 0 
( 0.00875096 0.000450018 0.00139461 ) 0 
( 0.00222522 0.0018386 0.007017 ) 0 
( 0.00758588 0.00858426 0.00493749 ) 0 
( 0.00181675 0.00396252 0.00368261 ) 0 
( 0.000144209 0.00957058 0.00544514 ) 0 
( 0.00127096 0.00333365 0.00651806 ) 0 
( 0.003921 0.0051522 0.00213751 ) 0 
( 0.000901503 0.000962301 0.00792897 ) 0 
( 0.00318458 0.0066283 0.00617601 ) 0 
( 0.00178025 0.0132027 0.00537158 ) 0 
( 0.00706816 0.00764481 0.00438314 ) 0 
( 0.00649108 0.000996744 0.00586484 ) 0 
( 0.00251409 0.0037744 0.00136361 ) 0 
( 0.00816605 0.0059923 0.00635233 ) 0 
( 0.0056127 0.00176353 0.00472252 ) 0 
( 0.00101014 0.0106267 0.00550172 ) 0 
( 0.00770973 0.00130939 0.00489141 ) 0 
( 0.0057267 0.00301995 0.00157662 ) 0 
( 0.0065289 0.00181145 0.00528645 ) 0 
( 0.00221995 0.0104944 0.00704697 ) 0 
( 0.00201835 0.00265125 0.00496865 ) 0 
( 0.0110533 0.0074865 0.00715702 ) 0 
( 0.00697936 0.00201011 0.00202208 ) 0 
( 6.33165e-05 0.00500355 0.00797784 ) 0 
( 0.00201552 0.00993429 0.00544597 ) 0 
( 0.00737875 0.0107422 0.00387768 ) 0 
( 0.00166884 0.000838072 0.000903607 ) 0 
( 0.00080069 0.00588248 0.000499801 ) 0 
( 0.00104969 0.00163546 0.00138235 ) 0 
( 0.00736312 0.00276122 0.00255861 ) 0 
( 0.00128048 0.00913846 0.00423592 ) 0 
( 0.00111445 0.00962655 0.00101211 ) 0 
( 0.00812466 0.0012419 0.00334068 ) 0 
( 0.00754587 0.000188547 0.00250715 ) 0 
( 0.00554513 0.00585155 0.00296122 ) 0 
( 0.0122724 0.00186002 0.00310104 ) 0 
( 0.00403679 0.0020527 0.00678481 ) 0 
( 0.00278659 0.00127608 0.00206251 ) 0 
( 0.0022186 0.00693163 0.00639198 ) 0 
( 0.0128647 0.00195673 0.00581847 ) 0 
( 0.00364802 0.0114425 0.00297749 ) 0 
( 0.0112815 0.00345667 0.00537342 ) 0 
( 0.0100424 0.0003001 0.000499626 ) 0 
( 0.00018968 0.00249927 0.00388167 ) 0 
( 0.00123569 0.0107498 0.00049981 ) 0 
( 0.00183261 0.00925435 0.00616875 ) 0 
( 0.00643788 0.0012004 0.00685191 ) 0 
( 0.00727914 0.00599165 0.00234187 ) 0 
( 0.00224459 0.00898494 0.00402103 ) 0 
( 0.0120183 0.00302806 0.00381269 ) 0 
( 0.00330939 0.0093591 0.00645554 ) 0 
( 0.00105734 0.00186781 0.00683186 ) 0 
( 0.00708305 0.00693402 0.00261215 ) 0 
( 0.00727345 0.0107697 0.00288347 ) 0 
( 0.00549918 0.000929996 0.000499666 ) 0 
( 0.00290359 0.00743857 0.0056621 ) 0 
( 0.00497023 0.00759287 0.00607627 ) 0 
( 0.00587341 0.00175314 0.00607919 ) 0 
( 0.00502798 0.012367 0.00375984 ) 0 
( 0.00355332 0.00395764 0.00102165 ) 0 
( 0.00186302 0.00735472 0.000499423 ) 0 
( 0.00722504 0.00313897 0.00662198 ) 0 
( 0.00776007 0.00171125 0.00135498 ) 0 
( 0.00276128 0.0120584 0.002259 ) 0 
( 0.00436977 0.00514222 0.00625281 ) 0 
( 0.00468709 0.00288051 0.00676542 ) 0 
( 0.00462451 0.00981276 0.000602688 ) 0 
( 0.00890322 0.00722532 0.00183192 ) 0 
( 0.00218407 0.0102377 0.00450837 ) 0 
( 0.00462931 0.0018722 0.00515751 ) 0 
( 0.00262878 0.00504354 0.00352269 ) 0 
( 0.00330084 0.011735 0.00428934 ) 0 
( 0.0107567 0.00384728 0.00229118 ) 0 
( 0.0013697 0.00731585 0.00359045 ) 0 
( 0.00516585 0.00192509 0.00208597 ) 0 
( 0.0129218 0.0026158 0.00318713 ) 0 
( 0.00711779 0.0112949 0.000737748 ) 0 
( 0.0102237 0.000733618 0.00240548 ) 0 
( 0.00542416 0.00669383 0.00351527 ) 0 
( 0.0114121 0.00423888 0.00293668 ) 0 
( 0.00725317 0.00926075 0.00559506 ) 0 
( 0.0001347 0.00363356 0.00351028 ) 0 
( 0.00622347 0.00659796 0.000603579 ) 0 
( 0.00459153 0.00810325 0.00530256 ) 0 
( 0.00645817 0.0116304 0.00141331 ) 0 
( 0.00439092 0.00138734 0.00431624 ) 0 
( 0.00473253 0.00291619 0.0015883 ) 0 
( 0.0072268 0.00417197 0.000499558 ) 0 
( 0.00343507 0.00627274 0.00323446 ) 0 
( 0.00245903 0.00505399 0.00179768 ) 0 
( 0.0120186 0.00263647 0.0013669 ) 0 
( 0.00366706 0.00954415 0.00049957 ) 0 
( 0.00194267 0.00900215 0.00500091 ) 0 
( 0.00557724 0.0104233 0.00698352 ) 0 
( 0.000838075 0.000297699 0.00493109 ) 0 
( 0.00139002 0.003507 0.00757733 ) 0 
( 0.00354725 0.00478566 0.00690382 ) 0 
( 0.0115833 0.00441281 0.00585409 ) 0 
( 0.00337596 0.00625842 0.00424177 ) 0 
( 0.00574546 0.00185915 0.00714528 ) 0 
( 0.00226346 0.000562785 0.00767454 ) 0 
( 0.00788677 0.0107384 0.00574131 ) 0 
( 0.00264657 0.00990182 0.00133597 ) 0 
( 0.00160177 0.00175005 0.000499598 ) 0 
( 0.00821144 0.00502769 0.00436706 ) 0 
( 0.00383129 0.00796684 0.00466758 ) 0 
( 0.00300367 8.06671e-06 0.00729575 ) 0 
( 0.00272618 0.00476315 0.00633376 ) 0 
( 0.0118564 0.00164433 0.00554767 ) 0 
( 0.00619688 0.00559675 0.00563696 ) 0 
( 0.00274339 0.00321824 0.00216227 ) 0 
( 0.00642336 0.00191736 0.00306194 ) 0 
( 0.00516967 0.0122222 0.00185566 ) 0 
( 0.00870302 0.00295662 0.000499615 ) 0 
( 0.00344625 0.00573777 0.000499773 ) 0 
( 0.00695576 0.00513608 0.000499705 ) 0 
( 0.000962327 0.0108345 0.00251137 ) 0 
( 0.00521963 0.00497082 0.00675078 ) 0 
( 0.00602884 0.0108475 0.00211261 ) 0 
( 0.00291572 0.0048207 0.00767809 ) 0 
( 0.0018325 0.00469325 0.00300025 ) 0 
( 0.0117004 0.00519456 0.00287933 ) 0 
( 0.00489243 0.00382809 0.0031772 ) 0 
( 0.00978784 0.00265464 0.00144333 ) 0 
( 0.00205383 0.00163076 0.00138328 ) 0 
( 0.00640997 0.00749831 0.00769799 ) 0 
( 0.00867609 0.00486088 0.00600733 ) 0 
( 0.00576595 0.00547367 0.00206223 ) 0 
( 0.0041186 0.0119077 0.00526378 ) 0 
( 0.00844577 0.00587196 0.00388591 ) 0 
( 0.00931146 0.0040889 0.00137157 ) 0 
( 0.00265986 0.00935418 0.000499651 ) 0 
( 0.0095413 0.00157207 0.00342208 ) 0 
( 0.0115237 0.00431411 0.00392735 ) 0 
( 0.00431073 0.00200422 0.00259795 ) 0 
( 0.00343912 0.000694269 0.00359158 ) 0 
( 0.00540433 0.0112062 0.00139359 ) 0 
( 0.00461652 9.09842e-05 0.00754279 ) 0 
( 0.00853506 0.0102624 0.00633489 ) 0 
( 0.00652355 0.00816369 0.00133218 ) 0 
( 0.00642637 0.00808314 0.00308308 ) 0 
( 0.00238729 0.00996937 0.00292201 ) 0 
( 0.000616622 0.000970592 0.00685342 ) 0 
( 0.00822884 0.010507 0.00301745 ) 0 
( 0.00801211 3.97192e-05 0.0033789 ) 0 
( 0.00270017 0.00924172 0.00567181 ) 0 
( 0.00485231 0.00437241 0.0057906 ) 0 
( 0.00702693 0.00839829 0.000499928 ) 0 
( 0.00395922 0.00105974 0.00664764 ) 0 
( 0.0013166 0.00704307 0.00183507 ) 0 
( 0.000984705 0.00896344 0.00664865 ) 0 
( 0.00348019 0.00264488 0.00373943 ) 0 
( 0.00435496 0.00881906 0.00049955 ) 0 
( 0.00350335 0.00746895 0.0012645 ) 0 
( 0.00971335 0.0013366 0.0066383 ) 0 
( 0.0119664 0.00358074 0.00104239 ) 0 
( 0.0113207 0.00658577 0.00530035 ) 0 
( 0.0020827 0.0122287 0.00495693 ) 0 
( 0.00661427 0.00561143 0.00374665 ) 0 
( 0.0113375 0.00128667 0.00310397 ) 0 
( 0.006567 0.0105359 0.00442372 ) 0 
( 0.000283351 0.00242722 0.00133197 ) 0 
( 0.00440411 0.010799 0.00658915 ) 0 
( 0.00877777 0.00181054 0.00282224 ) 0 
( 0.0131494 0.00230686 0.000654937 ) 0 
( 0.00237351 3.58625e-05 0.00509646 ) 0 
( 0.0126699 0.00420302 0.000499811 ) 0 
( 0.0128048 0.00377974 0.00154734 ) 0 
( 0.00648582 0.00933434 0.00375938 ) 0 
( 0.00804102 0.00209984 0.00437694 ) 0 
( 0.00986163 0.00567998 0.00142292 ) 0 
( 0.00429234 0.00525641 0.00443362 ) 0 
( 0.00590088 0.00275236 0.000499652 ) 0 
( 0.00496604 0.00626365 0.00704505 ) 0 
( 0.00689709 0.00470481 0.00307829 ) 0 
( 0.00819877 0.00322301 0.00406993 ) 0 
( 0.0100414 0.00711995 0.00500515 ) 0 
( 0.0090018 0.00633553 0.00138721 ) 0 
( 0.0010673 0.00531561 0.00316407 ) 0 
( 0.00541398 0.00750879 0.00188096 ) 0 
( 0.00433732 0.00245136 0.00591847 ) 0 
( 0.00725276 0.0056941 0.00138771 ) 0 
( 0.00153868 0.0132607 0.00440153 ) 0 
( 0.00701218 0.0113604 0.00596777 ) 0 
( 0.00499488 0.0052553 0.00534381 ) 0 
( 0.00570807 0.00458517 0.00753865 ) 0 
( 0.00642119 0.00907046 0.000924236 ) 0 
( 0.00541771 0.00242913 0.00544254 ) 0 
( 0.00548663 0.011841 0.00295711 ) 0 
( 0.00159563 0.0115655 0.00336491 ) 0 
( 0.00155628 0.00063334 0.00428726 ) 0 
( 0.00958497 0.0033508 0.00075489 ) 0 
( 0.0119928 0.00268957 0.00495406 ) 0 
( 0.0087273 0.00142017 0.00411804 ) 0 
( 0.00730935 0.0092581 0.00723125 ) 0 
( 0.00985693 0.0040747 0.00409303 ) 0 
( 0.00983942 0.00464247 0.00623484 ) 0 
( 0.0128199 0.00372471 0.00327699 ) 0 
( 0.0108444 0.00251718 0.00572338 ) 0 
( 0.0127419 0.00320619 0.000499738 ) 0 
( 0.00879225 0.00780088 0.0060717 ) 0 
( 0.0114823 0.00081897 0.00512601 ) 0 
( 7.06025e-05 0.00450222 0.00179865 ) 0 
( 0.00162754 0.0103844 0.00624961 ) 0 
( 0.000124829 0.00505287 0.000499752 ) 0 
( 0.00886585 0.00672397 0.00357457 ) 0 
( 0.00303937 0.0121833 0.00722426 ) 0 
( 0.000954994 0.00803243 0.00737641 ) 0 
( 0.00356296 0.0102784 0.00675556 ) 0 
( 0.0084631 0.00102746 0.00588806 ) 0 
( 0.00392458 0.00704871 0.0027551 ) 0 
( 0.00690832 0.00784527 0.00223983 ) 0 
( 0.00844311 0.00349651 0.00530202 ) 0 
( 0.0107513 0.00497472 0.00237497 ) 0 
( 0.0061429 0.00726685 0.00252115 ) 0 
( 0.00992432 0.00189134 0.00561061 ) 0 
( 0.0109105 0.00143406 0.00221161 ) 0 
( 0.0124361 0.000442796 0.00675857 ) 0 
( 9.4412e-05 0.00234513 0.00551935 ) 0 
( 0.000733693 0.0126188 0.00413551 ) 0 
( 0.00401048 0.00176167 0.00779673 ) 0 
( 0.00476107 0.00131494 0.00319305 ) 0 
( 0.00169831 0.000434597 0.00276808 ) 0 
( 0.00418195 0.00793873 0.00658512 ) 0 
( 0.00123491 0.00524143 0.00702092 ) 0 
( 0.00602657 0.000558403 0.00464828 ) 0 
( 0.0132907 0.0012635 0.00651734 ) 0 
( 0.00972941 0.00634311 0.00324479 ) 0 
( 0.00308136 0.00582095 0.00195293 ) 0 
( 0.0074974 0.00473041 0.00128345 ) 0 
( 0.00924045 0.0047974 0.00440396 ) 0 
( 0.00799405 0.0053901 0.00198574 ) 0 
( 0.00385068 0.0083535 0.0015753 ) 0 
( 0.00409117 0.0127077 0.00366787 ) 0 
( 0.0103244 0.00846323 0.00723324 ) 0 
( 0.0132534 0.00160328 0.00135855 ) 0 
( 0.00169584 0.0098144 0.00362742 ) 0 
( 0.00666943 0.00307275 0.00190501 ) 0 
( 0.00204885 0.00639397 0.00205479 ) 0 
( 0.00544602 0.00670664 0.00577464 ) 0 
( 0.00188481 0.0132163 0.00256926 ) 0 
( 9.99886e-05 0.00183111 0.0046202 ) 0 
( 0.000750843 0.00654352 0.00766503 ) 0 
( 0.0086814 0.00659806 0.00454897 ) 0 
( 0.00356739 0.00655044 0.00525554 ) 0 
( 4.33859e-05 0.000679588 0.00588845 ) 0 
( 0.00225413 0.00766304 0.00208339 ) 0 
( 0.00361518 0.0101451 0.0013017 ) 0 
( 0.0047404 0.00768636 0.00436033 ) 0 
( 0.00126665 0.00683064 0.00601221 ) 0 
( 1.92582e-05 0.000842129 0.00474359 ) 0 
( 0.000238807 0.0124715 0.000499622 ) 0 
( 0.00583132 0.00863552 0.00556068 ) 0 
( 8.93195e-05 0.0117788 0.00557701 ) 0 
( 0.0102237 0.00359268 0.00148473 ) 0 
( 0.00142913 0.00815492 0.0048059 ) 0 
( 0.0015296 0.00972631 0.00699651 ) 0 
( 0.00203887 0.0107425 0.00233952 ) 0 
( 0.0012617 0.00710353 0.00701297 ) 0 
( 0.0126238 0.000209153 0.00486518 ) 0 
( 0.0103964 0.00688856 0.00375421 ) 0 
( 0.00827131 0.00615349 0.00536376 ) 0 
( 0.00903933 0.00404143 0.00644971 ) 0 
( 0.00195796 0.000755559 0.00185726 ) 0 
( 0.000342308 0.00560899 0.0018524 ) 0 
( 0.00896713 0.00697617 0.000499687 ) 0 
( 0.000195153 0.0125628 0.00217202 ) 0 
( 0.001319 0.00425095 0.00691334 ) 0 
( 0.00533827 0.00147201 0.00797217 ) 0 
( 0.0106494 0.0060847 0.000499658 ) 0 
( 0.00600835 0.00612676 0.00647486 ) 0 
( 0.00043004 0.0101451 0.00049982 ) 0 
( 0.0106526 0.00254142 0.00387934 ) 0 
( 0.00206445 0.0131895 0.00355316 ) 0 
( 0.010628 0.00111035 0.000499727 ) 0 
( 0.00897983 0.00543832 0.0018272 ) 0 
( 0.00993576 0.00891085 0.00538288 ) 0 
( 0.000877836 0.0072284 0.00271826 ) 0 
( 0.00636584 0.0076144 0.00604052 ) 0 
( 0.00762684 0.00341046 0.00327155 ) 0 
( 0.00379212 0.00329205 0.0044349 ) 0 
( 0.00922499 0.000469109 0.006546 ) 0 
( 0.00211714 0.012333 0.00297674 ) 0 
( 0.0039344 0.00612238 0.00237892 ) 0 
( 0.0123481 0.00119296 0.00479481 ) 0 
( 0.00578325 0.0100796 0.00391589 ) 0 
( 0.000362614 0.01323 0.00680857 ) 0 
( 0.0104652 0.00589152 0.00374907 ) 0 
( 0.00421554 0.00879414 0.00411289 ) 0 
( 0.00399564 0.00788349 0.000499546 ) 0 
( 0.00279512 0.00947065 0.00470323 ) 0 
( 1.10682e-05 0.00927315 0.00647777 ) 0 
( 0.00141744 0.00567695 0.00148144 ) 0 
( 0.00749557 0.00787216 0.00143116 ) 0 
( 0.0106056 0.00810882 0.00634131 ) 0 
( 0.000192595 0.00202652 0.00299678 ) 0 
( 0.00136682 0.00245621 0.0058685 ) 0 
( 0.00893392 0.00566334 0.00479802 ) 0 
( 0.00684576 0.00838895 0.00757097 ) 0 
( 0.00424386 0.0117631 0.00395811 ) 0 
( 0.0131672 0.00220193 0.00229701 ) 0 
( 0.00996015 0.00759248 0.00319488 ) 0 
( 0.0017617 0.00479659 0.00112903 ) 0 
( 0.00665265 0.00702349 0.00685243 ) 0 
( 0.00481313 0.0114075 0.00474531 ) 0 
( 0.00822332 0.00699724 0.00589766 ) 0 
( 0.00405001 0.00697454 0.00448832 ) 0 
( 0.00601684 0.00438713 0.00474921 ) 0 
( 0.00539508 0.00272759 0.00448744 ) 0 
( 0.00335689 0.00224903 0.00604547 ) 0 
( 0.00603825 0.00820501 0.00400008 ) 0 
( 0.0049204 0.011352 0.00229401 ) 0 
( 0.00372712 0.00162701 0.000499505 ) 0 
( 0.00266171 0.000370898 0.00246814 ) 0 
( 0.00922748 0.00215447 0.000783376 ) 0 
( 0.0012679 0.0126598 0.00669161 ) 0 
( 0.00524823 0.000471206 0.00296303 ) 0 
( 0.00152632 0.00388624 0.00146916 ) 0 
( 0.00692946 0.00101068 0.00782614 ) 0 
( 0.00798854 0.00382752 0.00104806 ) 0 
( 0.00301872 0.0103046 0.000500231 ) 0 
( 0.00973498 0.00805173 0.00585352 ) 0 
( 0.00838729 0.00402679 0.00306799 ) 0 
( 0.00366525 0.00451925 0.00321052 ) 0 
( 0.000239703 0.00585306 0.00541203 ) 0 
( 0.0015302 0.00677844 0.0050395 ) 0 
( 0.00287305 0.0076014 0.000499664 ) 0 
( 0.00440886 0.00483834 0.00132318 ) 0 
( 0.00515524 0.0104383 0.00603657 ) 0 
( 0.00634348 0.00718784 0.00145265 ) 0 
( 0.00397577 0.000182466 0.00116018 ) 0 
( 0.0042761 0.0108342 0.00536481 ) 0 
( 0.000182133 0.0118095 0.00383875 ) 0 
( 0.0118339 0.00255731 0.00595389 ) 0 
( 0.00157355 0.00653561 0.000993996 ) 0 
( 0.000691759 0.00133213 0.000499578 ) 0 
( 0.000998321 0.0133131 0.00598502 ) 0 
( 0.0126029 0.000685307 0.00157588 ) 0 
( 0.0068507 0.00188158 0.00624757 ) 0 
( 0.00442123 0.00338507 0.00241468 ) 0 
( 0.00489415 0.00271 0.0004997 ) 0 
( 0.0080052 0.00321604 0.00187058 ) 0 
( 0.00959152 0.00253081 0.00314267 ) 0 
( 0.0130503 0.00281113 0.00151251 ) 0 
( 0.0067351 0.0115221 0.00326273 ) 0 
( 0.0091637 0.0049864 0.000932273 ) 0 
( 0.00503306 0.000186773 0.000979148 ) 0 
( 0.00934189 0.0064576 0.00528602 ) 0 
( 0.009118 0.00311463 0.00608269 ) 0 
( 0.00978018 0.00112887 0.00143013 ) 0 
( 0.00217887 0.00627859 0.00563583 ) 0 
( 0.00229596 0.00938447 0.00211626 ) 0 
( 0.0108603 0.00776452 0.00388298 ) 0 
( 0.00755886 0.00529626 0.00365914 ) 0 
( 0.0132482 0.0016476 0.00314269 ) 0 
( 0.00717844 0.0032197 0.00414559 ) 0 
( 0.00263238 0.0118182 0.00129217 ) 0 
( 0.00762297 0.00885771 0.0013235 ) 0 
( 0.0128105 0.00196032 0.00402104 ) 0 
( 0.00318553 0.012964 0.00653203 ) 0 
( 0.000207164 0.00460503 0.00373576 ) 0 
( 0.00954243 0.000610455 0.00314993 ) 0 
( 0.0076338 0.0109525 0.00668453 ) 0 
( 0.00818484 0.00113233 0.00205074 ) 0 
( 0.00845864 0.0045894 0.00151974 ) 0 
( 0.00531509 0.00949126 0.00553146 ) 0 
( 0.000134317 0.00405246 0.000499703 ) 0 
( 0.00341971 0.012905 0.00294937 ) 0 
( 0.00273362 0.0130669 0.0056411 ) 0 
( 0.00464026 0.000551545 0.0038275 ) 0 
( 0.00617487 0.0117828 0.00636767 ) 0 
( 0.000543612 0.00373675 0.00136309 ) 0 
( 0.00510953 0.00582476 0.00615765 ) 0 
( 0.00400819 0.0105927 0.000499357 ) 0 
( 0.00784985 0.00482626 0.00280017 ) 0 
( 0.000336094 0.011089 0.00135477 ) 0 
( 0.00773574 0.00619751 0.00452056 ) 0 
( 0.000367035 0.0104218 0.00476427 ) 0 
( 0.00922774 0.00823605 0.0004997 ) 0 
( 0.00778097 0.00810214 0.00265444 ) 0 
( 0.0045105 0.00438168 0.00238296 ) 0 
( 0.0117844 0.00211224 0.00413733 ) 0 
( 0.00710616 0.0093675 0.00454267 ) 0 
( 0.0130218 0.00294366 0.00584027 ) 0 
( 0.00426163 0.00998948 0.00592455 ) 0 
( 0.00976631 0.00494971 0.00220435 ) 0 
( 0.00379964 0.00696661 0.00700483 ) 0 
( 0.0110824 0.00742216 0.00579325 ) 0 
( 0.00772816 0.00415593 0.00206848 ) 0 
( 0.00024614 0.00937343 0.00145916 ) 0 
( 0.00949285 0.00938667 0.00340549 ) 0 
( 0.00340568 0.0129084 0.00139153 ) 0 
( 0.00073242 0.0101991 0.00174354 ) 0 
( 0.00953769 0.00783996 0.0013638 ) 0 
( 0.00202965 0.00405743 0.00620476 ) 0 
( 0.00257343 0.0022495 0.00198231 ) 0 
( 0.00644295 0.0059074 0.00734808 ) 0 
( 0.00438016 0.0126113 0.0013812 ) 0 
( 0.00602852 0.0112868 0.00742565 ) 0 
( 0.00871831 0.00144051 0.00126324 ) 0 
( 0.00648384 0.00395091 0.00582481 ) 0 
( 0.00832218 0.0104389 0.00401044 ) 0 
( 0.00106036 0.00617928 0.00226875 ) 0 
( 0.00978496 0.00908169 0.000499797 ) 0 
( 0.00834818 0.00771561 0.00338336 ) 0 
( 0.0112293 0.00131864 0.00127086 ) 0 
( 0.000620577 0.00250669 0.00746492 ) 0 
( 0.0033859 0.0112367 0.00515173 ) 0 
( 0.0115557 0.00334829 0.0019239 ) 0 
( 0.00648741 0.00755675 0.000499638 ) 0 
( 0.00997819 0.00564854 0.00650453 ) 0 
( 0.00015094 0.00837262 0.00688925 ) 0 
( 0.00587519 0.0109517 0.00319777 ) 0 
( 0.0062792 0.00274009 0.00501247 ) 0 
( 0.00248911 0.0131083 0.00467244 ) 0 
( 0.00368529 0.00263849 0.000499799 ) 0 
( 0.0128868 0.00348805 0.00501281 ) 0 
( 0.00498674 0.0110428 0.000499797 ) 0 
( 0.00593235 0.00991968 0.00252584 ) 0 
( 0.000332313 0.00679938 0.00510243 ) 0 
( 0.00393973 0.00178551 0.00351527 ) 0 
( 0.00544133 0.00229801 0.0030164 ) 0 
( 0.00267211 0.00310673 0.00557274 ) 0 
( 0.00642462 0.00235216 0.00125141 ) 0 
( 0.00341757 0.0111653 0.00106756 ) 0 
( 0.0113745 0.0022768 0.00324029 ) 0 
( 0.00376094 0.0031166 0.00171206 ) 0 
( 0.00307267 0.00379463 0.00670479 ) 0 
( 0.00417485 0.00236001 0.00439986 ) 0 
( 0.00351984 0.00559162 0.00497283 ) 0 
( 0.0103429 0.000887939 0.00484101 ) 0 
( 0.00138661 0.0116833 0.00686801 ) 0 
( 0.0122312 0.00274894 0.00689327 ) 0 
( 0.0106507 0.00797626 0.0022905 ) 0 
( 0.0127889 0.00138769 0.000499804 ) 0 
( 0.000257311 0.0133026 0.00136478 ) 0 
( 0.00573214 0.000524633 0.00631188 ) 0 
( 0.00388858 0.000519139 0.00448625 ) 0 
( 0.00940659 0.00150295 0.00484758 ) 0 
( 0.00467215 0.0125058 0.00590461 ) 0 
( 0.00303227 0.007522 0.00668475 ) 0 
( 0.00461003 0.00616981 0.00311698 ) 0 
( 0.00660312 0.00491204 0.00723585 ) 0 
( 0.00353683 0.00262262 0.00513246 ) 0 
( 0.00298564 0.00273561 0.00120889 ) 0 
( 6.23239e-05 0.00820612 0.000499514 ) 0 
( 0.0109813 0.00759282 0.00130106 ) 0 
( 0.00637052 0.0117314 0.0051626 ) 0 
( 0.00854009 0.00242496 0.00357406 ) 0 