FoamFile
{version 2.0; format ascii;class vectorField; location 0;object  v;}
2510
(
( -5.43059e-05 -6.23867e-05 0.00013671 )  
( -0.000503713 -0.00014369 0.000114137 )  
( 0.000419392 0.000289562 0.00130537 )  
( 0.000357079 -0.00088335 0.000837097 )  
( 0.000434981 -0.000539736 0.000782922 )  
( -0.000108375 -0.000134097 -3.98776e-05 )  
( -0.000417935 0.000523653 0.000856872 )  
( 0.000168565 -0.000414433 -0.000498 )  
( 0.00328455 -0.00339888 0.00320278 )  
( 0.000147662 3.94286e-05 0.000890316 )  
( -0.000239936 -0.00111915 0.00169969 )  
( 4.32386e-05 0.00120574 0.000822957 )  
( 0.000423732 -0.000288059 0.000918598 )  
( -0.000413579 -0.000234836 0.00122958 )  
( -0.00030094 -0.000105246 0.00103711 )  
( 0.000388224 8.3838e-05 0.000975628 )  
( -5.13799e-05 -0.000207394 0.0008161 )  
( 0.000463372 -0.00067267 0.00117654 )  
( -9.88917e-06 -0.00185108 0.00102177 )  
( -0.00024124 -9.08486e-05 0.000127934 )  
( -1.29827e-05 9.12099e-05 0.00103629 )  
( 0.000204062 -0.00035918 0.000660436 )  
( -0.000783643 1.62487e-05 0.00139334 )  
( 0.00362682 0.00937317 -0.00178746 )  
( -0.000229793 5.96732e-05 0.000500402 )  
( 0.00022144 -0.000376918 0.000895923 )  
( 0.000721918 0.000197528 0.000870937 )  
( 0.000449007 0.000411225 0.000910423 )  
( 3.60821e-05 0.000239081 0.000889735 )  
( -0.000538178 -0.000726078 0.000831368 )  
( 2.04145e-05 -0.000393437 0.000788041 )  
( -0.000239026 0.000127267 0.00113371 )  
( 9.15494e-05 -0.000304971 -0.000157299 )  
( -7.53438e-05 -0.000203534 0.00058375 )  
( -0.00111539 -0.000534701 0.00237214 )  
( -0.000571629 -0.000262772 -0.0013366 )  
( 0.00217564 -0.000799706 0.00115054 )  
( 0.000851579 -0.00018153 0.000839102 )  
( 8.384e-05 -0.000401969 0.00110191 )  
( -0.000283236 0.000246068 0.00106136 )  
( 0.000662897 -0.000661433 0.00360437 )  
( -0.000143002 9.24964e-05 0.000921386 )  
( 0.000748725 -0.00035493 0.000377156 )  
( 2.42609e-05 -2.56834e-05 1.08384e-05 )  
( 0.000337662 0.000170551 -0.000125418 )  
( 0.000634085 0.000222286 0.00267805 )  
( -9.73431e-05 4.67919e-05 9.93062e-05 )  
( -0.000944333 0.000521011 -0.00112716 )  
( 0.000399847 0.00012398 0.000684661 )  
( 1.50902e-05 -6.38775e-05 0.000617766 )  
( -0.000430782 -0.000712396 0.000954426 )  
( -0.000374608 -0.000333394 0.000885734 )  
( 0.000733132 -0.000662868 0.00161504 )  
( -0.000110972 -0.000526565 0.000793021 )  
( -0.000158063 -0.000193845 8.65224e-05 )  
( 0.00182899 -0.00217567 0.00257143 )  
( 0.000649093 -6.82578e-05 0.00010702 )  
( -0.000771055 -2.98753e-05 0.00203403 )  
( 0.000402352 -0.000334424 0.000153001 )  
( -0.000256468 0.000133742 5.30848e-05 )  
( -0.000309402 0.000165686 0.00156928 )  
( -0.000228536 -0.000327812 -0.000357197 )  
( -4.37383e-05 0.000103203 -1.15794e-05 )  
( -0.000442374 -0.000571695 0.000463863 )  
( -0.00011424 -0.0004499 0.00109655 )  
( -0.000777341 -0.000784085 0.0064592 )  
( -0.000228933 -0.000545319 0.000388637 )  
( -0.000138722 0.000142403 0.00122325 )  
( 0.000151718 -0.000516143 0.000540261 )  
( -0.000368155 7.41703e-05 0.00334385 )  
( 0.000334012 -0.000448875 0.00110724 )  
( 0.000139694 -0.000156059 -0.000118221 )  
( -0.000885738 -0.00056466 0.000868136 )  
( -0.000785328 0.000419049 2.69166e-05 )  
( -0.00017813 -0.000598438 0.000873895 )  
( 0.000954124 -0.000663534 0.00101295 )  
( -0.000999928 0.00037027 0.000848443 )  
( -0.000105583 -2.82423e-05 0.000531427 )  
( -0.000491528 -0.000778751 0.000957774 )  
( 0.000361938 0.000513154 0.00265377 )  
( -3.48485e-05 -0.000624951 0.00133605 )  
( 0.00077123 3.66809e-05 0.0017903 )  
( -0.000159973 5.59808e-06 0.000807243 )  
( 1.42654e-05 -0.00034706 0.000133295 )  
( -0.000545576 -0.00068581 0.00026007 )  
( 8.22844e-05 -0.000434446 0.00035192 )  
( 0.000421384 -0.000731039 0.000945886 )  
( -0.00017033 -0.000365602 0.000232041 )  
( 0.000262023 -0.00151007 0.00190397 )  
( -0.0011961 -0.000616384 0.00132884 )  
( 2.55362e-05 0.000635425 0.000861661 )  
( -4.23994e-06 -0.000213338 -9.40305e-06 )  
( -5.31199e-05 -0.00142447 0.000433533 )  
( -0.000414135 -0.000488729 0.00111281 )  
( 0.000870248 -0.000160656 0.00056958 )  
( 0.000265289 0.000110749 0.00203968 )  
( -0.00181892 -0.000974447 0.00226288 )  
( 0.000550552 0.000471489 0.000672162 )  
( 0.000710648 -0.000435243 0.000749225 )  
( 2.56821e-05 -8.63554e-05 3.08105e-06 )  
( -0.000548637 -0.000138399 0.000714697 )  
( -1.13359e-05 -0.000434872 0.000905177 )  
( -6.97254e-06 0.000182625 3.89718e-05 )  
( -4.46344e-05 -0.00102034 0.00197181 )  
( -0.000185207 -3.24585e-05 0.000344506 )  
( 0.00096512 0.000786546 0.000645454 )  
( -0.00111125 -0.000268181 0.000243061 )  
( -2.86019e-05 -0.000588402 0.000539925 )  
( 0.000133432 -0.00104329 0.000366738 )  
( 0.000240944 -0.000281284 0.000494426 )  
( 0.000455466 -0.000252107 -2.73579e-05 )  
( -0.000361064 -0.00016695 0.000928469 )  
( 4.02724e-05 4.11607e-05 0.000333736 )  
( -0.00140166 0.000724316 0.00240044 )  
( -0.000110212 -4.019e-05 -0.000124194 )  
( -0.000299654 -4.87652e-05 0.000187141 )  
( -0.000524606 0.000350129 0.00172482 )  
( 6.51909e-05 0.000264161 0.00143895 )  
( -0.00139426 -0.000481627 0.00483868 )  
( -4.37381e-05 0.000819937 0.000214914 )  
( 2.35192e-05 -5.62638e-05 -5.4709e-06 )  
( -0.000196273 -0.00108695 0.00159035 )  
( 0.000881126 -0.000661554 0.000375737 )  
( -0.000172357 -0.000112028 1.27268e-05 )  
( -0.000550373 -0.000639238 0.000717569 )  
( -0.000365047 0.000585288 -0.000142446 )  
( -0.000603082 -0.000868681 0.00118796 )  
( -0.000236019 8.5346e-05 -2.543e-05 )  
( -9.2087e-05 -1.48551e-05 -9.31322e-06 )  
( -0.000919407 -4.93138e-05 0.00055545 )  
( -0.000274251 -0.000700487 0.000579083 )  
( -0.00126986 -0.000611054 0.0010723 )  
( -0.000170054 -8.56005e-05 0.000220991 )  
( 0.000170081 -0.001568 0.00164944 )  
( -0.000466211 -0.000241826 0.000407667 )  
( 3.44491e-05 0.00055336 0.000628739 )  
( 0.000249395 -0.00161943 0.00020795 )  
( -5.2349e-05 -8.21681e-05 0.000109614 )  
( -1.96233e-05 -0.000197483 0.000376121 )  
( 0.000479859 -1.40269e-05 -0.000125005 )  
( -0.000604218 -0.000679323 9.34362e-05 )  
( 0.00094406 0.000807191 0.0014917 )  
( -0.000597241 -0.000442328 0.000321493 )  
( 0.000921024 0.000185797 0.000256534 )  
( 0.000665574 0.00105483 0.000820322 )  
( 0.000682855 -0.000367577 -0.00112692 )  
( -0.000312698 -0.00157277 0.0029101 )  
( 0.000231089 0.000111103 0.000200432 )  
( -0.00125721 5.75141e-05 -0.000590131 )  
( 0.0006095 -0.00157998 0.00172747 )  
( -0.000422245 -0.000134812 -0.000315943 )  
( 0.000196255 0.000472789 0.000746488 )  
( -0.000116515 -2.06739e-05 0.000269868 )  
( -0.00064402 -0.000222705 0.000537117 )  
( -0.000252017 0.000360733 4.23132e-05 )  
( -0.000232846 6.60147e-05 0.000150394 )  
( -0.00118313 0.00409926 -0.000479672 )  
( -3.76685e-06 -0.000562945 0.00188193 )  
( 0.00042664 -0.000539335 0.000637389 )  
( 0.000829349 -0.000314018 0.000388619 )  
( -0.000271356 0.000400021 0.00010161 )  
( 0.00320969 -0.00109206 0.00742904 )  
( 0.000282849 -0.000395296 -6.43242e-05 )  
( -0.000187504 -0.000119836 0.000118322 )  
( -0.000422858 -0.00016244 -0.000433182 )  
( -6.47855e-05 3.86045e-05 4.44087e-05 )  
( 0.000280789 0.000460447 6.62751e-05 )  
( 0.000318135 -0.000529127 0.000992051 )  
( -0.00010113 -0.000420781 0.000114234 )  
( 0.000468428 -0.000688815 8.19276e-05 )  
( -0.00186559 6.97028e-05 0.00111163 )  
( -0.000495687 -0.000546362 0.000207568 )  
( 0.000360535 -0.000860429 0.000245288 )  
( -0.000868863 -0.000473809 0.000300465 )  
( -0.000861688 -0.000470538 0.000250573 )  
( -7.00563e-05 -0.000270568 0.00101091 )  
( -0.000507862 -0.000171053 -0.000301806 )  
( -0.000246015 -0.000140961 0.000212052 )  
( 0.000710253 -0.000756896 0.000491257 )  
( -0.000223221 -0.000934133 0.00126465 )  
( 0.000396081 -0.000967456 0.00198991 )  
( 0.000893145 0.000270867 0.00323357 )  
( -0.000552705 -0.000679436 -0.000982195 )  
( -0.000423926 0.000331935 -0.000541704 )  
( -0.000763841 -0.000650102 0.00117919 )  
( -0.00229315 0.00312278 0.00313436 )  
( 0.000540917 -0.00027664 0.00481951 )  
( -0.000142236 -8.8723e-05 0.00143269 )  
( 0.000576109 -0.00087684 0.00244864 )  
( -0.000326241 0.000285125 0.000466139 )  
( 0.00206427 -0.00193752 0.00201509 )  
( -0.000259965 0.000205882 0.000383037 )  
( -5.3453e-05 0.000125132 0.000130697 )  
( -0.00234681 -0.00103743 0.00325213 )  
( 0.000223186 0.00027391 0.00102405 )  
( 0.00032025 -0.000658961 0.000227335 )  
( -0.000338949 -0.000563528 0.000594758 )  
( -0.00163626 -0.00113334 0.00240684 )  
( -0.000569208 -0.000221262 0.00163086 )  
( 0.000417399 -0.000100692 -6.04704e-05 )  
( -0.000263128 0.00031801 0.000180068 )  
( -0.000935763 -0.000456402 -0.000824572 )  
( -0.000937686 7.8695e-05 -0.000533355 )  
( -0.000232299 1.54086e-06 0.000118225 )  
( 0.000320032 0.000794713 -0.000548415 )  
( 0.000643978 0.000342372 0.00120179 )  
( 0.000511243 0.000256043 0.00443801 )  
( -8.3434e-05 -0.000349535 -3.42582e-06 )  
( 0.000235358 -0.000507886 0.00136458 )  
( 0.000386624 0.00033763 0.00033077 )  
( -0.000186514 -8.19385e-05 0.00165858 )  
( -0.000345789 0.000289485 8.42948e-05 )  
( 0.0014689 0.00109685 0.00424278 )  
( -0.000285997 0.000227141 0.000914414 )  
( -0.000391563 -0.000316262 0.000398693 )  
( -4.84488e-05 7.29906e-05 0.000821047 )  
( 0.00100679 -0.000692334 0.00499068 )  
( -0.000853129 -0.000698442 2.69589e-05 )  
( 0.000840664 -0.000997405 -4.15964e-05 )  
( 0.00193737 0.000150904 -0.00263391 )  
( 0.000188892 3.18913e-05 0.000722474 )  
( 0.000398234 -0.00067653 0.00162687 )  
( 0.00163259 -0.000389331 0.00257435 )  
( -0.000121946 -0.000884784 0.00166066 )  
( -6.1203e-05 -0.000870327 0.00145169 )  
( -0.000292634 0.000182304 0.0034163 )  
( -0.000401019 -0.000451033 0.000585395 )  
( -0.000539012 -0.0011774 0.000937177 )  
( -8.70424e-05 -0.000336278 0.00117115 )  
( -0.000128825 -0.000411785 0.000500005 )  
( -0.000543325 0.000529603 0.00130757 )  
( 0.00010089 -0.000157995 6.88619e-06 )  
( -0.00102321 -0.000569096 -0.000774628 )  
( -0.00128566 -0.000114134 -0.000134957 )  
( 0.00223561 -0.0011517 0.00483992 )  
( 0.000329218 -0.000727293 7.97953e-05 )  
( -0.000526047 -0.000934503 0.000301611 )  
( -0.000201646 0.000234273 0.000225123 )  
( -3.95582e-05 -0.000399783 0.000453998 )  
( 0.000882252 0.000326775 0.000969926 )  
( 0.000166802 0.000634033 0.000460441 )  
( -0.000331746 0.000140612 0.00141069 )  
( -0.00270368 -0.000443881 0.0076918 )  
( -3.09515e-05 0.000152243 0.000131616 )  
( -0.00122137 -0.000870682 0.000672135 )  
( 0.000503602 0.000578064 -0.00122166 )  
( -0.000615838 -0.000212413 0.000449396 )  
( 0.000324299 -0.000300579 8.29636e-05 )  
( -7.88167e-05 0.000471433 0.000200525 )  
( -0.000419089 -0.000462922 0.000280551 )  
( -0.000120044 0.0001717 0.000545881 )  
( 0.000397791 -0.00062664 0.000577287 )  
( 0.00126952 -0.00121908 3.85234e-05 )  
( 7.68067e-05 -6.20371e-05 0.000841268 )  
( -0.000162496 -0.000672398 0.000606137 )  
( -0.000179029 -1.30664e-06 4.33772e-05 )  
( -0.000196571 -0.000465933 0.00135022 )  
( -0.000212776 5.23704e-05 1.91949e-05 )  
( 0.000370131 -0.000263135 0.000943367 )  
( -0.00012738 0.000139167 0.000332145 )  
( -0.00023321 -0.000361517 0.000838673 )  
( -6.27923e-05 -5.68251e-05 9.86645e-05 )  
( -0.000423536 0.000298527 0.000105225 )  
( 3.76318e-05 -0.000641717 -0.000381003 )  
( 0.00189339 0.000807117 0.00114966 )  
( -3.4812e-05 -0.000251247 -0.000262317 )  
( -0.000349195 -0.000247696 0.000219135 )  
( -5.65525e-05 -0.00161229 -0.000454369 )  
( 0.000868134 -0.000492556 0.00548779 )  
( 0.000448598 0.000127638 0.000173224 )  
( -0.000594589 -8.75694e-06 0.00117558 )  
( -5.14887e-05 -0.000189065 6.69603e-05 )  
( -0.000141904 0.000245049 0.00188976 )  
( -0.000403293 -0.000194278 0.000360621 )  
( -0.000525786 -0.00101017 0.00160146 )  
( 0.000614584 0.000689337 0.00192473 )  
( 7.65995e-05 -0.000189137 0.000411857 )  
( -8.403e-05 -0.00065377 0.000977002 )  
( -1.4746e-05 -0.000446387 0.00235772 )  
( -0.000351786 -0.000271851 0.00165516 )  
( -0.000308688 -0.000696436 -0.000119415 )  
( 0.000341621 -0.000414552 -0.000286762 )  
( -0.000523373 -0.00013447 -0.000137157 )  
( -5.6697e-05 -0.000302418 0.00214846 )  
( 0.00143245 -0.000525427 0.00197269 )  
( -0.00099149 0.0002596 0.000718544 )  
( -0.00018739 0.000101313 0.000276706 )  
( -1.63181e-05 -0.00101783 0.000602592 )  
( -0.000338155 0.000450617 0.000877944 )  
( -0.000311179 -7.24113e-05 0.00116306 )  
( -0.000902116 0.00054212 0.000624845 )  
( -0.000411761 -0.000311368 9.21592e-05 )  
( -0.000440146 -0.000336055 0.000335157 )  
( 0.00333065 -0.00208032 0.00539937 )  
( -5.361e-05 -1.78627e-05 -2.96799e-06 )  
( 0.000219294 0.000118283 0.00137929 )  
( -0.000112368 -0.000188627 0.000683132 )  
( 1.00098e-07 -0.000346211 0.00265394 )  
( -0.000902045 -0.000662517 0.000647581 )  
( -9.18623e-05 0.00141476 0.00143987 )  
( -6.39922e-05 -3.79615e-05 5.56636e-06 )  
( 0.000415009 -9.98382e-05 -3.70689e-05 )  
( 0.000128007 -0.0001735 0.00220568 )  
( 0.000643865 -0.00132875 0.00163442 )  
( -2.69295e-05 -4.32014e-05 -3.67702e-05 )  
( 0.00223899 -0.000104804 -0.000888593 )  
( 0.000260703 -0.000694018 0.00118959 )  
( -0.000633957 5.74036e-05 0.0018684 )  
( 0.00160474 0.00143984 0.00150316 )  
( 0.000211472 -0.000243367 0.00079785 )  
( -0.000791537 -0.0020435 0.00377809 )  
( -0.00143859 0.000622496 -0.00174301 )  
( -0.00013182 0.000129049 0.000968695 )  
( 0.00060974 0.000364819 0.00253487 )  
( 0.000772689 -0.00164574 0.00217061 )  
( 0.00131038 -0.00154893 0.00209392 )  
( 0.000409327 -0.000485894 0.000801159 )  
( 1.99323e-05 -0.000546742 -9.03075e-05 )  
( -0.000362728 -0.000899875 0.00261595 )  
( 0.00102333 0.000727401 0.00160275 )  
( -0.00265099 -0.00270513 0.00200698 )  
( 0.000277045 -0.000501354 0.000397326 )  
( -0.000721019 -0.000401857 0.000409619 )  
( 0.000263748 0.000247789 0.00212351 )  
( 1.12425e-05 0.00010786 0.000473766 )  
( 0.000784117 -0.000404164 0.00123636 )  
( 0.00097289 -0.00169791 0.00330617 )  
( -0.000785328 0.000417768 0.000445771 )  
( -6.29435e-05 0.000340536 0.00100707 )  
( 0.000466524 -0.000377976 7.15627e-05 )  
( -7.24212e-05 0.000210289 0.00156199 )  
( -0.000646563 -0.000241857 0.000289867 )  
( -0.000380942 -0.000492404 -1.54511e-05 )  
( 0.000952426 6.95991e-05 5.69352e-05 )  
( 0.000363021 -0.000534977 0.000837143 )  
( -0.000425221 -0.000128235 6.21834e-05 )  
( 0.000195859 0.000379175 0.000218326 )  
( -0.000376264 -0.00061101 0.000449795 )  
( 0.00014987 0.000886587 0.000248027 )  
( -0.000134689 -0.000366533 -0.000488593 )  
( 0.000128179 -8.14548e-05 9.58891e-05 )  
( 5.80178e-05 -0.000146508 0.00226648 )  
( 0.000629868 1.33854e-05 0.000737118 )  
( 0.000133973 -0.00112471 0.00103641 )  
( 9.66622e-05 0.00018084 0.000666138 )  
( -0.000384453 0.000604048 0.00112939 )  
( 0.000239007 -0.000421603 0.000805241 )  
( 0.000354252 -0.000414741 -8.3475e-05 )  
( 0.00123407 -0.00148511 0.00180865 )  
( 0.000252095 0.000168345 -3.06632e-07 )  
( 0.000374461 -0.000940068 0.00112167 )  
( -0.000101107 -0.0005367 0.00109148 )  
( -2.13271e-05 -0.001054 0.000334528 )  
( -0.000202238 0.000546067 0.000792018 )  
( -0.000281613 -3.02051e-05 0.000390019 )  
( -0.000170879 -0.00033861 0.000869043 )  
( 0.00239738 -0.0013892 0.00401462 )  
( -0.000467336 -0.00108524 0.00054933 )  
( -0.000370762 9.14948e-05 0.00102296 )  
( 0.000113728 -0.0001203 -9.27194e-05 )  
( 0.000790505 -0.000510881 0.00114816 )  
( 0.000118523 0.00069302 0.00172044 )  
( -0.000107293 -0.00136538 0.00273191 )  
( 0.0004186 -6.86591e-05 0.000752517 )  
( -0.000477912 -0.000235417 5.17267e-05 )  
( 0.000614551 0.000402391 4.72897e-05 )  
( -0.000340567 -0.000631822 0.000549613 )  
( -0.000183416 0.000385483 -0.000107549 )  
( 4.07067e-05 -7.74644e-05 -0.000744107 )  
( 0.000108984 7.88415e-06 0.00102969 )  
( -0.000183864 -0.000584958 0.00105275 )  
( -7.0957e-05 0.000237474 6.19097e-05 )  
( 2.21272e-05 0.000140425 0.000630781 )  
( 0.000533582 -0.000243732 8.70763e-05 )  
( -0.000611849 0.00134467 0.00151384 )  
( -0.000328222 -0.00044878 0.00209501 )  
( 0.000307137 -0.000767051 0.00071197 )  
( 1.78028e-05 -0.000424953 0.000445652 )  
( 0.00046601 -0.000143972 8.75712e-05 )  
( -0.000376637 -0.000503552 -0.000571315 )  
( 0.00331767 -0.0037259 0.00479689 )  
( -3.46277e-05 6.58526e-06 6.12673e-05 )  
( 0.00112725 0.000709711 -0.000662555 )  
( -1.05938e-05 -0.000283257 -8.04441e-05 )  
( 6.27178e-05 0.000133051 0.000123606 )  
( 0.000446112 -0.00057404 0.00471672 )  
( -0.000760907 -0.00135579 0.00153062 )  
( -0.000405717 4.61152e-05 -0.00141123 )  
( 0.00090773 -0.000371751 -0.000265323 )  
( 0.000428313 0.00043044 -9.58449e-05 )  
( 0.000204594 0.000413154 0.00173387 )  
( -0.000820207 0.000405858 0.000573899 )  
( -0.00095886 -0.000387324 -0.000367424 )  
( 0.000389762 -0.00141084 0.00251316 )  
( 0.000111963 -0.000639494 4.61298e-05 )  
( -0.000191104 -2.07046e-05 0.000154607 )  
( 3.81724e-05 -0.000133258 0.000111015 )  
( 0.000359203 0.000202849 0.00601806 )  
( 0.000256656 -0.000414987 0.000529786 )  
( -7.0427e-05 0.000751828 0.00237805 )  
( 0.000244125 -0.00067059 0.00105855 )  
( -7.46743e-05 -0.000620694 0.000643944 )  
( 0.00174128 -0.000440057 0.00137762 )  
( 0.000224669 0.00101266 0.00332777 )  
( -0.00039762 -0.000537826 0.000510149 )  
( -0.00024387 0.000288978 0.000834358 )  
( 0.000190506 -0.000343077 -7.75356e-06 )  
( 0.000189134 -0.000255587 0.000371766 )  
( -0.000256689 -0.000374589 5.49666e-05 )  
( 0.000116632 -0.000350357 0.000730438 )  
( 3.93059e-05 -0.000752805 0.0004735 )  
( 0.000287588 0.00038793 0.0015198 )  
( -0.000424408 -0.00129899 0.000928527 )  
( -0.000626463 0.000705639 0.00057027 )  
( -0.000121779 -0.000110026 0.000782847 )  
( -0.000906237 0.000199724 0.000774826 )  
( -5.45148e-05 0.000135963 0.000403007 )  
( -0.000361777 9.78092e-05 -6.12456e-05 )  
( -0.000265454 -1.07166e-05 5.97815e-05 )  
( -0.000477984 -9.49883e-06 -5.73817e-05 )  
( 0.000462333 -0.000341867 -7.237e-05 )  
( 0.000648962 -0.00059658 0.00054632 )  
( 0.000214175 -0.000670562 0.000811536 )  
( 0.000846299 -0.000147291 -0.000362257 )  
( -0.000171978 -0.000236305 0.00059316 )  
( 0.000134224 -0.000177159 -0.000142631 )  
( -0.000230654 0.000219757 0.000116825 )  
( 0.000386189 0.000227314 -9.27138e-05 )  
( -0.000429889 -0.000219776 7.5385e-05 )  
( 0.000151224 0.00166196 0.000183143 )  
( -0.000192885 -0.000677947 0.000950073 )  
( -7.14924e-05 0.000136951 0.000838698 )  
( -0.000363044 0.000305058 -0.000828237 )  
( -0.00139616 0.00032684 0.0011797 )  
( 0.000445664 -0.000316637 0.000626226 )  
( -0.000181693 8.7363e-05 0.000136172 )  
( 0.000504954 0.000211101 1.611e-05 )  
( -0.000164766 -0.000232097 0.000212149 )  
( 0.000423387 0.00035785 8.24842e-05 )  
( 6.45973e-05 1.41454e-05 -8.26408e-05 )  
( -0.00033413 0.000297445 0.000638497 )  
( -7.80523e-05 0.000201254 0.000331562 )  
( -0.000582673 -0.000523311 0.000659307 )  
( 0.000478461 0.000436768 0.000225945 )  
( -0.000918559 -0.000619379 -0.00125973 )  
( 0.000360165 0.00117528 -0.000985658 )  
( 0.000345573 -7.59171e-05 0.000630253 )  
( 0.000488139 -0.000491939 0.00162221 )  
( -0.000119803 0.0003764 0.000206744 )  
( 3.63228e-05 -0.000508005 7.75593e-05 )  
( 0.000163175 -0.000555607 0.00063663 )  
( 0.000565407 0.000307464 0.00140718 )  
( 0.000320323 -9.54611e-05 4.41491e-05 )  
( -0.000474494 0.000241761 0.00132347 )  
( -0.00123486 -0.000173703 -0.00274391 )  
( -0.000427247 3.2673e-05 0.00573171 )  
( -9.72901e-05 -0.000162626 0.000886231 )  
( 0.000544838 0.000213852 -3.25393e-05 )  
( -0.000511961 -0.00139092 -0.00107914 )  
( -0.000278137 -0.00127441 0.00266064 )  
( 6.35848e-05 -6.25263e-05 -0.000186167 )  
( 0.000450034 0.000573351 0.000190988 )  
( -0.00190269 -0.000432596 0.00225034 )  
( -0.000411844 -0.000986364 0.000851537 )  
( 0.000787 -0.000246281 0.000491007 )  
( -0.00036716 6.10563e-05 0.0011809 )  
( -0.000412092 9.07861e-05 -0.000169218 )  
( -0.000651545 -0.00135626 0.0005824 )  
( -0.000116603 -0.000593301 0.000177697 )  
( 3.7475e-05 -0.000218727 -0.000105106 )  
( -0.000592327 -0.00117026 0.00146187 )  
( -0.00027886 -0.00030918 -5.87627e-05 )  
( 4.52114e-05 -0.000143617 -5.57761e-05 )  
( -0.000436464 -0.00216906 3.20212e-05 )  
( -0.000272282 -0.000469177 0.000146948 )  
( 0.000128499 -0.000273783 0.000655374 )  
( 0.000419656 -0.000662932 0.00163449 )  
( -0.000987341 0.000952807 -6.27869e-05 )  
( 0.00060437 -0.000486015 0.0011526 )  
( 2.76737e-05 -7.50019e-05 0.00129798 )  
( 0.000120006 -0.000443228 0.000483573 )  
( 0.000152531 5.00269e-05 0.000785386 )  
( -0.000221051 0.000156031 0.000259653 )  
( -3.26725e-05 -0.000565682 0.000879345 )  
( -0.000828426 0.000816809 -0.00115699 )  
( -0.00125101 0.000303753 0.00217726 )  
( 0.000146633 -0.000143166 1.68558e-05 )  
( 0.00140822 -0.000173509 0.00108181 )  
( 0.000738418 -0.000564139 0.000547245 )  
( -1.7634e-05 0.000456354 0.00133034 )  
( -0.000266048 -0.00032515 0.000850566 )  
( -2.34901e-05 -2.97713e-05 -6.16542e-05 )  
( -0.000435381 -0.00100297 0.00272914 )  
( -0.000396354 -0.000175242 0.000311929 )  
( 0.000334864 0.000576939 0.00117538 )  
( -0.00156564 3.8602e-05 0.00316219 )  
( -0.00013524 1.45206e-05 4.83264e-05 )  
( -3.3143e-05 -0.00198136 0.00690243 )  
( -0.000286032 -0.000642326 0.000245745 )  
( -0.00113889 -0.000240511 0.000704749 )  
( 0.000146388 -0.0004148 0.000472695 )  
( -0.000132586 -0.00205424 0.00704402 )  
( -9.5752e-05 -9.57454e-05 0.000334415 )  
( -0.00046686 -6.3077e-05 0.000873094 )  
( -0.000231976 -0.000334193 -3.06616e-05 )  
( 3.44202e-05 -0.000488622 0.00121252 )  
( -0.000651172 0.000687701 0.000583097 )  
( -0.000395879 -0.000242888 0.000190181 )  
( 0.000619953 -0.000199813 5.60184e-05 )  
( 0.00189369 -0.0004066 -5.29467e-06 )  
( -4.17067e-05 0.000134813 0.000883368 )  
( -0.000878235 -5.46213e-05 0.00400881 )  
( -0.000265123 0.000158222 0.00150881 )  
( 0.000426187 -0.000517197 0.00105328 )  
( 6.31345e-05 -0.000327952 0.000713704 )  
( -0.000128631 0.000417012 -0.000176055 )  
( 0.000376755 -0.00115383 -0.000315872 )  
( 0.000564559 -0.000489371 0.00127356 )  
( 6.58684e-05 -0.000270813 -0.000586901 )  
( -0.000800494 -0.000303763 -0.00141027 )  
( -0.00104167 -0.000253635 0.00184583 )  
( 0.00174876 0.000542849 0.000440097 )  
( -0.00029674 3.2122e-05 0.000825124 )  
( 6.20196e-05 -0.00106061 0.00143526 )  
( 0.000476119 0.000897997 0.00268965 )  
( 0.000328542 -0.000922939 0.00125258 )  
( 0.000789279 -4.86248e-05 0.00263251 )  
( -0.000471086 -0.000788393 -0.000223081 )  
( -0.000340357 -0.00107221 0.00222294 )  
( -0.000415184 -0.00103252 0.0016602 )  
( -0.000537006 0.000234592 0.00135705 )  
( -3.30787e-05 -8.39004e-06 0.000704243 )  
( -0.000581895 -0.000570865 0.000106777 )  
( -0.000436584 -0.000287348 0.000848708 )  
( -0.000974653 -0.000524151 -0.000132021 )  
( 0.000207352 -0.000514956 0.000809559 )  
( -8.99689e-05 -0.00075585 -0.000174775 )  
( 0.000292187 -0.000632459 -0.00439644 )  
( 0.00052496 -8.05382e-05 0.000853294 )  
( 0.00036212 -0.000777135 0.00191844 )  
( 2.37879e-05 -4.9542e-05 -0.000189836 )  
( -1.20781e-05 -3.64534e-05 0.00038672 )  
( -0.000689104 -7.19842e-05 0.000292219 )  
( -0.000159353 -0.000490019 -0.000626537 )  
( 0.000120429 -0.000582842 0.00118014 )  
( 0.000199995 -6.82789e-06 0.00116283 )  
( -0.00181152 2.1946e-05 0.00271174 )  
( 0.000282062 -0.000251081 0.000838742 )  
( 0.000125245 -0.000836075 0.000909792 )  
( -0.000151285 0.000852975 0.0022172 )  
( 0.000679633 -0.00062551 0.00204281 )  
( -0.000279884 -0.000319124 -0.000158205 )  
( 0.000223889 0.000207396 0.000213889 )  
( -0.000652622 -0.000680416 -0.000871204 )  
( 0.000365771 -0.000663855 0.00111502 )  
( -0.00177352 1.45049e-05 0.00210835 )  
( 0.000288331 0.000137042 3.47048e-07 )  
( -0.000892402 -0.00118447 -8.2671e-05 )  
( -0.000584613 -0.000626416 0.00176329 )  
( -7.24992e-05 -0.000179109 0.000258689 )  
( -8.74141e-05 -0.000309857 0.000727368 )  
( 0.0017599 0.000999191 0.000572445 )  
( 0.000810489 0.000244895 0.000252511 )  
( 7.28611e-05 -0.0001431 0.000630379 )  
( -0.00109348 -0.000963988 0.00205825 )  
( -0.000441358 -0.000297453 0.000112366 )  
( -6.7287e-05 -0.00132616 0.00161804 )  
( -0.000181714 6.12507e-05 0.00109834 )  
( -0.000526326 0.00170042 0.000376636 )  
( 0.0003298 0.000341473 0.000225942 )  
( 0.000188958 -0.000801576 -1.74631e-05 )  
( -0.000407854 0.000341212 0.000457893 )  
( -0.000266532 -0.000819723 0.000945399 )  
( -7.69575e-05 -0.000281294 0.00075454 )  
( 0.000140155 4.06215e-05 3.86107e-05 )  
( -0.000603947 -0.000837381 0.00174447 )  
( 0.000352377 0.000283954 -1.49288e-05 )  
( 5.85866e-06 -0.000109659 0.000483325 )  
( 0.000465022 -0.000129791 0.00182755 )  
( -0.000112233 -0.000215144 2.14104e-05 )  
( -7.55267e-05 -1.51209e-05 0.00027145 )  
( 0.000415605 6.46781e-05 0.000404719 )  
( 0.000655717 -0.000543001 -0.000733455 )  
( -0.000715348 -0.00112448 0.00017724 )  
( 0.000242636 -0.000290694 0.000615905 )  
( -9.33467e-05 -0.000520762 0.00129077 )  
( -0.000828842 -0.000671309 0.00114258 )  
( 0.0023259 0.000599256 0.00207159 )  
( -0.000528174 -5.2746e-05 0.000968597 )  
( 0.000205957 -0.0011769 0.00063759 )  
( -0.000783097 -0.000135341 0.000679329 )  
( -0.0023557 0.00228453 0.00781481 )  
( -0.000606701 -0.00034502 0.000558741 )  
( -1.87751e-05 -0.00066889 -0.000160547 )  
( 0.000441101 -5.59404e-05 5.26988e-05 )  
( 0.00082236 0.000116491 0.000658623 )  
( 0.000262813 -0.000212846 -0.000235191 )  
( -0.000144619 0.000228266 -0.000845137 )  
( 0.00120462 -0.000407534 9.32282e-05 )  
( 7.01183e-06 -0.000219392 0.000968863 )  
( 0.000327906 -0.000919925 -1.66413e-05 )  
( 0.000246398 0.000178917 0.00499713 )  
( -0.000158949 -0.000926532 0.00132638 )  
( -0.000231526 -0.000762714 0.00119043 )  
( 0.000289767 -1.19772e-05 0.000800759 )  
( 0.000123078 -0.000966645 -0.000337243 )  
( -0.000539198 0.000218234 0.000550474 )  
( -0.000319815 -2.24253e-05 0.000113592 )  
( -5.86952e-05 -0.000443104 0.000955951 )  
( 0.00127865 -0.00158818 0.00645517 )  
( 0.000323096 -0.000589567 0.000444986 )  
( -0.000301151 -0.000688199 0.00054065 )  
( 0.000328611 -0.000820119 0.000821454 )  
( 0.00105516 3.9071e-05 0.00364635 )  
( 4.42881e-05 -0.000152057 0.00114976 )  
( 0.00107431 -0.000132722 -7.39293e-05 )  
( -0.000127101 -0.000165036 0.000173956 )  
( 0.000609877 -0.000329203 0.000157 )  
( -0.00170528 3.77794e-05 0.00026369 )  
( -0.000262451 -9.05968e-05 -4.71859e-05 )  
( -0.00109846 0.000636233 0.00132706 )  
( 0.000648132 0.000131794 0.000785687 )  
( -7.85686e-05 -0.000356344 -0.000397962 )  
( 0.00137959 -0.00177312 0.0053093 )  
( -0.000621887 0.000142396 -0.000496873 )  
( -2.03882e-05 -0.000122789 0.000219674 )  
( -0.000116853 0.000279107 0.000792351 )  
( 0.000350991 -0.000341861 0.000451374 )  
( -0.000598419 -0.000801478 0.000702534 )  
( -9.22273e-05 -0.000105974 0.000925234 )  
( 0.000112251 -0.000929396 0.000547727 )  
( 7.69533e-05 0.000132268 -0.000123854 )  
( 7.20826e-05 4.7486e-05 -0.000545793 )  
( 0.00113277 7.74297e-05 0.00176015 )  
( -0.00049127 -0.00064344 -0.000529806 )  
( 0.00207567 0.00271685 -0.000311731 )  
( -0.00127444 -0.0019192 0.0028891 )  
( 0.000803123 -0.000494955 0.00157513 )  
( -0.000440482 0.000319154 0.0015518 )  
( -0.00105282 0.000504562 -0.000932575 )  
( 0.00124071 -0.000805706 0.000110177 )  
( -0.000556108 2.41816e-05 0.000269491 )  
( -0.000356032 -0.000469617 -0.000327859 )  
( 0.000186374 -0.000956785 0.000938074 )  
( -0.00116829 0.000708608 0.000355663 )  
( -0.000367845 -0.000393848 0.000269649 )  
( -0.000317671 -0.000194075 0.000347566 )  
( -0.000379847 -0.000157487 0.000342176 )  
( 0.000122628 -0.000103874 -0.000178524 )  
( -0.000677058 -0.000189629 0.00050109 )  
( -0.000455382 -0.00013647 -0.000110848 )  
( 0.000485328 0.000493244 0.0010958 )  
( 0.000236892 0.000217661 0.00113575 )  
( 0.000872746 -0.00010808 0.00112711 )  
( -4.41081e-05 -0.000268913 8.8919e-06 )  
( -0.00149583 -0.0012906 0.00129401 )  
( 0.000677577 -0.000190676 0.000623965 )  
( -1.26841e-05 -0.000308554 3.564e-05 )  
( -0.000134677 -0.000234755 0.00114067 )  
( 0.000262318 0.000565973 -0.000529019 )  
( 0.000280348 -0.00107593 0.00048752 )  
( -0.000801821 0.000168996 -0.00018404 )  
( -0.00024905 -0.000198797 0.00010725 )  
( 0.00387597 -0.00651535 0.010671 )  
( 0.00143607 -0.000399855 0.00355945 )  
( -0.000214224 -0.00119108 0.00109892 )  
( 0.00053868 -0.000378783 0.000389087 )  
( -9.27926e-05 5.11374e-05 -0.000132478 )  
( -0.000461652 0.000330224 8.28096e-05 )  
( -0.000750446 -0.000450984 -0.00069461 )  
( -0.000647236 -0.000904775 0.00042259 )  
( 4.98813e-05 -0.000613469 8.44305e-05 )  
( -0.000340863 -2.14449e-05 0.00020218 )  
( 0.00106041 -0.000716618 0.00186428 )  
( 0.00036632 7.04791e-05 0.00258693 )  
( 0.000553278 0.00252146 0.0072885 )  
( -0.000229809 -4.22511e-05 -6.65258e-05 )  
( -0.000701304 -0.00135626 0.00250425 )  
( 3.01056e-05 0.000508951 6.64709e-05 )  
( -8.35952e-05 -0.000573085 0.000535091 )  
( 0.000609385 0.00063886 -0.000123047 )  
( 0.000121575 0.000379557 0.00153224 )  
( -0.00127405 -0.000977624 0.000545471 )  
( 0.00020593 -4.31983e-05 7.50934e-05 )  
( -0.000678691 0.000562599 0.00127155 )  
( -0.000977272 0.000903908 6.95474e-06 )  
( -0.000132877 0.000102397 0.000689863 )  
( -0.00127781 -0.00056138 0.000943631 )  
( -2.7989e-05 0.000247275 0.000177439 )  
( -0.000714875 -0.000601538 0.0089067 )  
( -4.91946e-05 -9.69693e-05 0.000126919 )  
( -0.000811272 0.00110726 0.00439759 )  
( 2.86106e-06 0.000350759 0.000219535 )  
( -0.000717515 -0.000235847 0.000152182 )  
( 0.000153843 2.65747e-05 0.000232076 )  
( 0.000945808 -0.000996675 0.00432528 )  
( -3.17721e-06 9.42259e-05 -0.00013504 )  
( 1.02948e-05 0.000217531 0.00029025 )  
( -1.79062e-05 9.22161e-05 0.000336596 )  
( -0.00101882 -0.000848101 0.00105534 )  
( 0.000551871 1.95764e-05 0.000351414 )  
( 0.000356275 -0.000194327 0.00143106 )  
( -0.000314821 -6.01424e-05 -0.000106544 )  
( -3.83752e-05 -0.000258351 -6.35269e-05 )  