/*--------------------------------*- C++ -*----------------------------------*\
| =========                 |                                                 |
| \\      /  F ield         | OpenFOAM: The Open Source CFD Toolbox           |
|  \\    /   O peration     | Version:  2506                                  |
|   \\  /    A nd           | Website:  www.openfoam.com                      |
|    \\/     M anipulation  |                                                 |
\*---------------------------------------------------------------------------*/
FoamFile
{
    version     2.0;
    format      ascii;
    arch        "LSB;label=32;scalar=64";
    class       volScalarField;
    location    "0.02";
    object      Ksl;
}
// * * * * * * * * * * * * * * * * * * * * * * * * * * * * * * * * * * * * * //

dimensions      [1 -3 -1 0 0 0 0];

internalField   nonuniform List<scalar> 
1152
(
167191
209664
139243
137566
79797.8
101005
143471
737504
137855
109938
125033
65502.5
104634
91259.9
127806
90488.7
167464
364651
205426
1.60972e+07
329537
239564
173058
212104
220866
248235
703439
147657
326284
167832
255791
403592
367402
273553
238221
104563
132530
156867
1.26226e+06
173762
297708
217250
142172
363535
115844
456174
193810
375938
168573
2.17107e+06
277516
366259
224043
264618
199393
228255
918856
272168
276292
178186
344857
235981
254358
1.6578e+06
2.37151e+06
192022
181431
121081
194256
179440
275321
414434
330587
232301
313998
151836
178893
227082
155445
641464
118427
288101
334624
1.07465e+06
253533
229992
482216
199161
277842
212169
128101
182469
101394
176324
227527
1.64856e+06
85648.9
76439.7
70380.7
64575.2
48008.9
66407.5
103954
96540
53611.6
66604.3
111737
74813.1
39408.4
73134.7
130020
100169
0
0
0
0
0
0
0
0
0
0
0
0
0
0
0
0
0
0
0
0
0
0
0
0
0
0
0
0
0
0
0
0
0
0
0
0
0
0
0
0
0
0
0
0
0
0
0
0
0
0
0
0
0
0
0
0
0
0
0
0
0
0
0
0
0
0
0
0
0
0
0
0
0
0
0
0
0
0
0
0
0
0
0
0
0
0
0
0
0
0
0
0
0
0
0
0
0
0
0
0
0
0
0
0
0
0
0
0
0
0
0
0
0
0
0
0
0
0
0
0
0
0
0
0
0
0
0
0
0
0
0
0
0
0
0
0
0
0
0
0
0
0
0
0
0
0
0
0
0
0
0
0
0
0
0
0
0
0
0
0
0
0
0
0
0
0
0
0
0
0
0
0
0
0
0
0
0
0
0
0
0
0
0
0
0
0
0
0
0
0
0
0
0
0
0
0
0
0
0
0
0
0
0
0
0
0
0
0
0
0
0
0
0
0
0
0
0
0
0
0
0
0
0
0
0
0
0
0
0
0
0
0
0
0
0
0
0
0
0
0
0
0
0
0
0
0
0
0
0
0
0
0
0
0
0
0
0
0
0
0
0
0
0
0
0
0
0
0
0
0
0
0
76308.9
197899
66086.5
132283
151512
121891
123707
108000
99970
96064.2
108670
113730
107214
144597
89631.9
111378
122536
193450
218124
734197
165881
611513
308050
491440
379106
132253
202270
225013
159401
259741
188242
276257
556484
186038
219311
111302
249387
199400
426914
128106
195705
371996
158561
329023
200789
159391
217369
257789
331021
312086
404632
163580
153753
150385
300177
269853
220849
165609
172237
294956
174562
388378
252536
164337
103217
236548
153917
209837
1.35856e+06
306346
290935
386861
377206
234263
138124
178920
195088
117117
380879
228873
3.5017e+06
298518
354338
570502
135408
195268
268591
110917
222350
197396
139285
6.48453e+06
164092
393099
307762
98452.1
35796.9
78889.7
46507.3
43968.3
60466.9
62563.4
42155.3
118926
73878.7
62082
42211.6
52018
55993.1
29222.2
59474.3
19392.9
0
0
0
0
0
0
0
0
0
0
0
0
0
0
0
0
0
0
0
0
0
0
0
0
0
0
0
0
0
0
0
0
0
0
0
0
0
0
0
0
0
0
0
0
0
0
0
0
0
0
0
0
0
0
0
0
0
0
0
0
0
0
0
0
0
0
0
0
0
0
0
0
0
0
0
0
0
0
0
0
0
0
0
0
0
0
0
0
0
0
0
0
0
0
0
0
0
0
0
0
0
0
0
0
0
0
0
0
0
0
0
0
0
0
0
0
0
0
0
0
0
0
0
0
0
0
0
0
0
0
0
0
0
0
0
0
0
0
0
0
0
0
0
0
0
0
0
0
0
0
0
0
0
0
0
0
0
0
0
0
0
0
0
0
0
0
0
0
0
0
0
0
0
0
0
0
0
0
0
0
0
0
0
0
0
0
0
0
0
0
0
0
0
0
0
0
0
0
0
0
0
0
0
0
0
0
0
0
0
0
0
0
0
0
0
0
0
0
0
0
0
0
0
0
0
0
0
0
0
0
0
0
0
0
0
0
0
0
0
0
0
0
0
0
0
0
0
0
0
0
0
0
0
0
0
0
0
0
0
0
0
0
0
0
0
0
0
0
0
0
0
0
119912
70382.8
159452
101393
201200
99507.1
126848
104166
106203
87393.9
138362
98281.4
131589
209460
68663.5
149916
385885
274021
1.10278e+06
552177
155354
300639
203690
208742
121633
311716
256639
129012
201287
173149
273100
217994
164039
93707.3
241023
131278
901468
165178
208758
730427
125709
398738
199214
1.05253e+06
342417
143628
222836
279431
177505
152226
269981
229906
329285
199459
197777
398169
171225
165344
2.2379e+06
125997
158732
288953
180342
296110
151907
269793
334749
155548
215343
271587
180289
291817
271562
143879
281895
155924
184017
267221
172492
333134
201623
85714.8
330932
170117
209394
157305
192822
360171
205883
140147
266122
139201
213301
263216
357117
539486
34319
14963.6
42013.9
21662.2
38589.6
89857.4
46864.6
101267
41985.9
51706.2
55221.9
50765.5
66701.8
75005.3
41828.6
39798.7
0
0
0
0
0
0
0
0
0
0
0
0
0
0
0
0
0
0
0
0
0
0
0
0
0
0
0
0
0
0
0
0
0
0
0
0
0
0
0
0
0
0
0
0
0
0
0
0
0
0
0
0
0
0
0
0
0
0
0
0
0
0
0
0
0
0
0
0
0
0
0
0
0
0
0
0
0
0
0
0
0
0
0
0
0
0
0
0
0
0
0
0
0
0
0
0
0
0
0
0
0
0
0
0
0
0
0
0
0
0
0
0
0
0
0
0
0
0
0
0
0
0
0
0
0
0
0
0
0
0
0
0
0
0
0
0
0
0
0
0
0
0
0
0
0
0
0
0
0
0
0
0
0
0
0
0
0
0
0
0
0
0
0
0
0
0
0
0
0
0
0
0
0
0
0
0
0
0
0
0
0
0
0
0
0
0
0
0
0
0
0
0
0
0
0
0
0
0
0
0
0
0
0
0
0
0
0
0
0
0
0
0
0
0
0
0
0
0
0
0
0
0
0
0
0
0
0
0
0
0
0
0
0
0
0
0
0
0
0
0
0
0
0
0
0
0
0
0
0
0
0
0
0
0
0
0
0
0
0
0
0
0
0
0
0
0
0
0
0
0
0
0
)
;

boundaryField
{
    inlet
    {
        type            zeroGradient;
    }
    outlet
    {
        type            zeroGradient;
    }
    wall
    {
        type            zeroGradient;
    }
    procBoundary2to0
    {
        type            processor;
        value           nonuniform List<scalar> 
192
(
130511
58554
105867
115130
188528
381473
192262
243910
335883
138988
467845
1.83078e+06
555953
133045
205282
102104
117346
516163
395166
1.1117e+07
312277
178083
183185
136646
28336.2
91875.6
225873
82826.8
0
0
0
0
0
0
0
0
0
0
0
0
0
0
0
0
0
0
0
0
0
0
0
0
0
0
0
0
0
0
0
0
0
0
0
0
0
0
0
0
0
0
0
0
0
0
0
0
0
0
0
0
0
0
0
0
0
0
0
0
0
0
0
0
0
0
0
0
170828
198952
89979.6
91792.9
252566
182841
193926
222473
299099
581786
482182
165289
224195
616964
306002
206012
264559
217847
187122
358457
170946
297421
180011
134553
73358.7
52959.2
20623.8
50551.5
0
0
0
0
0
0
0
0
0
0
0
0
0
0
0
0
0
0
0
0
0
0
0
0
0
0
0
0
0
0
0
0
0
0
0
0
0
0
0
0
0
0
0
0
0
0
0
0
0
0
0
0
0
0
0
0
0
0
0
0
0
0
0
0
0
0
0
0
)
;
    }
    procBoundary2to3
    {
        type            processor;
        value           nonuniform List<scalar> 
192
(
59933.4
51452.9
275366
174843
103051
287570
3.49268e+06
147346
245437
1.28136e+06
192962
224233
512290
192113
272540
162203
9.36673e+06
228409
245176
228837
147011
114848
657950
109359
140432
96527.6
79613.5
679953
0
0
0
0
0
0
0
0
0
0
0
0
0
0
0
0
0
0
0
0
0
0
0
0
0
0
0
0
0
0
0
0
0
0
0
0
0
0
0
0
0
0
0
0
0
0
0
0
0
0
0
0
0
0
0
0
0
0
0
0
0
0
0
0
0
0
0
0
76117.5
191138
84719.4
779749
180287
165840
223907
121217
441428
900120
252041
367992
407546
248934
152508
225413
228098
138236
4.33562e+06
312931
95848.5
1.80462e+06
131569
199114
248361
36583.1
41012.4
39707.7
0
0
0
0
0
0
0
0
0
0
0
0
0
0
0
0
0
0
0
0
0
0
0
0
0
0
0
0
0
0
0
0
0
0
0
0
0
0
0
0
0
0
0
0
0
0
0
0
0
0
0
0
0
0
0
0
0
0
0
0
0
0
0
0
0
0
0
0
)
;
    }
}


// ************************************************************************* //
