/*--------------------------------*- C++ -*----------------------------------*\
| =========                 |                                                 |
| \\      /  F ield         | OpenFOAM: The Open Source CFD Toolbox           |
|  \\    /   O peration     | Version:  2506                                  |
|   \\  /    A nd           | Website:  www.openfoam.com                      |
|    \\/     M anipulation  |                                                 |
\*---------------------------------------------------------------------------*/
FoamFile
{
    version     2.0;
    format      ascii;
    arch        "LSB;label=32;scalar=64";
    class       volScalarField;
    location    "0.02";
    object      p;
}
// * * * * * * * * * * * * * * * * * * * * * * * * * * * * * * * * * * * * * //

dimensions      [0 2 -2 0 0 0 0];

internalField   nonuniform List<scalar> 
1152
(
8.59487
8.64937
8.63162
8.61167
8.54156
8.58178
8.61872
8.62055
8.53943
8.57321
8.60938
8.54508
8.49583
8.5267
8.57261
8.57661
7.5253
7.51236
7.51979
7.26211
7.53515
7.50961
7.55601
7.46874
7.56749
7.56542
7.51089
7.69654
7.48525
7.60843
7.59182
7.71083
5.95333
5.97974
5.96659
5.91832
5.98848
6.00916
5.9996
5.94936
6.09337
6.03497
5.97476
6.01436
6.05538
6.07832
5.9945
6.00526
4.35713
4.31299
4.30373
4.37859
4.47684
4.46024
4.37723
4.438
4.3798
4.42879
4.48448
4.32336
4.44698
4.30539
4.3162
4.42447
2.62973
2.76734
2.87758
2.9096
2.78356
2.80418
2.91836
2.85301
2.66771
2.72484
2.71981
2.8343
2.59986
2.69556
2.77557
2.80511
1.30401
1.35985
1.42817
1.49154
1.27733
1.37144
1.42175
1.44395
1.25751
1.35562
1.47251
1.46692
1.31899
1.37494
1.49868
1.31761
1.00781
1.01037
1.01266
1.01161
1.01088
1.01344
1.00775
1.00704
1.01031
1.0111
1.01062
1.0117
1.01385
1.01086
1.00592
1.00691
1.00471
1.00485
1.00498
1.00465
1.00462
1.00471
1.00461
1.00457
1.00456
1.00454
1.00456
1.00463
1.00461
1.00447
1.00443
1.00445
1.00733
1.00744
1.00753
1.00769
1.00741
1.00751
1.00736
1.00748
1.00753
1.00755
1.00756
1.00762
1.00763
1.00744
1.00725
1.00738
1.00614
1.00615
1.00616
1.0062
1.00611
1.00614
1.0061
1.00613
1.00612
1.00614
1.00614
1.00619
1.00612
1.00611
1.0061
1.00618
1.00595
1.00597
1.00598
1.00602
1.00594
1.00596
1.00596
1.006
1.00595
1.00596
1.00598
1.00602
1.00596
1.00596
1.00597
1.00602
1.00552
1.00553
1.00555
1.00558
1.00551
1.00553
1.00554
1.00557
1.00552
1.00553
1.00555
1.00558
1.00552
1.00553
1.00555
1.00558
1.0051
1.00511
1.00513
1.00515
1.0051
1.00511
1.00513
1.00515
1.0051
1.00511
1.00513
1.00515
1.0051
1.00511
1.00513
1.00515
1.00468
1.00469
1.0047
1.00472
1.00467
1.00468
1.0047
1.00472
1.00467
1.00468
1.0047
1.00472
1.00468
1.00469
1.0047
1.00472
1.00424
1.00425
1.00426
1.00427
1.00424
1.00425
1.00426
1.00427
1.00424
1.00425
1.00426
1.00427
1.00424
1.00425
1.00426
1.00427
1.0038
1.00381
1.00382
1.00383
1.0038
1.00381
1.00382
1.00383
1.0038
1.00381
1.00382
1.00383
1.0038
1.00381
1.00382
1.00383
1.00336
1.00337
1.00337
1.00338
1.00336
1.00337
1.00337
1.00338
1.00336
1.00337
1.00337
1.00338
1.00336
1.00337
1.00337
1.00338
1.00292
1.00292
1.00293
1.00293
1.00292
1.00292
1.00293
1.00293
1.00292
1.00292
1.00293
1.00293
1.00292
1.00292
1.00293
1.00293
1.00247
1.00247
1.00248
1.00248
1.00247
1.00247
1.00248
1.00248
1.00247
1.00247
1.00248
1.00248
1.00247
1.00248
1.00248
1.00248
1.00202
1.00203
1.00203
1.00203
1.00202
1.00203
1.00203
1.00203
1.00202
1.00203
1.00203
1.00203
1.00202
1.00203
1.00203
1.00203
1.00158
1.00158
1.00158
1.00158
1.00158
1.00158
1.00158
1.00158
1.00158
1.00158
1.00158
1.00158
1.00158
1.00158
1.00158
1.00158
1.00113
1.00113
1.00113
1.00113
1.00113
1.00113
1.00113
1.00113
1.00113
1.00113
1.00113
1.00113
1.00113
1.00113
1.00113
1.00113
1.00068
1.00068
1.00068
1.00068
1.00068
1.00068
1.00068
1.00068
1.00068
1.00068
1.00068
1.00068
1.00068
1.00068
1.00068
1.00068
1.00023
1.00023
1.00023
1.00023
1.00023
1.00023
1.00023
1.00023
1.00023
1.00023
1.00023
1.00023
1.00023
1.00023
1.00023
1.00023
8.45266
8.53764
8.52063
8.57842
8.45837
8.52931
8.55041
8.5722
8.44428
8.44941
8.49008
8.53855
8.40945
8.47816
8.45653
8.54036
7.53679
7.52191
7.68909
7.31435
7.4876
7.49244
7.62785
7.37952
7.45611
7.48304
7.48672
7.57364
7.43715
7.40344
7.54245
7.56015
6.09894
5.99608
6.00456
5.90419
5.90636
5.81246
5.90378
5.90717
5.88144
5.92289
5.88604
5.89957
5.90405
5.9263
5.95514
5.76489
4.19413
4.35385
4.30643
4.52275
4.35262
4.34691
4.31008
4.51774
4.39439
4.28932
4.27723
4.2049
4.36152
4.21148
4.36312
4.18734
2.71821
2.76267
2.77745
2.87542
2.76501
2.88191
2.73813
2.58818
2.85455
2.8325
2.72906
2.63929
2.85191
2.79374
2.75878
2.47848
1.33143
1.31425
1.28926
1.25577
1.29303
1.28797
1.21856
1.316
1.30661
1.30113
1.30859
1.13245
1.3501
1.25442
1.21236
1.15496
1.01086
1.0058
1.0097
1.01012
1.01462
1.00855
1.00923
1.00899
1.01249
1.01156
1.01196
1.01396
1.01068
1.0121
1.00799
1.01364
1.00447
1.00443
1.00463
1.00468
1.00439
1.00448
1.00472
1.00504
1.00428
1.00459
1.00481
1.00535
1.00421
1.00478
1.0047
1.00567
1.00771
1.00741
1.00748
1.00762
1.00777
1.00747
1.00754
1.00767
1.00774
1.0076
1.00761
1.0078
1.00772
1.00771
1.00745
1.00798
1.00611
1.00611
1.00617
1.00626
1.00611
1.00613
1.00619
1.0063
1.00611
1.00617
1.00622
1.00637
1.00607
1.00617
1.00617
1.0064
1.00599
1.00597
1.00599
1.00605
1.00599
1.00598
1.006
1.00607
1.00599
1.006
1.00601
1.00609
1.006
1.00602
1.00601
1.00612
1.00552
1.00554
1.00556
1.0056
1.00552
1.00554
1.00556
1.00561
1.00552
1.00554
1.00556
1.00562
1.00551
1.00555
1.00556
1.00562
1.0051
1.00512
1.00513
1.00516
1.0051
1.00512
1.00513
1.00517
1.0051
1.00512
1.00513
1.00517
1.0051
1.00512
1.00513
1.00517
1.00468
1.00469
1.0047
1.00472
1.00467
1.00469
1.0047
1.00472
1.00467
1.00469
1.0047
1.00472
1.00467
1.00469
1.0047
1.00472
1.00424
1.00425
1.00426
1.00428
1.00424
1.00425
1.00426
1.00428
1.00424
1.00425
1.00426
1.00428
1.00424
1.00425
1.00426
1.00428
1.0038
1.00381
1.00382
1.00383
1.0038
1.00381
1.00382
1.00383
1.0038
1.00381
1.00382
1.00383
1.0038
1.00381
1.00382
1.00383
1.00336
1.00337
1.00337
1.00338
1.00336
1.00337
1.00337
1.00338
1.00336
1.00337
1.00337
1.00338
1.00336
1.00337
1.00337
1.00338
1.00292
1.00292
1.00293
1.00293
1.00292
1.00292
1.00293
1.00293
1.00292
1.00292
1.00293
1.00293
1.00292
1.00292
1.00293
1.00293
1.00247
1.00247
1.00248
1.00248
1.00247
1.00247
1.00248
1.00248
1.00247
1.00247
1.00248
1.00248
1.00247
1.00247
1.00248
1.00248
1.00202
1.00203
1.00203
1.00203
1.00202
1.00203
1.00203
1.00203
1.00202
1.00203
1.00203
1.00203
1.00202
1.00203
1.00203
1.00203
1.00158
1.00158
1.00158
1.00158
1.00158
1.00158
1.00158
1.00158
1.00158
1.00158
1.00158
1.00158
1.00158
1.00158
1.00158
1.00158
1.00113
1.00113
1.00113
1.00113
1.00113
1.00113
1.00113
1.00113
1.00113
1.00113
1.00113
1.00113
1.00113
1.00113
1.00113
1.00113
1.00068
1.00068
1.00068
1.00068
1.00068
1.00068
1.00068
1.00068
1.00068
1.00068
1.00068
1.00068
1.00068
1.00068
1.00068
1.00068
1.00023
1.00023
1.00023
1.00023
1.00023
1.00023
1.00023
1.00023
1.00023
1.00023
1.00023
1.00023
1.00023
1.00023
1.00023
1.00023
8.5358
8.48138
8.61436
8.58163
8.47494
8.48014
8.53115
8.5286
8.33357
8.41063
8.47189
8.4717
8.42816
8.45302
8.43919
8.47125
7.30673
7.24197
7.39477
7.45916
7.40964
7.39322
7.45261
7.60969
7.34515
7.49207
7.51364
7.58999
7.39368
7.35781
7.52838
7.5289
5.70982
5.76814
5.78629
5.8601
6.02203
5.83697
5.87672
6.00212
5.97652
5.86378
5.97516
5.96852
5.86782
5.91775
5.91804
6.01312
4.28519
4.46631
4.38327
4.36593
4.2036
4.36895
4.31808
4.29225
4.48332
4.30146
4.33422
4.25918
4.36991
4.43199
4.36307
4.3403
2.68275
2.53903
2.67921
2.65551
2.6417
2.6944
2.73624
2.73051
2.87548
2.79231
2.73804
2.75505
2.94602
2.89337
2.86902
2.78154
1.22694
1.17137
1.14059
1.19006
1.23406
1.30423
1.28968
1.30365
1.28017
1.35972
1.30179
1.32657
1.38286
1.32875
1.23904
1.20421
1.01303
1.01361
1.00838
1.00949
1.00795
1.00817
1.00816
1.01029
1.0123
1.01633
1.01018
1.01233
1.01333
1.00835
1.01222
1.01026
1.00505
1.00561
1.0048
1.00498
1.00422
1.00404
1.0039
1.0041
1.00401
1.00413
1.00379
1.0044
1.00389
1.0039
1.00435
1.0044
1.00753
1.00759
1.00727
1.00734
1.00698
1.00708
1.00723
1.0073
1.00764
1.00774
1.00761
1.00757
1.00773
1.0076
1.00762
1.00758
1.00625
1.0063
1.00617
1.00616
1.0059
1.00596
1.00602
1.00605
1.00605
1.00611
1.00609
1.0061
1.00601
1.00603
1.00604
1.00604
1.00596
1.00596
1.00593
1.00594
1.00586
1.00587
1.0059
1.00592
1.00595
1.00594
1.00594
1.00594
1.00596
1.00595
1.00596
1.00596
1.0055
1.00551
1.0055
1.00551
1.00546
1.00548
1.00549
1.0055
1.00549
1.0055
1.0055
1.0055
1.00549
1.0055
1.0055
1.0055
1.00508
1.00508
1.00509
1.00509
1.00507
1.00507
1.00508
1.00509
1.00508
1.00508
1.00509
1.00509
1.00509
1.00509
1.00509
1.00509
1.00466
1.00466
1.00466
1.00467
1.00465
1.00466
1.00466
1.00467
1.00466
1.00466
1.00466
1.00467
1.00466
1.00466
1.00467
1.00467
1.00423
1.00423
1.00423
1.00424
1.00422
1.00423
1.00423
1.00424
1.00423
1.00423
1.00423
1.00424
1.00423
1.00423
1.00424
1.00424
1.00379
1.00379
1.00379
1.0038
1.00379
1.00379
1.00379
1.0038
1.00379
1.00379
1.0038
1.0038
1.0038
1.0038
1.0038
1.0038
1.00335
1.00335
1.00335
1.00336
1.00335
1.00335
1.00336
1.00336
1.00335
1.00335
1.00336
1.00336
1.00336
1.00336
1.00336
1.00336
1.00291
1.00291
1.00291
1.00291
1.00291
1.00291
1.00291
1.00291
1.00291
1.00291
1.00291
1.00292
1.00291
1.00291
1.00291
1.00292
1.00247
1.00247
1.00247
1.00247
1.00247
1.00247
1.00247
1.00247
1.00247
1.00247
1.00247
1.00247
1.00247
1.00247
1.00247
1.00247
1.00202
1.00202
1.00202
1.00202
1.00202
1.00202
1.00202
1.00202
1.00202
1.00202
1.00202
1.00202
1.00202
1.00202
1.00202
1.00202
1.00157
1.00157
1.00157
1.00157
1.00157
1.00157
1.00157
1.00157
1.00157
1.00157
1.00157
1.00157
1.00157
1.00157
1.00157
1.00157
1.00112
1.00112
1.00112
1.00112
1.00112
1.00112
1.00112
1.00112
1.00112
1.00112
1.00112
1.00113
1.00112
1.00112
1.00113
1.00113
1.00067
1.00067
1.00067
1.00068
1.00067
1.00067
1.00067
1.00068
1.00067
1.00067
1.00067
1.00068
1.00068
1.00068
1.00068
1.00068
1.00022
1.00022
1.00022
1.00023
1.00022
1.00022
1.00022
1.00023
1.00022
1.00022
1.00023
1.00023
1.00023
1.00023
1.00023
1.00023
)
;

boundaryField
{
    inlet
    {
        type            zeroGradient;
    }
    outlet
    {
        type            fixedValue;
        value           uniform 1;
    }
    wall
    {
        type            zeroGradient;
    }
    procBoundary2to0
    {
        type            processor;
        value           nonuniform List<scalar> 
192
(
8.59134
8.55664
8.58112
8.62016
7.60202
7.69547
7.66024
7.61615
6.03035
5.89402
5.91667
5.55371
4.10726
4.37504
4.27014
4.12793
2.62878
2.82693
2.89115
2.96017
1.2369
1.35643
1.48674
1.54388
1.01196
1.00805
1.00694
1.01746
1.00499
1.0048
1.00499
1.00498
1.00751
1.00741
1.0073
1.00768
1.00619
1.00616
1.00612
1.0062
1.00597
1.00597
1.00597
1.00601
1.00553
1.00554
1.00555
1.00558
1.00511
1.00512
1.00513
1.00515
1.00468
1.00469
1.0047
1.00472
1.00424
1.00425
1.00426
1.00428
1.00381
1.00381
1.00382
1.00383
1.00336
1.00337
1.00337
1.00338
1.00292
1.00292
1.00293
1.00293
1.00247
1.00248
1.00248
1.00248
1.00202
1.00203
1.00203
1.00203
1.00158
1.00158
1.00158
1.00158
1.00113
1.00113
1.00113
1.00113
1.00068
1.00068
1.00068
1.00068
1.00023
1.00023
1.00023
1.00023
8.6904
8.62144
8.58127
8.57637
7.49057
7.52599
7.64555
7.56677
5.77517
5.97152
5.98283
5.9291
4.16198
4.14317
4.13716
4.33398
2.61242
2.55104
2.5531
2.57805
1.28226
1.19694
1.14333
1.20504
1.00959
1.01142
1.01216
1.00805
1.00476
1.00471
1.00514
1.00516
1.00716
1.00731
1.00736
1.00737
1.00612
1.00619
1.00619
1.00616
1.00593
1.00594
1.00595
1.00595
1.0055
1.00551
1.00551
1.00552
1.00509
1.00509
1.00509
1.0051
1.00466
1.00466
1.00467
1.00467
1.00423
1.00423
1.00423
1.00424
1.00379
1.00379
1.0038
1.0038
1.00335
1.00335
1.00336
1.00336
1.00291
1.00291
1.00291
1.00292
1.00247
1.00247
1.00247
1.00247
1.00202
1.00202
1.00202
1.00202
1.00157
1.00157
1.00157
1.00157
1.00112
1.00112
1.00112
1.00112
1.00067
1.00067
1.00067
1.00068
1.00022
1.00022
1.00022
1.00023
)
;
    }
    procBoundary2to3
    {
        type            processor;
        value           nonuniform List<scalar> 
192
(
8.4856
8.52509
8.61954
8.57248
7.63116
7.83418
7.5008
7.54148
6.15436
5.93546
5.91878
5.98046
4.48211
4.29369
4.35465
4.34032
2.47835
2.68273
2.84642
2.71832
1.56735
1.47625
1.41134
1.49983
1.00534
1.00908
1.00991
0.994216
1.00412
1.00451
1.00467
1.00466
1.0075
1.00756
1.00749
1.00729
1.00615
1.00615
1.00618
1.00618
1.00603
1.00603
1.00605
1.00604
1.0056
1.0056
1.00561
1.00561
1.00517
1.00517
1.00518
1.00518
1.00473
1.00473
1.00474
1.00474
1.00429
1.00429
1.00429
1.00429
1.00384
1.00384
1.00384
1.00384
1.00339
1.00339
1.00339
1.00339
1.00294
1.00294
1.00294
1.00294
1.00249
1.00249
1.00249
1.00249
1.00204
1.00204
1.00203
1.00203
1.00158
1.00158
1.00158
1.00158
1.00113
1.00113
1.00113
1.00113
1.00068
1.00068
1.00068
1.00068
1.00023
1.00023
1.00023
1.00023
8.53296
8.56236
8.49735
8.54339
7.60834
7.52873
7.57921
7.45948
6.04657
6.02645
5.91319
6.19509
4.24832
4.1281
4.26748
4.30004
2.59811
2.68854
2.66851
2.61992
1.4727
1.25151
1.20307
1.16151
1.00855
1.01643
1.01066
1.00992
1.00463
1.00518
1.00514
1.00521
1.00768
1.008
1.00784
1.0078
1.00632
1.00642
1.00641
1.00639
1.00609
1.00612
1.00613
1.00614
1.00563
1.00564
1.00565
1.00565
1.00518
1.00519
1.00519
1.00519
1.00474
1.00474
1.00474
1.00474
1.00429
1.00429
1.00429
1.00429
1.00384
1.00384
1.00384
1.00384
1.00339
1.00339
1.00339
1.00339
1.00294
1.00294
1.00294
1.00294
1.00249
1.00249
1.00249
1.00249
1.00203
1.00203
1.00203
1.00203
1.00158
1.00158
1.00158
1.00158
1.00113
1.00113
1.00113
1.00113
1.00068
1.00068
1.00068
1.00068
1.00023
1.00023
1.00023
1.00023
)
;
    }
}


// ************************************************************************* //
