/*--------------------------------*- C++ -*----------------------------------*\
| =========                 |                                                 |
| \\      /  F ield         | OpenFOAM: The Open Source CFD Toolbox           |
|  \\    /   O peration     | Version:  2506                                  |
|   \\  /    A nd           | Website:  www.openfoam.com                      |
|    \\/     M anipulation  |                                                 |
\*---------------------------------------------------------------------------*/
FoamFile
{
    version     2.0;
    format      ascii;
    arch        "LSB;label=32;scalar=64";
    class       surfaceScalarField;
    location    "0.02";
    object      phi;
}
// * * * * * * * * * * * * * * * * * * * * * * * * * * * * * * * * * * * * * //

dimensions      [0 3 -1 0 0 0 0];

oriented        oriented;

internalField   nonuniform List<scalar> 
3120
(
-1.02565e-09
2.25381e-09
1.50219e-08
3.99602e-10
4.31945e-10
1.92374e-09
7.85854e-09
5.88164e-10
3.77279e-10
1.43113e-08
-2.09273e-10
9.6859e-09
-2.1365e-09
2.07949e-10
2.03892e-08
5.70405e-10
-1.3341e-09
4.13071e-10
1.7537e-08
-3.38989e-11
3.48143e-10
1.55713e-08
3.3964e-09
7.17278e-09
-1.16346e-09
1.6983e-09
1.31829e-08
3.26852e-09
-1.27582e-09
2.03325e-09
1.52971e-08
3.43312e-09
1.09764e-09
1.13583e-08
-1.92199e-09
2.92864e-08
-1.45651e-09
1.59541e-08
3.24633e-09
6.72516e-10
-2.02745e-09
1.99224e-08
-4.96036e-10
-2.74424e-10
1.30795e-08
3.06623e-09
1.46169e-08
-1.33425e-10
2.93405e-10
-1.35375e-10
1.58406e-08
8.85611e-10
-4.28787e-11
-1.46045e-11
9.82395e-09
2.69736e-09
-6.6343e-10
1.50249e-08
-1.12551e-09
2.62995e-08
4.91226e-10
-3.8569e-10
2.12915e-08
-1.14319e-09
-7.94905e-10
-8.79831e-10
1.96883e-08
1.65346e-09
6.84427e-10
1.1775e-08
-5.43925e-09
1.87503e-08
1.22663e-10
1.32627e-09
1.2355e-08
-1.00667e-09
5.17549e-10
-7.31167e-10
1.47536e-08
-3.16718e-09
-7.17945e-10
1.64453e-08
-2.26515e-10
1.88351e-08
-2.15475e-09
2.24566e-08
-1.85738e-09
-1.16417e-09
3.16557e-10
1.45995e-08
2.12048e-09
-1.34626e-09
1.56112e-08
-1.58684e-09
7.68105e-09
2.35827e-09
-1.95299e-10
-7.60278e-10
1.55434e-08
2.01853e-09
2.56255e-10
-4.79327e-10
8.05171e-09
1.32495e-09
-1.54506e-10
1.36678e-08
-1.44754e-09
2.77141e-08
-6.64976e-10
-2.41778e-09
2.37896e-08
-1.75699e-10
1.13145e-10
-5.00722e-10
1.89316e-08
5.17954e-10
3.34415e-10
1.08813e-08
-9.03504e-10
1.87277e-08
8.64153e-10
1.02422e-09
7.25632e-09
7.92531e-10
1.50091e-09
-5.10245e-10
1.41263e-08
-6.92394e-10
-6.67252e-10
1.96403e-08
2.32873e-10
1.564e-08
-4.57214e-10
2.37814e-08
-9.98331e-10
1.15503e-09
1.25078e-09
1.09468e-08
1.43448e-09
-8.05361e-11
1.65152e-08
-2.3989e-10
4.67552e-09
2.85263e-09
6.29805e-10
-2.39997e-09
1.39696e-08
-2.2372e-10
-1.78536e-10
-7.09967e-10
1.09018e-08
-1.12318e-09
-1.05094e-09
1.51317e-08
-5.60678e-10
1.99541e-08
3.45449e-10
1.04044e-09
1.77863e-08
2.21754e-09
1.32128e-09
5.45963e-10
1.66999e-08
-1.12619e-09
-1.5016e-09
1.37794e-08
2.50499e-09
1.19222e-08
-3.78565e-10
-4.01763e-10
6.21395e-09
2.86314e-09
-7.23818e-10
1.73459e-09
1.3283e-08
2.85665e-09
2.32184e-09
1.22364e-08
-7.99752e-10
2.22707e-08
1.51045e-09
1.7516e-08
3.04517e-09
1.308e-09
-2.28591e-10
1.49602e-08
-5.3977e-10
-8.49558e-10
1.94318e-08
2.61351e-11
3.07006e-09
-1.26115e-09
-1.49255e-09
-1.33293e-09
1.77344e-08
-6.53156e-10
-2.44002e-09
-6.58778e-10
1.33411e-08
-7.30256e-10
-4.5471e-10
1.41919e-08
1.56289e-09
1.69581e-08
-3.69832e-10
1.57147e-09
1.44559e-08
7.95793e-10
-1.90991e-09
1.50117e-09
1.608e-08
6.87349e-10
2.49252e-09
8.23492e-09
7.28863e-10
1.1479e-08
-6.18026e-10
1.01717e-09
9.57377e-09
-2.18749e-09
4.76925e-11
5.08914e-10
1.36095e-08
-2.19237e-09
-8.99182e-10
1.78682e-08
9.00305e-10
2.01262e-08
-1.83999e-09
3.00056e-08
-6.09e-09
-3.54244e-09
-1.88557e-09
1.68406e-08
-1.32595e-09
-4.72591e-10
1.72139e-08
-9.42652e-11
2.92866e-09
-4.23266e-10
-1.19613e-09
5.99604e-10
1.31867e-08
3.62647e-09
-6.43484e-10
-5.85114e-11
1.29357e-08
-5.15195e-10
2.54151e-10
1.47992e-08
8.85555e-10
1.84985e-08
-1.25339e-09
1.12243e-10
1.65856e-08
-3.88961e-10
-3.60727e-10
3.33657e-10
1.47951e-08
-5.53926e-11
-1.20219e-09
9.38593e-09
-2.07213e-10
1.32472e-08
-1.4791e-09
-2.40087e-09
1.55671e-08
-2.00108e-09
-2.89751e-09
-4.65015e-10
1.58266e-08
4.55293e-10
-9.32235e-10
1.42454e-08
2.03444e-09
1.74497e-08
-2.355e-09
2.86225e-08
-1.82339e-09
3.16063e-09
-2.54755e-09
1.56235e-08
9.44757e-10
1.72952e-09
9.37579e-09
2.62884e-09
1.00019e-08
3.35715e-10
1.3906e-09
-1.03516e-09
1.46017e-08
-1.1933e-09
1.1145e-09
-7.75366e-10
1.3142e-08
7.95432e-10
-1.95037e-10
1.39037e-08
9.87129e-10
1.80613e-08
1.85593e-09
3.39621e-11
1.61707e-08
-2.51006e-09
6.67205e-10
1.81657e-10
1.50269e-08
1.15767e-11
-3.73927e-10
1.02205e-08
5.01366e-11
1.40786e-08
-1.30909e-10
-8.03191e-10
1.68113e-08
-2.7611e-10
4.26816e-10
-3.60297e-10
1.58109e-08
-4.89933e-10
-1.26321e-10
1.49145e-08
4.82115e-10
1.68031e-08
3.69804e-10
2.24554e-08
3.79096e-09
1.20308e-09
6.20384e-10
1.4599e-08
4.13672e-10
-5.20225e-10
9.37771e-09
1.01241e-09
1.14721e-08
-2.1339e-10
2.02304e-09
-3.61994e-10
1.71062e-08
-3.90232e-09
1.69291e-09
-7.27134e-10
1.35955e-08
1.87263e-09
1.23821e-11
1.37485e-08
-2.07048e-10
1.9394e-08
-3.05506e-11
-1.35168e-09
1.67314e-08
4.59635e-10
1.05034e-09
-8.99e-10
1.4118e-08
6.76904e-10
-1.05061e-09
1.1657e-08
-1.5163e-09
1.64226e-08
4.88891e-10
-1.60813e-09
1.65511e-08
2.78339e-11
6.85487e-10
-9.41865e-10
1.56573e-08
1.25597e-10
-1.2334e-09
1.56573e-08
-1.5307e-09
1.72469e-08
8.65889e-10
1.99254e-08
-1.63874e-10
2.19959e-10
6.37822e-10
1.46943e-08
-8.08959e-10
-7.95403e-10
1.14992e-08
-1.92153e-09
1.29521e-08
-1.68864e-09
5.98333e-10
-3.34043e-10
1.71779e-08
6.21097e-10
-4.1647e-10
-4.66012e-10
1.5864e-08
-2.65827e-09
-4.03313e-10
1.57506e-08
3.57024e-10
1.78769e-08
9.04773e-10
-1.46498e-09
1.68694e-08
8.83131e-11
1.18922e-10
-1.06746e-09
1.55056e-08
-2.66435e-09
-9.19918e-10
1.49572e-08
4.52652e-10
1.68279e-08
1.20723e-09
-1.52e-09
1.69989e-08
-1.5998e-09
5.83827e-11
-4.08933e-10
1.61479e-08
-1.09317e-09
-2.6453e-10
1.61537e-08
4.97401e-10
1.68929e-08
2.55674e-09
1.77974e-08
-1.12179e-09
-8.2669e-10
1.67149e-09
1.59601e-08
-7.89219e-10
1.46274e-10
1.51808e-08
-2.42079e-09
1.58019e-08
-2.05711e-09
4.26649e-10
1.20736e-10
1.71185e-08
-4.39287e-12
-4.15484e-11
2.67112e-11
1.66573e-08
-8.82264e-10
-1.03757e-10
1.66126e-08
7.72593e-11
1.74144e-08
5.44505e-10
-4.27004e-10
1.7003e-08
-1.3012e-10
7.13672e-11
-4.3587e-10
1.64415e-08
-9.30703e-10
-4.80663e-10
1.63364e-08
-4.46745e-11
1.70465e-08
5.30822e-10
-5.39393e-10
1.70869e-08
-5.06269e-10
2.62824e-11
-4.5953e-10
1.66763e-08
-4.96849e-10
-4.91093e-10
1.66875e-08
-3.59268e-10
1.70528e-08
6.28882e-10
1.724e-08
-5.0421e-10
-1.06437e-10
2.91203e-10
1.6629e-08
-7.90518e-10
-1.53194e-10
1.64592e-08
-1.32489e-09
1.67216e-08
-1.36921e-09
1.86086e-10
2.72043e-11
1.7132e-08
1.92713e-11
1.95604e-11
9.66552e-12
1.69864e-08
-3.04948e-10
-5.38273e-11
1.69747e-08
-3.13364e-11
1.72443e-08
2.63947e-10
-2.44548e-10
1.70908e-08
-7.98671e-11
3.90604e-11
-2.23489e-10
1.68998e-08
-3.41043e-10
-2.24421e-10
1.68873e-08
-1.05868e-10
1.714e-08
2.83991e-10
-3.52547e-10
1.71515e-08
-2.40465e-10
4.97358e-11
-3.10598e-10
1.69978e-08
-2.04923e-10
-2.87912e-10
1.70058e-08
-2.38903e-10
1.7163e-08
3.43163e-10
1.71888e-08
-4.51596e-10
-1.92756e-10
1.44187e-10
1.7014e-08
-4.96498e-10
-5.93164e-11
1.69791e-08
-6.04169e-10
1.71029e-08
-6.43822e-10
1.07735e-10
9.73104e-12
1.71599e-08
-3.49379e-11
5.31654e-11
-1.0425e-11
1.71151e-08
-5.22609e-11
-4.83002e-11
1.71109e-08
-5.4813e-11
1.72035e-08
1.1947e-10
-1.04224e-10
1.71453e-08
-5.9856e-11
3.94809e-11
-1.19226e-10
1.70887e-08
-8.17778e-11
-1.3058e-10
1.7091e-08
-1.05909e-10
1.71827e-08
1.08356e-10
-1.51001e-10
1.71699e-08
-7.98003e-11
3.42504e-11
-1.74443e-10
1.71272e-08
-4.39876e-11
-1.8013e-10
1.71337e-08
-1.67498e-10
1.72017e-08
9.01029e-11
1.7172e-08
-1.92494e-10
-3.16977e-11
4.19078e-11
1.71441e-08
-2.56186e-10
-8.07941e-12
1.71473e-08
-2.98213e-10
1.7202e-08
-3.34375e-10
7.40362e-11
-4.78885e-12
1.71839e-08
-4.46024e-11
5.90619e-11
-2.09975e-11
1.717e-08
2.47268e-11
-4.08568e-11
1.71666e-08
-5.29012e-11
1.71934e-08
6.94176e-11
-6.05706e-11
1.71784e-08
-4.66811e-11
4.54672e-11
-7.25358e-11
1.71642e-08
1.12491e-11
-8.10771e-11
1.71654e-08
-7.81265e-11
1.71953e-08
5.95912e-11
-9.1713e-11
1.7185e-08
-4.34699e-11
3.94557e-11
-1.05012e-10
1.71799e-08
1.71263e-11
-1.09775e-10
1.71847e-08
-1.08736e-10
1.72088e-08
4.80904e-11
1.71748e-08
-1.16019e-10
-2.65017e-11
3.80622e-11
1.7189e-08
-1.39845e-10
2.79525e-11
1.7198e-08
-1.50332e-10
1.72198e-08
-1.71483e-10
5.55975e-11
-9.18799e-12
1.71958e-08
-4.01641e-11
5.45523e-11
-2.07894e-11
1.71917e-08
4.67494e-11
-3.21711e-11
1.7188e-08
-4.03554e-11
1.71928e-08
4.86242e-11
-3.53799e-11
1.7193e-08
-3.69441e-11
4.5162e-11
-4.4597e-11
1.71915e-08
3.88232e-11
-5.12751e-11
1.71909e-08
-5.30638e-11
1.71979e-08
4.05225e-11
-5.29746e-11
1.71912e-08
-2.91121e-11
3.95153e-11
-6.15585e-11
1.71979e-08
3.84967e-11
-6.60155e-11
1.72005e-08
-6.75705e-11
1.7207e-08
3.20401e-11
1.71727e-08
-6.36033e-11
-1.92765e-11
3.56307e-11
1.71988e-08
-7.48311e-11
4.03185e-11
1.72078e-08
-8.04911e-11
1.72153e-08
-9.02811e-11
4.29017e-11
-9.50567e-12
1.71997e-08
-3.32688e-11
4.62217e-11
-1.70392e-11
1.71989e-08
4.68794e-11
-2.38853e-11
1.71951e-08
-2.87317e-11
1.71929e-08
3.73108e-11
-2.17847e-11
1.71974e-08
-2.93732e-11
4.03831e-11
-2.82664e-11
1.71998e-08
4.22929e-11
-3.29597e-11
1.71981e-08
-3.52829e-11
1.71973e-08
3.15921e-11
-3.11603e-11
1.71917e-08
-2.27046e-11
3.60313e-11
-3.65573e-11
1.72018e-08
4.06531e-11
-4.01903e-11
1.72032e-08
-4.20512e-11
1.72031e-08
2.6116e-11
1.71679e-08
-3.56349e-11
-1.68418e-11
3.24379e-11
1.7197e-08
-4.1036e-11
3.99662e-11
1.72051e-08
-4.50186e-11
1.72069e-08
-4.98973e-11
3.32108e-11
-8.35184e-12
1.71992e-08
-2.65071e-11
3.72915e-11
-1.31531e-11
1.71999e-08
3.99612e-11
-1.72279e-11
1.71966e-08
-2.00686e-11
1.71927e-08
2.93668e-11
-1.40366e-11
1.7197e-08
-2.32953e-11
3.36566e-11
-1.83669e-11
1.72007e-08
3.72758e-11
-2.15829e-11
1.71988e-08
-2.34333e-11
1.71958e-08
2.55159e-11
-1.8749e-11
1.71894e-08
-1.84873e-11
3.06361e-11
-2.20958e-11
1.72004e-08
3.5714e-11
-2.48431e-11
1.72014e-08
-2.65177e-11
1.71992e-08
2.19819e-11
1.71625e-08
-2.03843e-11
-1.48798e-11
2.79323e-11
1.7192e-08
-2.31107e-11
3.44836e-11
1.71998e-08
-2.60806e-11
1.71998e-08
-2.89398e-11
2.55259e-11
-6.89554e-12
1.71971e-08
-2.06165e-11
2.91257e-11
-9.90627e-12
1.71987e-08
3.1776e-11
-1.23552e-11
1.71959e-08
-1.40448e-11
1.71921e-08
2.30198e-11
-9.4112e-12
1.71948e-08
-1.82838e-11
2.68739e-11
-1.21868e-11
1.71991e-08
3.01651e-11
-1.43682e-11
1.71975e-08
-1.57257e-11
1.71942e-08
2.04242e-11
-1.1573e-11
1.71862e-08
-1.50434e-11
2.48049e-11
-1.36536e-11
1.71975e-08
2.89283e-11
-1.56859e-11
1.71985e-08
-1.70246e-11
1.71961e-08
1.80387e-11
1.71574e-08
-1.17529e-11
-1.28221e-11
2.28154e-11
1.7187e-08
-1.34035e-11
2.77184e-11
1.71948e-08
-1.55919e-11
1.71945e-08
-1.7487e-11
1.93425e-11
-5.46006e-12
1.71945e-08
-1.57368e-11
2.22088e-11
-7.36216e-12
1.71968e-08
2.4356e-11
-8.86617e-12
1.71947e-08
-9.91822e-12
1.71914e-08
1.77524e-11
-6.44916e-12
1.71921e-08
-1.41422e-11
2.07931e-11
-8.23348e-12
1.71969e-08
2.33475e-11
-9.69715e-12
1.71957e-08
-1.0685e-11
1.71929e-08
1.60492e-11
-7.28493e-12
1.71829e-08
-1.20156e-11
1.9394e-11
-8.6311e-12
1.71945e-08
2.24068e-11
-1.00808e-11
1.71958e-08
-1.11304e-11
1.71938e-08
1.44232e-11
1.71531e-08
-6.8829e-12
-1.05481e-11
1.79629e-11
1.71828e-08
-7.98065e-12
2.13863e-11
1.71908e-08
-9.55728e-12
1.71909e-08
-1.09016e-11
1.43934e-11
-4.19762e-12
1.71921e-08
-1.17714e-11
1.656e-11
-5.39349e-12
1.7195e-08
1.81742e-11
-6.32356e-12
1.71935e-08
-7.01109e-12
1.71909e-08
1.33922e-11
-4.46842e-12
1.71897e-08
-1.07092e-11
1.56545e-11
-5.62401e-12
1.71948e-08
1.75256e-11
-6.59646e-12
1.71942e-08
-7.31265e-12
1.71919e-08
1.22896e-11
-4.66892e-12
1.71801e-08
-9.34644e-12
1.47194e-11
-5.56117e-12
1.7192e-08
1.68242e-11
-6.57593e-12
1.71937e-08
-7.37544e-12
1.71921e-08
1.11862e-11
1.71497e-08
-4.11109e-12
-8.36019e-12
1.3712e-11
1.71796e-08
-4.85073e-12
1.60224e-11
1.71879e-08
-5.97254e-12
1.71886e-08
-6.96576e-12
1.04693e-11
-3.13214e-12
1.71903e-08
-8.58801e-12
1.20311e-11
-3.8794e-12
1.71936e-08
1.31827e-11
-4.44798e-12
1.71926e-08
-4.89004e-12
1.71905e-08
9.84482e-12
-3.11071e-12
1.71877e-08
-7.9095e-12
1.14562e-11
-3.84841e-12
1.71932e-08
1.27685e-11
-4.4866e-12
1.7193e-08
-4.9889e-12
1.71912e-08
9.12907e-12
-3.02865e-12
1.71779e-08
-7.04116e-12
1.0841e-11
-3.62586e-12
1.719e-08
1.22681e-11
-4.32141e-12
1.71921e-08
-4.9042e-12
1.7191e-08
8.38662e-12
1.71471e-08
-2.49663e-12
-6.35271e-12
1.01491e-11
1.71773e-08
-2.9952e-12
1.16755e-11
1.71859e-08
-3.776e-12
1.7187e-08
-4.49094e-12
7.35827e-12
-2.2568e-12
1.71889e-08
-6.0466e-12
8.42202e-12
-2.71488e-12
1.71925e-08
9.20255e-12
-3.0599e-12
1.71919e-08
-3.31334e-12
1.71903e-08
6.97194e-12
-2.12996e-12
1.71862e-08
-5.62825e-12
8.07104e-12
-2.59413e-12
1.7192e-08
8.94437e-12
-3.01062e-12
1.71921e-08
-3.3408e-12
1.71907e-08
6.50957e-12
-1.9579e-12
1.71763e-08
-5.07505e-12
7.67931e-12
-2.357e-12
1.71886e-08
8.61234e-12
-2.81989e-12
1.7191e-08
-3.22184e-12
1.71903e-08
6.02422e-12
1.71453e-08
-1.53134e-12
-4.60535e-12
7.21947e-12
1.71756e-08
-1.85312e-12
8.2016e-12
1.71845e-08
-2.38147e-12
1.7186e-08
-2.87737e-12
4.85811e-12
-1.50641e-12
1.71879e-08
-4.00385e-12
5.53351e-12
-1.7792e-12
1.71917e-08
6.02837e-12
-1.97938e-12
1.71914e-08
-2.1109e-12
1.71901e-08
4.6298e-12
-1.37179e-12
1.71852e-08
-3.7566e-12
5.3376e-12
-1.65818e-12
1.71912e-08
5.87958e-12
-1.90599e-12
1.71915e-08
-2.10925e-12
1.71904e-08
4.34934e-12
-1.21758e-12
1.71752e-08
-3.41533e-12
5.09615e-12
-1.45226e-12
1.71877e-08
5.67558e-12
-1.74855e-12
1.71903e-08
-2.00612e-12
1.71899e-08
4.04009e-12
1.71441e-08
-9.0643e-13
-3.11273e-12
4.81177e-12
1.71745e-08
-1.09802e-12
5.41188e-12
1.71837e-08
-1.43489e-12
1.71854e-08
-1.75714e-12
2.85203e-12
-7.08408e-13
1.71873e-08
-2.36257e-12
3.23553e-12
-8.52006e-13
1.71913e-08
3.5188e-12
-9.52681e-13
1.71911e-08
-1.0234e-12
1.719e-08
2.73616e-12
-6.17845e-13
1.71845e-08
-2.23627e-12
3.14154e-12
-7.75049e-13
1.71907e-08
3.44682e-12
-9.07303e-13
1.71912e-08
-1.01852e-12
1.71903e-08
2.58773e-12
-5.2866e-13
1.71745e-08
-2.05378e-12
3.01241e-12
-6.60046e-13
1.71871e-08
3.3324e-12
-8.19395e-13
1.71899e-08
-9.6766e-13
1.71897e-08
2.41507e-12
1.71434e-08
-3.62035e-13
-1.88295e-12
2.85152e-12
1.71739e-08
-4.65038e-13
3.18081e-12
1.71832e-08
-6.54887e-13
1.71851e-08
-8.41595e-13
1.50955e-12
3.34995e-13
-1.25413e-12
1.71771e-12
2.93729e-13
1.87373e-12
2.59689e-13
2.29192e-13
1.4759e-12
3.38385e-13
-1.22633e-12
1.68198e-12
2.8735e-13
1.8376e-12
2.32921e-13
1.76758e-13
1.42391e-12
3.18932e-13
-1.17004e-12
1.62691e-12
2.72487e-13
1.7802e-12
1.99954e-13
1.23448e-13
1.35208e-12
3.06912e-13
-1.09752e-12
1.5524e-12
2.72239e-13
1.69952e-12
1.84776e-13
8.71044e-14
-2.76028e-09
-8.61222e-10
1.76418e-08
-7.13829e-10
4.95551e-10
1.16486e-10
9.91665e-09
-3.36173e-09
-2.19336e-09
2.54141e-08
1.87093e-10
1.2256e-08
-1.19376e-09
8.21552e-10
1.13802e-08
4.16208e-10
-3.44997e-10
4.77895e-09
1.03275e-08
-6.46491e-10
3.32107e-09
1.3562e-08
1.62801e-09
1.77597e-08
-1.88522e-11
3.29521e-09
1.1907e-08
-1.08238e-10
-1.17818e-09
-1.7533e-09
2.57528e-08
-1.59e-09
2.79561e-09
2.21644e-08
-1.77166e-10
2.09941e-08
-1.40905e-09
2.1272e-08
-2.09109e-10
4.62986e-10
1.66715e-08
-2.78221e-09
2.92597e-08
2.19686e-08
9.10911e-10
3.05326e-09
1.18118e-08
8.49306e-12
-2.60837e-09
3.93566e-10
1.51628e-08
3.75986e-09
1.11514e-09
1.63439e-08
-5.10408e-10
2.25494e-08
1.82907e-10
1.11771e-09
1.36515e-08
-5.18638e-10
-6.45506e-10
2.40178e-10
1.13093e-08
1.58384e-09
2.86669e-09
9.58113e-09
-3.0115e-09
2.38735e-08
-2.43775e-10
7.4139e-10
1.18098e-08
7.17291e-10
2.62761e-12
3.54791e-09
2.21987e-08
-1.17981e-09
-1.84028e-09
2.80538e-08
1.4485e-10
1.68435e-08
4.28667e-10
2.12141e-08
4.10113e-10
-1.58769e-09
2.21993e-08
-2.00481e-10
2.61042e-08
2.00391e-08
1.72169e-09
3.47689e-09
5.21947e-09
3.95375e-10
3.91908e-10
5.36971e-09
1.25574e-08
3.07235e-09
1.44779e-09
1.19757e-08
-1.92687e-10
3.21391e-08
1.48291e-09
1.02621e-09
1.4822e-08
-2.02688e-10
-7.85673e-10
-2.25418e-09
2.12017e-08
-1.30653e-10
3.75305e-10
9.99859e-09
1.58208e-11
2.58225e-08
-3.68807e-10
-9.7562e-10
1.46347e-08
-4.54336e-10
4.56333e-10
5.31435e-11
1.90662e-08
-1.74513e-10
-2.46871e-09
3.15287e-08
2.19009e-09
1.46859e-08
-3.4892e-10
2.03335e-08
2.41535e-10
-4.34273e-10
2.22593e-08
1.92135e-09
2.1318e-08
2.74065e-08
-1.23126e-09
-5.32445e-09
1.59129e-08
-1.09252e-09
3.05033e-10
3.31781e-10
1.01495e-08
-3.47498e-09
-2.32838e-10
1.60147e-08
4.96031e-11
2.28305e-08
6.0456e-12
-1.89241e-09
1.15676e-08
-1.8373e-10
8.02982e-10
2.94645e-09
1.77902e-08
-2.05205e-09
6.28665e-10
1.19921e-08
4.99627e-09
1.45646e-08
1.46646e-09
1.51011e-09
1.00905e-08
-3.24698e-10
2.3319e-10
2.51613e-09
2.07298e-08
9.67616e-10
-2.8716e-09
3.42945e-08
3.97987e-10
2.13185e-08
1.32238e-09
2.06851e-08
-1.53227e-10
-1.14175e-09
2.7256e-08
2.22023e-09
1.51521e-08
3.19136e-08
-2.28785e-09
-2.664e-09
1.59231e-08
-1.14841e-09
-5.91113e-10
-2.15369e-09
9.28055e-09
-1.90991e-09
1.10572e-09
1.61335e-08
4.32776e-09
1.17199e-08
-5.83817e-10
-8.37365e-10
1.10043e-08
-6.79485e-10
1.04939e-09
1.02396e-09
1.29793e-08
1.08853e-09
3.49071e-10
1.27096e-08
-1.0677e-09
2.28728e-08
1.33608e-10
1.3428e-11
9.26698e-09
-1.60927e-10
1.87581e-09
1.87241e-09
1.81392e-08
1.87354e-09
-1.1235e-09
3.57694e-08
4.46768e-09
1.82277e-08
9.86013e-10
2.06669e-08
-8.70315e-10
6.01609e-10
2.95629e-08
2.27625e-09
1.24044e-08
3.99624e-08
2.6303e-10
-3.0987e-10
1.39817e-08
1.64888e-10
4.18515e-10
5.09227e-10
9.56059e-09
2.64417e-10
9.98041e-10
1.79184e-08
-1.41368e-09
2.0431e-08
1.16976e-10
-7.86975e-10
1.08677e-08
4.96745e-10
9.22392e-10
-4.8138e-10
1.31645e-08
-2.07602e-09
-2.65879e-09
1.93649e-08
4.61295e-09
1.37223e-08
-7.48117e-12
-1.96311e-09
1.05617e-08
-1.11055e-10
-1.57865e-10
9.95722e-10
1.68124e-08
1.84608e-09
3.4456e-09
2.7661e-08
-2.25614e-09
2.83829e-08
9.30681e-10
1.81045e-08
-2.88259e-10
1.85596e-10
3.14349e-08
1.08646e-09
1.47676e-08
3.90795e-08
-5.99282e-10
5.34887e-09
1.26416e-08
3.81502e-10
1.01323e-09
-5.31646e-10
8.8934e-09
1.72431e-09
1.99003e-09
1.62298e-08
5.25831e-10
1.99358e-08
-4.35146e-10
2.50272e-09
1.38905e-08
2.58478e-10
-4.17939e-10
-7.94674e-10
1.34104e-08
1.37944e-09
-8.09689e-10
2.03673e-08
-2.05692e-09
1.73237e-08
2.73428e-09
-2.63068e-09
1.43366e-08
-1.37581e-09
1.68763e-10
-6.49244e-10
1.92325e-08
2.48731e-10
2.36678e-09
2.44047e-08
-1.04257e-09
2.70254e-08
-1.39597e-10
1.52589e-08
1.54032e-10
3.59222e-09
2.7375e-08
2.04095e-09
1.68056e-08
3.96574e-08
-1.17488e-10
9.46848e-11
1.22004e-08
3.0032e-10
-6.80549e-10
-1.53948e-09
1.01872e-08
-1.12546e-09
-9.48272e-10
1.57017e-08
-1.23472e-09
1.98293e-08
-2.63912e-10
-4.93998e-10
1.45396e-08
2.03647e-10
-4.69342e-10
-2.31543e-09
1.43919e-08
-1.17005e-09
-3.50644e-10
2.04706e-08
-3.48317e-09
2.10667e-08
-2.6377e-10
-7.73006e-10
1.46752e-08
2.04338e-10
-4.26635e-10
-2.75615e-09
1.98364e-08
-1.28774e-09
1.10613e-09
2.38093e-08
-3.76641e-09
2.55802e-08
-6.95773e-10
1.47719e-08
4.0993e-10
2.24319e-10
2.3699e-08
-1.18503e-09
1.93213e-08
3.25443e-08
1.10985e-09
-6.15824e-10
1.06639e-08
-7.92715e-11
-4.66873e-10
-2.06077e-09
1.30357e-08
-1.47352e-09
-2.10133e-09
1.63892e-08
-1.76753e-09
1.90298e-08
6.47228e-10
3.30535e-10
1.30247e-08
-7.83599e-11
-3.11627e-10
-2.73027e-09
1.60205e-08
-1.10086e-09
-5.5171e-10
1.97106e-08
-1.72989e-09
2.17875e-08
-1.69431e-11
4.73846e-10
1.4615e-08
-6.59986e-11
-1.32225e-10
-2.02047e-09
1.92422e-08
-8.1436e-10
1.62964e-09
2.23104e-08
-1.84218e-09
2.5126e-08
-2.10534e-10
1.54597e-08
-3.3411e-12
4.99676e-11
2.14183e-08
-1.2552e-09
2.22564e-08
2.86604e-08
-1.13841e-10
-4.42452e-10
1.05438e-08
1.7229e-10
-5.59272e-10
-1.17895e-09
1.38698e-08
-8.67016e-10
-1.24787e-09
1.66201e-08
-1.34122e-09
1.84737e-08
-2.56411e-10
-1.20622e-11
1.26708e-08
1.79966e-10
-5.38018e-10
-1.16515e-09
1.62886e-08
-7.61887e-10
-5.68453e-10
1.92553e-08
-1.15492e-09
2.12304e-08
-4.40933e-10
3.85635e-10
1.44691e-08
1.89332e-10
-4.70119e-10
-5.22145e-10
1.86285e-08
-6.6606e-10
4.40934e-10
2.14973e-08
-7.2887e-10
2.3843e-08
-5.44606e-10
1.61958e-08
1.94283e-10
-4.56042e-10
2.08077e-08
-8.02884e-10
2.30444e-08
2.65224e-08
-1.31006e-11
-3.35035e-10
1.03348e-08
1.05626e-10
-1.33187e-10
-5.55194e-10
1.40487e-08
-3.00454e-10
-5.62031e-10
1.67454e-08
-6.89695e-10
1.83241e-08
-5.26667e-11
-1.80526e-10
1.24481e-08
1.20964e-10
-1.18622e-10
-5.45478e-10
1.63449e-08
-2.78187e-10
-3.35309e-10
1.91883e-08
-5.99706e-10
2.09322e-08
-1.01987e-10
-1.32927e-10
1.43936e-08
1.29924e-10
-1.15796e-10
-4.24669e-10
1.85216e-08
-2.60432e-10
-8.56377e-11
2.13925e-08
-4.98557e-10
2.33664e-08
-1.47528e-10
1.60809e-08
1.29506e-10
-1.35498e-10
2.03711e-08
-2.95507e-10
2.31188e-08
2.54915e-08
-6.35333e-11
-1.77645e-10
1.03149e-08
6.86065e-11
-8.40021e-11
-2.87363e-10
1.41004e-08
-1.0341e-10
-2.95952e-10
1.67626e-08
-3.76927e-10
1.82076e-08
-8.7539e-11
-1.06444e-10
1.23887e-08
7.57628e-11
-8.93935e-11
-2.51427e-10
1.63109e-08
-1.08361e-10
-1.94575e-10
1.9106e-08
-3.24076e-10
2.06811e-08
-1.10574e-10
-1.69809e-11
1.43352e-08
7.96175e-11
-9.28454e-11
-1.32109e-10
1.83846e-08
-1.12522e-10
-4.77181e-11
2.12653e-08
-2.02062e-10
2.29878e-08
-1.28229e-10
1.61112e-08
8.1044e-11
-1.0737e-10
2.02182e-08
-1.28239e-10
2.3092e-08
2.49804e-08
-3.09714e-11
-1.05236e-10
1.02979e-08
3.72815e-11
-2.42172e-11
-1.49588e-10
1.41035e-08
-1.09867e-11
-1.52945e-10
1.67521e-08
-1.96846e-10
1.81407e-08
-4.12817e-11
-7.46197e-11
1.23595e-08
3.99462e-11
-2.97937e-11
-1.29873e-10
1.62797e-08
-1.55835e-11
-1.1306e-10
1.90519e-08
-1.7458e-10
2.05447e-08
-4.95994e-11
-3.79281e-11
1.43067e-08
4.14779e-11
-3.42092e-11
-7.90357e-11
1.83184e-08
-2.11998e-11
-4.94338e-11
2.11887e-08
-1.11224e-10
2.27879e-08
-5.54012e-11
1.6086e-08
4.2712e-11
-4.14656e-11
2.01252e-08
-2.97337e-11
2.30309e-08
2.47174e-08
-1.31144e-11
-5.89405e-11
1.02882e-08
1.82384e-11
1.62008e-12
-8.04783e-11
1.40944e-08
1.93701e-11
-8.36639e-11
1.67375e-08
-1.03514e-10
1.81001e-08
-1.84575e-11
-4.37433e-11
1.23436e-08
1.92359e-11
-3.41978e-12
-7.01429e-11
1.62544e-08
1.27448e-11
-6.57965e-11
1.90179e-08
-9.37946e-11
2.04677e-08
-2.26161e-11
-2.23843e-11
1.42882e-08
1.97698e-11
-8.77035e-12
-4.27039e-11
1.82772e-08
6.46182e-12
-3.40517e-11
2.11418e-08
-6.06663e-11
2.26772e-08
-2.56846e-11
1.60688e-08
2.04858e-11
-1.44279e-11
2.00713e-08
1.54771e-12
2.29809e-08
2.45751e-08
-1.92647e-12
-3.40524e-11
1.02811e-08
7.44964e-12
1.11894e-11
-4.44612e-11
1.40848e-08
2.76174e-11
-4.80326e-11
1.67241e-08
-5.65575e-11
1.8076e-08
-5.57931e-12
-2.60511e-11
1.23332e-08
8.04375e-12
7.63963e-12
-3.91884e-11
1.62358e-08
2.31369e-11
-3.98516e-11
1.89943e-08
-5.14191e-11
2.04254e-08
-7.30456e-12
-1.42307e-11
1.42755e-08
8.1808e-12
4.59299e-12
-2.40574e-11
1.82502e-08
1.80285e-11
-2.21455e-11
2.11107e-08
-3.30598e-11
2.26169e-08
-8.90277e-12
1.60552e-08
8.36285e-12
8.55441e-13
2.00375e-08
1.39477e-11
2.29457e-08
2.44986e-08
3.04236e-12
-1.97978e-11
1.02758e-08
1.80091e-12
1.36499e-11
-2.56366e-11
1.40767e-08
2.65218e-11
-2.84354e-11
1.67136e-08
-3.22379e-11
1.80614e-08
1.21458e-12
-1.57161e-11
1.23255e-08
2.31622e-12
1.09796e-11
-2.26361e-11
1.6223e-08
2.33421e-11
-2.43703e-11
1.89778e-08
-2.91128e-11
2.04013e-08
-8.03057e-14
-8.82419e-12
1.42663e-08
2.4178e-12
8.68629e-12
-1.38794e-11
1.82327e-08
1.98307e-11
-1.41593e-11
2.10893e-08
-1.84938e-11
2.25835e-08
-9.29481e-13
1.60448e-08
2.38944e-12
6.52969e-12
2.00161e-08
1.69426e-11
2.29211e-08
2.44568e-08
5.12205e-12
-1.19815e-11
1.02716e-08
-6.15644e-13
1.30928e-11
-1.51776e-11
1.40705e-08
2.23818e-11
-1.72602e-11
1.6706e-08
-1.90887e-11
1.80525e-08
3.77039e-12
-9.70447e-12
1.23199e-08
-4.64669e-13
1.11328e-11
-1.35747e-11
1.6214e-08
2.01655e-11
-1.50971e-11
1.89667e-08
-1.7072e-11
2.03874e-08
3.05323e-12
-5.5832e-12
1.42595e-08
-4.60831e-13
9.49433e-12
-8.34579e-12
1.8221e-08
1.77197e-11
-8.98013e-12
2.10751e-08
-1.06975e-11
2.25645e-08
2.61064e-12
1.60372e-08
-6.13876e-13
8.10846e-12
2.00023e-08
1.57188e-11
2.29046e-08
2.44335e-08
5.34915e-12
-7.3785e-12
1.02684e-08
-1.55818e-12
1.12106e-11
-9.28174e-12
1.4066e-08
1.77003e-11
-1.06857e-11
1.67006e-08
-1.16901e-11
1.80468e-08
4.4684e-12
-6.14321e-12
1.23157e-08
-1.51026e-12
9.78863e-12
-8.37774e-12
1.62077e-08
1.61417e-11
-9.46649e-12
1.89591e-08
-1.03136e-11
2.0379e-08
3.9637e-12
-3.60254e-12
1.42545e-08
-1.52591e-12
8.61574e-12
-5.15527e-12
1.82131e-08
1.44424e-11
-5.7028e-12
2.10655e-08
-6.37458e-12
2.25534e-08
3.74481e-12
1.60316e-08
-1.7124e-12
7.74982e-12
1.99932e-08
1.30821e-11
2.28936e-08
2.442e-08
4.77236e-12
-4.63849e-12
1.02659e-08
-1.73926e-12
9.00099e-12
-5.78159e-12
1.40627e-08
1.34593e-11
-6.72754e-12
1.6697e-08
-7.3334e-12
1.80433e-08
4.17762e-12
-3.97895e-12
1.23126e-08
-1.73139e-12
7.99746e-12
-5.28555e-12
1.62034e-08
1.23534e-11
-5.99593e-12
1.8954e-08
-6.39015e-12
2.03739e-08
3.80987e-12
-2.37123e-12
1.42508e-08
-1.7575e-12
7.14704e-12
-3.25282e-12
1.82078e-08
1.11658e-11
-3.6363e-12
2.10592e-08
-3.89092e-12
2.25467e-08
3.70457e-12
1.60274e-08
-1.9372e-12
6.59908e-12
1.9987e-08
1.02446e-11
2.28864e-08
2.44121e-08
3.88506e-12
-2.95746e-12
1.02642e-08
-1.55583e-12
6.88548e-12
-3.65167e-12
1.40604e-08
9.90336e-12
-4.26989e-12
1.66945e-08
-4.65666e-12
1.80411e-08
3.47013e-12
-2.60299e-12
1.23104e-08
-1.55734e-12
6.18349e-12
-3.37351e-12
1.62004e-08
9.12747e-12
-3.82166e-12
1.89507e-08
-4.01324e-12
2.03707e-08
3.21289e-12
-1.56776e-12
1.42482e-08
-1.59936e-12
5.58534e-12
-2.07694e-12
1.82042e-08
8.29988e-12
-2.32285e-12
2.10551e-08
-2.41505e-12
2.25426e-08
3.17515e-12
1.60244e-08
-1.75913e-12
5.23635e-12
1.99829e-08
7.6787e-12
2.28817e-08
2.44073e-08
2.93071e-12
-1.88689e-12
1.02629e-08
-1.23091e-12
5.00684e-12
-2.30206e-12
1.40588e-08
7.00593e-12
-2.69723e-12
1.66928e-08
-2.94354e-12
1.80397e-08
2.6568e-12
-1.68387e-12
1.23088e-08
-1.26316e-12
4.53162e-12
-2.14846e-12
1.61984e-08
6.47622e-12
-2.41821e-12
1.89485e-08
-2.51293e-12
2.03687e-08
2.48328e-12
-1.0174e-12
1.42463e-08
-1.29543e-12
4.1234e-12
-1.32159e-12
1.82018e-08
5.91243e-12
-1.46709e-12
2.10524e-08
-1.49739e-12
2.25401e-08
2.47518e-12
1.60223e-08
-1.40868e-12
3.90177e-12
1.99802e-08
5.50056e-12
2.28787e-08
2.44045e-08
2.03572e-12
-1.1475e-12
1.02621e-08
-8.9145e-13
3.39207e-12
-1.38859e-12
1.40578e-08
4.64988e-12
-1.62873e-12
1.66918e-08
-1.77871e-12
1.80388e-08
1.86362e-12
-1.03693e-12
1.23078e-08
-9.1412e-13
3.08765e-12
-1.30753e-12
1.61971e-08
4.30814e-12
-1.46226e-12
1.89472e-08
-1.50686e-12
2.03675e-08
1.75205e-12
-6.27201e-13
1.42451e-08
-9.37142e-13
2.82319e-12
-8.01255e-13
1.82002e-08
3.94359e-12
-8.83154e-13
2.10507e-08
-8.89573e-13
2.25386e-08
1.75437e-12
1.6021e-08
-1.01492e-12
2.68634e-12
1.99785e-08
3.68115e-12
2.28768e-08
2.44028e-08
1.29448e-12
-5.31921e-13
1.02617e-08
-6.17692e-13
2.0699e-12
-6.53631e-13
1.40573e-08
2.76214e-12
-7.80448e-13
1.66913e-08
-8.62018e-13
1.80384e-08
1.19132e-12
-5.04244e-13
1.23072e-08
-6.25908e-13
1.89139e-12
-6.40172e-13
1.61964e-08
2.56226e-12
-7.16137e-13
1.89464e-08
-7.34181e-13
2.0367e-08
1.12048e-12
-3.08181e-13
1.42445e-08
-6.33723e-13
1.73317e-12
-3.93457e-13
1.81994e-08
2.34773e-12
-4.32714e-13
2.10499e-08
-4.30933e-13
2.25379e-08
1.11658e-12
1.60203e-08
-6.73706e-13
1.64913e-12
1.99776e-08
2.19144e-12
2.28759e-08
2.4402e-08
9.25199e-13
1.2848e-13
-5.80018e-13
1.27528e-12
1.02732e-13
1.54927e-12
5.75044e-14
1.56592e-14
8.52107e-13
2.22311e-14
-5.54785e-13
1.17081e-12
-7.43478e-15
1.43615e-12
-2.64618e-14
-3.11147e-14
7.92387e-13
-1.24002e-14
-5.36541e-13
1.07019e-12
-3.5438e-14
1.31057e-12
-4.5877e-14
-4.24613e-14
7.64612e-13
-5.36141e-13
1.00306e-12
1.20993e-12
3.58536e-09
1.39822e-09
2.28128e-08
-7.14182e-09
3.20041e-10
3.70815e-08
1.19095e-09
1.60092e-09
9.10234e-09
2.34638e-09
1.67781e-08
-3.59971e-10
3.22124e-09
2.1505e-08
-2.31574e-09
2.31408e-09
2.07921e-08
4.40773e-10
1.30942e-09
1.61699e-08
2.54206e-09
1.7099e-08
-6.98642e-09
-1.83513e-09
3.23537e-08
-4.0609e-09
-8.71852e-10
1.84574e-08
1.85236e-10
1.07718e-09
1.20185e-08
-2.85983e-10
2.01244e-08
-1.20463e-09
1.55928e-08
1.31181e-09
1.0832e-08
-2.37244e-09
1.73802e-08
7.45432e-09
1.03991e-09
-1.29716e-09
2.43686e-08
-1.48319e-09
-1.36099e-09
4.46847e-08
-2.5886e-10
-5.07522e-10
1.0816e-08
-1.69812e-09
2.03391e-08
6.16784e-10
1.62503e-09
1.80204e-08
-1.28745e-09
-7.57099e-10
2.20924e-08
-3.71404e-09
-8.79167e-10
1.89681e-08
4.32437e-10
1.01112e-08
-6.86542e-09
-6.99095e-10
4.16646e-08
-4.13672e-10
1.28331e-09
9.9652e-09
-2.66491e-09
-2.80378e-10
1.3671e-08
1.45551e-09
1.54297e-08
1.59896e-09
1.37376e-08
-5.86017e-09
2.02918e-08
3.02441e-10
1.04185e-08
8.05659e-09
-4.17424e-09
-3.51177e-09
3.26865e-08
-1.09568e-09
-2.14398e-09
4.89321e-08
-2.23216e-09
-1.44004e-09
1.52223e-08
-2.57088e-09
2.47782e-08
4.60987e-09
3.91408e-10
9.6113e-09
-1.12111e-09
-3.40097e-10
2.60195e-08
-1.69642e-09
-1.53796e-09
1.96414e-08
8.32986e-11
5.58495e-09
4.76449e-09
1.38755e-09
3.59002e-08
-2.22789e-09
-6.44014e-10
1.72615e-08
1.15715e-10
5.14023e-10
9.2754e-09
-3.45324e-10
1.67666e-08
-2.11457e-09
1.75696e-08
1.68639e-10
1.69102e-08
-2.28532e-09
1.31838e-08
6.97636e-09
-7.45773e-09
9.72124e-10
3.7417e-08
2.44985e-09
1.81046e-09
3.29784e-08
4.35439e-10
9.27185e-10
1.38768e-08
9.31571e-10
2.36196e-08
-3.99746e-09
-3.07229e-09
1.76478e-08
1.53218e-09
1.0883e-09
2.12121e-08
5.96268e-10
-1.57675e-10
2.16621e-08
4.94583e-10
8.83574e-09
8.21464e-09
1.65106e-09
2.2524e-08
-7.64921e-11
-1.36653e-09
2.80074e-08
2.44856e-09
-1.89944e-10
6.78261e-09
-1.64322e-09
2.42161e-08
-2.51289e-09
2.16802e-08
2.52783e-09
1.01782e-08
8.08772e-10
1.45292e-08
6.35739e-09
4.29951e-09
7.03369e-10
3.15718e-08
-1.99432e-09
-1.48437e-09
4.09395e-08
5.146e-10
-7.52768e-10
1.04792e-08
-1.24581e-09
2.34499e-08
-1.35728e-09
-2.05262e-09
2.1715e-08
-1.22292e-09
-1.46934e-09
2.10627e-08
1.18299e-11
-4.50094e-11
1.97196e-08
-3.74057e-10
8.77162e-09
3.35938e-09
-5.62119e-10
1.77027e-08
1.79768e-09
-1.18118e-09
2.9281e-08
-4.81653e-10
-1.41259e-09
1.04295e-08
2.55243e-10