/*--------------------------------*- C++ -*----------------------------------*\
| =========                 |                                                 |
| \\      /  F ield         | OpenFOAM: The Open Source CFD Toolbox           |
|  \\    /   O peration     | Version:  2506                                  |
|   \\  /    A nd           | Website:  www.openfoam.com                      |
|    \\/     M anipulation  |                                                 |
\*---------------------------------------------------------------------------*/
FoamFile
{
    version     2.0;
    format      ascii;
    arch        "LSB;label=32;scalar=64";
    class       volVectorField;
    location    "0.02";
    object      Us;
}
// * * * * * * * * * * * * * * * * * * * * * * * * * * * * * * * * * * * * * //

dimensions      [0 1 -1 0 0 0 0];

internalField   nonuniform List<vector> 
1152
(
(2.49587e-05 -6.12735e-06 2.54378e-05)
(4.39014e-05 -6.27856e-06 1.84323e-05)
(5.12543e-05 -1.17928e-06 3.41829e-05)
(8.28706e-05 -5.75116e-05 3.62259e-05)
(-6.1515e-06 -1.10272e-05 4.35233e-05)
(-1.57844e-05 -3.68749e-06 6.11738e-05)
(-2.7013e-05 3.62352e-05 6.42912e-05)
(3.17986e-05 -2.97939e-05 3.40443e-05)
(2.45912e-05 -8.52614e-06 4.14563e-05)
(8.49884e-06 -3.09958e-05 5.19668e-05)
(1.35531e-05 1.48658e-05 5.5639e-05)
(-0.000124851 1.0926e-05 5.17929e-05)
(8.64269e-05 7.39287e-05 2.02452e-05)
(-3.81305e-05 -1.42179e-05 5.95716e-05)
(-6.17104e-05 -0.000166591 4.99951e-05)
(-2.67575e-05 -3.92365e-05 3.74428e-05)
(8.76449e-05 9.54236e-06 0.000135859)
(2.53567e-05 1.10496e-05 0.000115492)
(3.89031e-06 2.77893e-05 8.73335e-05)
(2.12048e-05 3.17785e-05 8.08847e-05)
(6.27776e-05 6.19651e-06 0.000142871)
(0.000125063 -7.73218e-05 0.000196924)
(-1.86548e-05 2.08382e-05 0.000123643)
(-3.55202e-05 2.23715e-05 0.000111379)
(0.000103026 6.08813e-05 0.000124455)
(-1.8613e-06 5.87634e-05 0.000183018)
(5.11492e-06 4.25012e-05 0.000157981)
(-5.13979e-05 5.2631e-05 0.000131174)
(0.000149028 7.12342e-05 0.000131481)
(6.97426e-05 7.95325e-05 0.000170747)
(-1.85796e-05 -3.52649e-05 0.00017436)
(-7.51407e-05 6.04208e-05 0.000155109)
(9.0046e-05 7.86182e-06 0.000279787)
(5.64904e-05 0.000105919 0.000244091)
(2.7765e-05 6.09084e-05 0.000282822)
(-1.71323e-05 -1.80585e-05 0.000221978)
(8.19673e-06 7.5929e-05 0.000251585)
(3.17466e-06 7.17645e-05 0.000254919)
(-1.80317e-05 3.89156e-05 0.000292352)
(-7.06379e-05 5.80701e-05 0.000231678)
(3.5365e-05 3.56782e-05 0.000289002)
(-3.66948e-05 6.57407e-05 0.000285451)
(2.36266e-05 -8.10509e-05 0.0003375)
(5.39345e-05 0.00015414 0.000277753)
(4.09897e-05 3.50125e-05 0.000294176)
(5.86644e-05 -3.48729e-05 0.000272544)
(8.3283e-05 -0.00011768 0.000252904)
(-2.34137e-05 7.00799e-05 0.000279781)
(3.98044e-05 5.16966e-05 0.000386911)
(-8.85046e-06 4.95616e-05 0.000432571)
(-0.000121487 3.7084e-05 0.000493784)
(-0.00020958 0.000133331 0.000450631)
(0.000106875 5.35607e-05 0.000376521)
(3.91142e-05 0.000120038 0.00033713)
(-5.63062e-05 0.000141413 0.000465209)
(-1.32718e-05 0.000157814 0.000460339)
(2.0387e-05 3.22983e-05 0.000408122)
(-4.797e-05 9.358e-05 0.000405764)
(-2.97982e-05 0.000128626 0.000447514)
(2.49098e-05 0.000103496 0.000476022)
(-3.77223e-05 -7.55936e-05 0.000473576)
(-0.000107208 7.59053e-05 0.000457759)
(-4.25246e-06 3.1045e-05 0.000477674)
(-1.96739e-05 8.91267e-05 0.000461714)
(4.93979e-05 3.87705e-05 0.000463367)
(-7.66317e-05 5.54133e-05 0.000542261)
(-5.84393e-05 0.000103565 0.000538856)
(-0.000131111 0.00013168 0.000577639)
(7.24825e-05 1.71501e-05 0.000496778)
(2.17376e-05 1.97333e-05 0.000469519)
(5.17186e-06 0.000188891 0.000517955)
(4.26708e-05 0.000200363 0.000536886)
(5.98641e-05 -8.26631e-06 0.000505612)
(3.75759e-06 6.11842e-05 0.000488203)
(-5.47399e-06 0.00011459 0.00051125)
(2.05923e-05 0.000200535 0.000524833)
(5.12967e-05 -3.63188e-05 0.000634287)
(-1.77238e-05 -7.07587e-06 0.000526166)
(1.33114e-05 9.23964e-05 0.000529607)
(1.62562e-05 0.000171603 0.00054035)
(0.000161056 3.89342e-05 0.00037583)
(0.000148154 9.75911e-05 0.000582811)
(1.14404e-05 0.000105055 0.000494665)
(-0.000130879 8.93332e-05 0.000492007)
(8.60302e-05 -9.95166e-05 0.000551822)
(0.00012747 3.73598e-05 0.000524518)
(0.000108699 0.000170893 0.00052398)
(0.00014591 0.000172269 0.000530511)
(5.98744e-05 -9.101e-05 0.000511839)
(9.43251e-05 4.65843e-05 0.0004875)
(0.000356464 -0.00025601 0.000660723)
(4.6845e-05 9.18936e-05 0.000558164)
(6.83228e-05 -0.000140529 0.000537784)
(3.05345e-05 -0.000110092 0.000481999)
(2.68605e-05 -1.7451e-05 0.000465666)
(6.5162e-05 5.44946e-05 0.000533431)
(0.00025813 -0.000388248 0.000517034)
(0.00100593 -0.000401937 0.000631183)
(4.99439e-05 -0.000216707 0.000341152)
(0.000441816 0.000467166 0.00025922)
(0.00154229 -5.68242e-06 -0.000645764)
(0.000166883 8.58973e-05 0.00048906)
(-0.000111938 -0.000304688 0.000149645)
(5.08621e-05 -8.04825e-05 0.000502556)
(-0.000122618 6.08966e-06 0.000583584)
(6.33484e-05 -0.000159984 0.000418917)
(0.000242458 0.000106825 0.000633713)
(-0.000544734 0.000409884 0.000537451)
(-8.65488e-05 -8.30559e-05 0.000477704)
(6.24057e-05 -0.000156994 0.000387686)
(0.000112783 -0.000463656 0.000372436)
(-0.000491456 -0.000379532 0.000489909)
(0 0 0)
(0 0 0)
(0 0 0)
(0 0 0)
(0 0 0)
(0 0 0)
(0 0 0)
(0 0 0)
(0 0 0)
(0 0 0)
(0 0 0)
(0 0 0)
(0 0 0)
(0 0 0)
(0 0 0)
(0 0 0)
(0 0 0)
(0 0 0)
(0 0 0)
(0 0 0)
(0 0 0)
(0 0 0)
(0 0 0)
(0 0 0)
(0 0 0)
(0 0 0)
(0 0 0)
(0 0 0)
(0 0 0)
(0 0 0)
(0 0 0)
(0 0 0)
(0 0 0)
(0 0 0)
(0 0 0)
(0 0 0)
(0 0 0)
(0 0 0)
(0 0 0)
(0 0 0)
(0 0 0)
(0 0 0)
(0 0 0)
(0 0 0)
(0 0 0)
(0 0 0)
(0 0 0)
(0 0 0)
(0 0 0)
(0 0 0)
(0 0 0)
(0 0 0)
(0 0 0)
(0 0 0)
(0 0 0)
(0 0 0)
(0 0 0)
(0 0 0)
(0 0 0)
(0 0 0)
(0 0 0)
(0 0 0)
(0 0 0)
(0 0 0)
(0 0 0)
(0 0 0)
(0 0 0)
(0 0 0)
(0 0 0)
(0 0 0)
(0 0 0)
(0 0 0)
(0 0 0)
(0 0 0)
(0 0 0)
(0 0 0)
(0 0 0)
(0 0 0)
(0 0 0)
(0 0 0)
(0 0 0)
(0 0 0)
(0 0 0)
(0 0 0)
(0 0 0)
(0 0 0)
(0 0 0)
(0 0 0)
(0 0 0)
(0 0 0)
(0 0 0)
(0 0 0)
(0 0 0)
(0 0 0)
(0 0 0)
(0 0 0)
(0 0 0)
(0 0 0)
(0 0 0)
(0 0 0)
(0 0 0)
(0 0 0)
(0 0 0)
(0 0 0)
(0 0 0)
(0 0 0)
(0 0 0)
(0 0 0)
(0 0 0)
(0 0 0)
(0 0 0)
(0 0 0)
(0 0 0)
(0 0 0)
(0 0 0)
(0 0 0)
(0 0 0)
(0 0 0)
(0 0 0)
(0 0 0)
(0 0 0)
(0 0 0)
(0 0 0)
(0 0 0)
(0 0 0)
(0 0 0)
(0 0 0)
(0 0 0)
(0 0 0)
(0 0 0)
(0 0 0)
(0 0 0)
(0 0 0)
(0 0 0)
(0 0 0)
(0 0 0)
(0 0 0)
(0 0 0)
(0 0 0)
(0 0 0)
(0 0 0)
(0 0 0)
(0 0 0)
(0 0 0)
(0 0 0)
(0 0 0)
(0 0 0)
(0 0 0)
(0 0 0)
(0 0 0)
(0 0 0)
(0 0 0)
(0 0 0)
(0 0 0)
(0 0 0)
(0 0 0)
(0 0 0)
(0 0 0)
(0 0 0)
(0 0 0)
(0 0 0)
(0 0 0)
(0 0 0)
(0 0 0)
(0 0 0)
(0 0 0)
(0 0 0)
(0 0 0)
(0 0 0)
(0 0 0)
(0 0 0)
(0 0 0)
(0 0 0)
(0 0 0)
(0 0 0)
(0 0 0)
(0 0 0)
(0 0 0)
(0 0 0)
(0 0 0)
(0 0 0)
(0 0 0)
(0 0 0)
(0 0 0)
(0 0 0)
(0 0 0)
(0 0 0)
(0 0 0)
(0 0 0)
(0 0 0)
(0 0 0)
(0 0 0)
(0 0 0)
(0 0 0)
(0 0 0)
(0 0 0)
(0 0 0)
(0 0 0)
(0 0 0)
(0 0 0)
(0 0 0)
(0 0 0)
(0 0 0)
(0 0 0)
(0 0 0)
(0 0 0)
(0 0 0)
(0 0 0)
(0 0 0)
(0 0 0)
(0 0 0)
(0 0 0)
(0 0 0)
(0 0 0)
(0 0 0)
(0 0 0)
(0 0 0)
(0 0 0)
(0 0 0)
(0 0 0)
(0 0 0)
(0 0 0)
(0 0 0)
(0 0 0)
(0 0 0)
(0 0 0)
(0 0 0)
(0 0 0)
(0 0 0)
(0 0 0)
(0 0 0)
(0 0 0)
(0 0 0)
(0 0 0)
(0 0 0)
(0 0 0)
(0 0 0)
(0 0 0)
(0 0 0)
(0 0 0)
(0 0 0)
(0 0 0)
(0 0 0)
(0 0 0)
(0 0 0)
(0 0 0)
(0 0 0)
(0 0 0)
(0 0 0)
(0 0 0)
(0 0 0)
(0 0 0)
(0 0 0)
(0 0 0)
(0 0 0)
(0 0 0)
(0 0 0)
(0 0 0)
(0 0 0)
(0 0 0)
(0 0 0)
(0 0 0)
(0 0 0)
(0 0 0)
(0 0 0)
(0 0 0)
(0 0 0)
(0 0 0)
(0 0 0)
(0 0 0)
(0 0 0)
(0 0 0)
(6.50055e-05 0.00027133 2.86375e-05)
(-1.10297e-05 1.34751e-05 4.87539e-05)
(-0.000143356 -2.59069e-05 3.55212e-05)
(-3.62905e-05 -3.01564e-05 4.12753e-05)
(4.26522e-05 2.95117e-05 9.25316e-05)
(0.000157471 3.05637e-05 -1.30302e-06)
(-1.56538e-05 3.79833e-05 9.61959e-05)
(3.74954e-06 -4.04014e-05 6.58502e-05)
(-2.93125e-05 4.84947e-05 3.11052e-05)
(9.4354e-05 2.91127e-05 1.69301e-05)
(-6.16602e-05 7.93445e-05 0.000139842)
(-0.000101035 -6.68277e-05 9.38761e-06)
(-3.5639e-06 -3.50105e-05 9.72153e-06)
(5.29813e-05 2.72024e-05 3.33672e-05)
(-6.36082e-05 3.05774e-05 8.83591e-05)
(1.29426e-05 -3.56874e-05 6.2687e-05)
(0.000127907 5.88364e-05 0.000168478)
(6.15589e-05 5.58359e-05 0.000169258)
(1.10585e-06 -3.66414e-05 0.000189056)
(-3.32824e-06 -5.21792e-05 0.000174996)
(3.12375e-05 5.00959e-05 0.000177641)
(5.13139e-05 2.10627e-05 0.000195173)
(-7.59189e-06 -1.5463e-05 0.000200479)
(-3.89793e-06 -0.000108905 0.000202807)
(-2.14986e-06 3.95165e-05 0.000122208)
(5.73445e-05 -2.67138e-06 0.000220147)
(4.89457e-05 -3.2122e-05 0.000329074)
(-4.87984e-05 -6.81166e-05 0.000196677)
(3.57543e-05 9.83239e-06 8.07382e-05)
(7.73759e-05 5.7863e-05 0.000144457)
(-7.37498e-05 -5.16476e-05 0.000234399)
(9.82076e-05 -1.61312e-05 0.000170346)
(0.000114001 1.95942e-05 0.00031449)
(4.66397e-05 -2.77855e-06 0.00029195)
(5.18078e-05 -5.40219e-05 0.000374881)
(3.8136e-05 -2.20792e-06 0.000274795)
(7.67092e-05 4.13279e-05 0.000291771)
(7.58171e-05 3.34065e-05 0.000251705)
(-1.27508e-06 -2.25499e-05 0.000281568)
(-1.28593e-05 -0.000122478 0.00033369)
(2.92326e-05 1.81192e-05 0.000212685)
(-4.82713e-05 8.65401e-05 0.000335447)
(4.47162e-05 2.53779e-05 0.000350217)
(-4.57081e-05 -6.50852e-05 0.000303726)
(-2.12625e-05 -1.11709e-05 0.000121579)
(-9.44748e-05 -1.6005e-05 0.000296248)
(2.58167e-07 -1.58153e-05 0.000293564)
(-1.59432e-05 -2.07306e-05 0.000264524)
(6.30633e-05 5.95548e-05 0.000507104)
(-1.62196e-05 6.27937e-05 0.000458762)
(-4.90362e-05 -5.82876e-05 0.000499384)
(2.74305e-05 -1.2432e-05 0.000452151)
(9.28466e-05 4.26355e-05 0.000366724)
(0.000122647 0.000152792 0.000336393)
(-2.64396e-05 -5.58345e-05 0.000420942)
(-4.61488e-05 -9.62223e-05 0.000399269)
(4.22924e-05 -1.29172e-05 0.000400722)
(-3.50639e-05 1.18357e-05 0.000422308)
(8.08933e-06 -8.99991e-05 0.00037269)
(-5.76437e-05 -8.80997e-05 0.000378938)
(-1.40547e-05 -1.67569e-05 0.000274784)
(-3.11624e-05 -2.43588e-05 0.000260335)
(-4.64436e-05 -4.31317e-05 0.000302721)
(-0.0001276 -3.68583e-05 0.000318711)
(3.22652e-05 -6.77914e-05 0.000506245)
(-7.50297e-05 3.38818e-05 0.000498026)
(-5.50623e-05 4.93908e-05 0.00051992)
(-2.44356e-05 8.38069e-05 0.000515966)
(-6.07144e-06 1.45013e-06 0.000464608)
(-5.02469e-05 4.77059e-06 0.000550642)
(-0.000147576 -2.19337e-05 0.00053647)
(-6.28684e-05 -4.95502e-05 0.000471334)
(-6.89172e-05 -9.48969e-05 0.000425426)
(0.000106926 -5.36232e-05 0.000401702)
(-1.51632e-05 -3.9602e-05 0.000520242)
(-1.48524e-05 -6.75749e-05 0.000403216)
(-9.5632e-06 -4.98833e-05 0.000406696)
(1.66379e-05 -1.17613e-05 0.000360756)
(-1.1391e-06 -2.32924e-05 0.000281709)
(1.8822e-05 -8.14884e-07 0.000328724)
(0.000105559 -6.28657e-05 0.000585925)
(5.3047e-05 -7.29833e-05 0.000530129)
(2.80126e-05 -6.64595e-05 0.000582722)
(-4.68501e-05 7.59293e-05 0.000556123)
(3.57417e-05 -0.000104588 0.000544207)
(7.10821e-05 -5.0829e-05 0.000596805)
(5.94646e-05 8.62813e-05 0.000669057)
(-2.79775e-05 1.31856e-05 0.00053985)
(8.86269e-06 -8.79329e-05 0.000429663)
(-1.84593e-05 -9.77614e-05 0.000485638)
(-5.22109e-05 3.82986e-05 0.000499701)
(1.24e-05 -4.83218e-05 0.000355255)
(2.58997e-05 -6.30825e-07 0.000360163)
(3.92925e-05 -4.04385e-05 0.000380223)
(-0.000130934 4.05828e-05 0.000285642)
(2.81539e-05 -3.10215e-05 0.000367161)
(-0.00213786 0.00162054 -0.000631602)
(7.57265e-05 -2.91528e-05 0.00028913)
(0.000943907 0.00130721 0.0010241)
(0.000381027 0.000525032 0.000967433)
(-0.00178776 0.0019467 -0.000728752)
(-0.000430197 -5.79323e-05 0.000446821)
(0.00016442 3.56452e-05 0.000574061)
(0.000782076 -0.000269611 0.000110885)
(0.00309895 -0.000158587 4.8065e-05)
(-3.08843e-05 -9.16981e-05 0.000318162)
(0.000179435 3.81864e-05 0.000435793)
(0.00015097 -0.000170217 0.00031121)
(-0.000149562 -4.09374e-05 0.000286799)
(6.35701e-05 -9.2122e-05 0.000305994)
(0.00207619 0.00119132 -0.000476286)
(7.84472e-05 -0.00017813 0.000351812)
(0 0 0)
(0 0 0)
(0 0 0)
(0 0 0)
(0 0 0)
(0 0 0)
(0 0 0)
(0 0 0)
(0 0 0)
(0 0 0)
(0 0 0)
(0 0 0)
(0 0 0)
(0 0 0)
(0 0 0)
(0 0 0)
(0 0 0)
(0 0 0)
(0 0 0)
(0 0 0)
(0 0 0)
(0 0 0)
(0 0 0)
(0 0 0)
(0 0 0)
(0 0 0)
(0 0 0)
(0 0 0)
(0 0 0)
(0 0 0)
(0 0 0)
(0 0 0)
(0 0 0)
(0 0 0)
(0 0 0)
(0 0 0)
(0 0 0)
(0 0 0)
(0 0 0)
(0 0 0)
(0 0 0)
(0 0 0)
(0 0 0)
(0 0 0)
(0 0 0)
(0 0 0)
(0 0 0)
(0 0 0)
(0 0 0)
(0 0 0)
(0 0 0)
(0 0 0)
(0 0 0)
(0 0 0)
(0 0 0)
(0 0 0)
(0 0 0)
(0 0 0)
(0 0 0)
(0 0 0)
(0 0 0)
(0 0 0)
(0 0 0)
(0 0 0)
(0 0 0)
(0 0 0)
(0 0 0)
(0 0 0)
(0 0 0)
(0 0 0)
(0 0 0)
(0 0 0)
(0 0 0)
(0 0 0)
(0 0 0)
(0 0 0)
(0 0 0)
(0 0 0)
(0 0 0)
(0 0 0)
(0 0 0)
(0 0 0)
(0 0 0)
(0 0 0)
(0 0 0)
(0 0 0)
(0 0 0)
(0 0 0)
(0 0 0)
(0 0 0)
(0 0 0)
(0 0 0)
(0 0 0)
(0 0 0)
(0 0 0)
(0 0 0)
(0 0 0)
(0 0 0)
(0 0 0)
(0 0 0)
(0 0 0)
(0 0 0)
(0 0 0)
(0 0 0)
(0 0 0)
(0 0 0)
(0 0 0)
(0 0 0)
(0 0 0)
(0 0 0)
(0 0 0)
(0 0 0)
(0 0 0)
(0 0 0)
(0 0 0)
(0 0 0)
(0 0 0)
(0 0 0)
(0 0 0)
(0 0 0)
(0 0 0)
(0 0 0)
(0 0 0)
(0 0 0)
(0 0 0)
(0 0 0)
(0 0 0)
(0 0 0)
(0 0 0)
(0 0 0)
(0 0 0)
(0 0 0)
(0 0 0)
(0 0 0)
(0 0 0)
(0 0 0)
(0 0 0)
(0 0 0)
(0 0 0)
(0 0 0)
(0 0 0)
(0 0 0)
(0 0 0)
(0 0 0)
(0 0 0)
(0 0 0)
(0 0 0)
(0 0 0)
(0 0 0)
(0 0 0)
(0 0 0)
(0 0 0)
(0 0 0)
(0 0 0)
(0 0 0)
(0 0 0)
(0 0 0)
(0 0 0)
(0 0 0)
(0 0 0)
(0 0 0)
(0 0 0)
(0 0 0)
(0 0 0)
(0 0 0)
(0 0 0)
(0 0 0)
(0 0 0)
(0 0 0)
(0 0 0)
(0 0 0)
(0 0 0)
(0 0 0)
(0 0 0)
(0 0 0)
(0 0 0)
(0 0 0)
(0 0 0)
(0 0 0)
(0 0 0)
(0 0 0)
(0 0 0)
(0 0 0)
(0 0 0)
(0 0 0)
(0 0 0)
(0 0 0)
(0 0 0)
(0 0 0)
(0 0 0)
(0 0 0)
(0 0 0)
(0 0 0)
(0 0 0)
(0 0 0)
(0 0 0)
(0 0 0)
(0 0 0)
(0 0 0)
(0 0 0)
(0 0 0)
(0 0 0)
(0 0 0)
(0 0 0)
(0 0 0)
(0 0 0)
(0 0 0)
(0 0 0)
(0 0 0)
(0 0 0)
(0 0 0)
(0 0 0)
(0 0 0)
(0 0 0)
(0 0 0)
(0 0 0)
(0 0 0)
(0 0 0)
(0 0 0)
(0 0 0)
(0 0 0)
(0 0 0)
(0 0 0)
(0 0 0)
(0 0 0)
(0 0 0)
(0 0 0)
(0 0 0)
(0 0 0)
(0 0 0)
(0 0 0)
(0 0 0)
(0 0 0)
(0 0 0)
(0 0 0)
(0 0 0)
(0 0 0)
(0 0 0)
(0 0 0)
(0 0 0)
(0 0 0)
(0 0 0)
(0 0 0)
(0 0 0)
(0 0 0)
(0 0 0)
(0 0 0)
(0 0 0)
(0 0 0)
(0 0 0)
(0 0 0)
(0 0 0)
(0 0 0)
(0 0 0)
(0 0 0)
(0 0 0)
(0 0 0)
(0 0 0)
(0 0 0)
(0 0 0)
(0 0 0)
(0 0 0)
(0 0 0)
(0 0 0)
(0 0 0)
(0 0 0)
(0 0 0)
(0 0 0)
(0 0 0)
(0 0 0)
(0 0 0)
(0 0 0)
(1.4291e-05 3.14106e-05 1.80432e-05)
(2.64585e-06 -5.09095e-05 3.46508e-05)
(-6.02584e-06 -5.98505e-06 4.03504e-05)
(-2.57885e-06 -1.64349e-05 2.20919e-05)
(4.43212e-05 0.000171093 -1.00372e-05)
(4.09982e-05 9.42486e-05 2.26516e-05)
(6.76289e-05 -9.74802e-06 4.96596e-05)
(2.75677e-05 -1.08432e-05 2.78686e-05)
(3.19398e-05 3.57415e-05 3.01507e-05)
(-4.53702e-06 2.51795e-05 6.4601e-05)
(-4.52127e-05 7.14569e-05 7.2426e-05)
(3.25352e-05 8.49429e-05 7.85941e-05)
(-3.95349e-06 -3.07801e-05 4.69446e-05)
(3.07933e-05 -3.80462e-05 6.04026e-05)
(0.000221168 -1.44531e-06 5.63983e-05)
(0.000134115 3.39118e-05 8.2708e-05)
(3.31236e-06 -3.96037e-05 4.51631e-05)
(4.30608e-05 -1.43461e-05 0.000105138)
(1.12522e-05 3.55978e-05 0.000105745)
(2.07677e-05 2.59802e-05 0.000126194)
(2.06413e-05 -2.5132e-06 -2.21427e-05)
(3.80573e-05 4.14758e-05 8.57175e-05)
(2.56081e-05 6.06066e-06 9.40886e-05)
(4.33692e-05 2.5475e-05 0.00010108)
(0.000103239 0.000102403 -0.000323019)
(4.30516e-05 -3.69142e-05 0.000219347)
(1.97944e-05 3.66856e-05 0.000186094)
(9.4848e-05 0.000120624 0.000150122)
(-5.68478e-06 -2.69487e-05 -8.87299e-05)
(3.20021e-05 -1.43451e-05 0.000169129)
(4.89942e-05 7.43438e-05 0.000216159)
(7.9381e-05 5.39367e-05 0.000185007)
(-2.85838e-05 -0.000147702 -0.000225556)
(-5.60093e-05 -3.5222e-05 0.00020172)
(4.56667e-05 -3.46587e-05 0.000206755)
(6.98729e-05 6.25805e-05 0.000237316)
(3.27329e-05 -5.67071e-05 2.04003e-05)
(3.50467e-05 -4.66818e-05 0.000155597)
(8.9985e-05 -5.39508e-05 0.000157338)
(9.31368e-06 6.73598e-06 0.000199127)
(-2.7495e-05 -4.85043e-05 0.000210643)
(3.52716e-05 -7.10917e-06 0.000260666)
(1.0259e-05 -1.02448e-05 0.000215254)
(5.25892e-05 3.72907e-05 0.000220946)
(1.64467e-05 -3.65648e-05 0.000143691)
(7.9582e-05 -1.77264e-05 0.000192666)
(0.000134876 1.34834e-05 0.000263343)
(0.000129712 2.15923e-05 0.000260869)
(-2.18568e-06 3.11358e-05 0.000146549)
(3.73411e-05 5.40802e-05 0.000306978)
(6.68732e-05 -2.6871e-06 0.000322978)
(6.27562e-05 5.98075e-05 0.000353871)
(-4.79769e-06 -7.77207e-06 0.000227391)
(3.86665e-06 -5.57009e-07 0.000259258)
(6.77343e-05 -1.67508e-05 0.000302943)
(3.62832e-05 6.92017e-05 0.000343762)
(-0.000125315 0.000117855 0.000277469)
(5.43121e-05 6.5136e-06 0.000304939)
(8.56048e-05 -6.51581e-05 0.00029083)
(5.5406e-05 2.51329e-05 0.000382153)
(6.54935e-05 2.1274e-05 0.000292008)
(0.000143226 -1.37176e-05 0.000300635)
(0.000108093 -6.96737e-05 0.000281773)
(5.83783e-05 -5.70262e-05 0.000367839)
(3.1146e-05 2.40448e-05 0.000243662)
(-3.30894e-05 -5.02037e-05 0.000313931)
(1.61432e-05 -4.79014e-05 0.000299473)
(4.80103e-05 9.66679e-05 0.000353565)
(1.83247e-05 0.000124444 0.000238097)
(-7.77111e-05 6.36698e-05 0.000283972)
(-3.05684e-05 6.28591e-05 0.000355552)
(3.19958e-05 2.80938e-05 0.000405371)
(5.34263e-05 7.4539e-05 0.00028252)
(-6.86954e-07 6.18725e-05 0.00024116)
(6.01033e-05 -6.53856e-05 0.00033879)
(8.66844e-05 -1.53756e-05 0.000509279)
(0.000110906 7.71279e-05 0.000381384)
(0.000139408 -2.56846e-05 0.000391187)
(9.89318e-05 -8.88654e-05 0.000494466)
(4.2711e-05 -4.92527e-05 0.000469931)
(-4.91596e-05 5.72818e-05 0.000223981)
(-6.8503e-05 -3.13792e-05 0.000243304)
(-0.000151486 -2.20181e-05 0.000188277)
(3.13043e-05 -8.56889e-05 4.93795e-05)
(3.95115e-05 3.92614e-05 0.000288829)
(2.00215e-05 -0.000215843 0.000261756)
(0.00019706 -9.01234e-05 0.000420778)
(6.17323e-05 -0.000220849 0.000522341)
(6.21703e-05 0.000114749 6.58779e-05)
(1.55043e-05 -0.000265511 8.97203e-05)
(0.000112503 -9.28125e-05 0.000222876)
(5.46116e-05 -7.18093e-05 0.000590703)
(2.83163e-05 -4.61062e-05 0.000349135)
(7.69108e-05 -0.000107445 0.000274254)
(0.000208154 -2.10297e-05 0.000425535)
(0.000166249 -4.84145e-05 0.000455601)
(-0.000860309 -0.00319547 -0.000692672)
(-0.0002746 0.000188956 -0.000164854)
(0.000740793 0.000119876 0.000218358)
(-6.62953e-05 -0.000386713 6.99002e-05)
(0.00241351 8.89894e-05 -0.00124591)
(0.00161665 0.000884911 0.000448422)
(0.00380424 0.000387389 -0.0017684)
(0.000230944 0.00523812 -0.00182032)
(0.00124396 0.00247587 -0.00149348)
(-0.000246262 -0.000887851 -0.000256408)
(-0.00198531 0.00572573 -0.00306793)
(-5.86853e-05 8.67918e-05 0.000660773)
(-0.000236329 -0.000208662 0.000325102)
(2.32853e-05 4.31169e-05 6.24952e-05)
(-0.000273719 0.000865814 0.00117624)
(3.89217e-05 0.000112549 0.000409789)
(0 0 0)
(0 0 0)
(0 0 0)
(0 0 0)
(0 0 0)
(0 0 0)
(0 0 0)
(0 0 0)
(0 0 0)
(0 0 0)
(0 0 0)
(0 0 0)
(0 0 0)
(0 0 0)
(0 0 0)
(0 0 0)
(0 0 0)
(0 0 0)
(0 0 0)
(0 0 0)
(0 0 0)
(0 0 0)
(0 0 0)
(0 0 0)
(0 0 0)
(0 0 0)
(0 0 0)
(0 0 0)
(0 0 0)
(0 0 0)
(0 0 0)
(0 0 0)
(0 0 0)
(0 0 0)
(0 0 0)
(0 0 0)
(0 0 0)
(0 0 0)
(0 0 0)
(0 0 0)
(0 0 0)
(0 0 0)
(0 0 0)
(0 0 0)
(0 0 0)
(0 0 0)
(0 0 0)
(0 0 0)
(0 0 0)
(0 0 0)
(0 0 0)
(0 0 0)
(0 0 0)
(0 0 0)
(0 0 0)
(0 0 0)
(0 0 0)
(0 0 0)
(0 0 0)
(0 0 0)
(0 0 0)
(0 0 0)
(0 0 0)
(0 0 0)
(0 0 0)
(0 0 0)
(0 0 0)
(0 0 0)
(0 0 0)
(0 0 0)
(0 0 0)
(0 0 0)
(0 0 0)
(0 0 0)
(0 0 0)
(0 0 0)
(0 0 0)
(0 0 0)
(0 0 0)
(0 0 0)
(0 0 0)
(0 0 0)
(0 0 0)
(0 0 0)
(0 0 0)
(0 0 0)
(0 0 0)
(0 0 0)
(0 0 0)
(0 0 0)
(0 0 0)
(0 0 0)
(0 0 0)
(0 0 0)
(0 0 0)
(0 0 0)
(0 0 0)
(0 0 0)
(0 0 0)
(0 0 0)
(0 0 0)
(0 0 0)
(0 0 0)
(0 0 0)
(0 0 0)
(0 0 0)
(0 0 0)
(0 0 0)
(0 0 0)
(0 0 0)
(0 0 0)
(0 0 0)
(0 0 0)
(0 0 0)
(0 0 0)
(0 0 0)
(0 0 0)
(0 0 0)
(0 0 0)
(0 0 0)
(0 0 0)
(0 0 0)
(0 0 0)
(0 0 0)
(0 0 0)
(0 0 0)
(0 0 0)
(0 0 0)
(0 0 0)
(0 0 0)
(0 0 0)
(0 0 0)
(0 0 0)
(0 0 0)
(0 0 0)
(0 0 0)
(0 0 0)
(0 0 0)
(0 0 0)
(0 0 0)
(0 0 0)
(0 0 0)
(0 0 0)
(0 0 0)
(0 0 0)
(0 0 0)
(0 0 0)
(0 0 0)
(0 0 0)
(0 0 0)
(0 0 0)
(0 0 0)
(0 0 0)
(0 0 0)
(0 0 0)
(0 0 0)
(0 0 0)
(0 0 0)
(0 0 0)
(0 0 0)
(0 0 0)
(0 0 0)
(0 0 0)
(0 0 0)
(0 0 0)
(0 0 0)
(0 0 0)
(0 0 0)
(0 0 0)
(0 0 0)
(0 0 0)
(0 0 0)
(0 0 0)
(0 0 0)
(0 0 0)
(0 0 0)
(0 0 0)
(0 0 0)
(0 0 0)
(0 0 0)
(0 0 0)
(0 0 0)
(0 0 0)
(0 0 0)
(0 0 0)
(0 0 0)
(0 0 0)
(0 0 0)
(0 0 0)
(0 0 0)
(0 0 0)
(0 0 0)
(0 0 0)
(0 0 0)
(0 0 0)
(0 0 0)
(0 0 0)
(0 0 0)
(0 0 0)
(0 0 0)
(0 0 0)
(0 0 0)
(0 0 0)
(0 0 0)
(0 0 0)
(0 0 0)
(0 0 0)
(0 0 0)
(0 0 0)
(0 0 0)
(0 0 0)
(0 0 0)
(0 0 0)
(0 0 0)
(0 0 0)
(0 0 0)
(0 0 0)
(0 0 0)
(0 0 0)
(0 0 0)
(0 0 0)
(0 0 0)
(0 0 0)
(0 0 0)
(0 0 0)
(0 0 0)
(0 0 0)
(0 0 0)
(0 0 0)
(0 0 0)
(0 0 0)
(0 0 0)
(0 0 0)
(0 0 0)
(0 0 0)
(0 0 0)
(0 0 0)
(0 0 0)
(0 0 0)
(0 0 0)
(0 0 0)
(0 0 0)
(0 0 0)
(0 0 0)
(0 0 0)
(0 0 0)
(0 0 0)
(0 0 0)
(0 0 0)
(0 0 0)
(0 0 0)
(0 0 0)
(0 0 0)
(0 0 0)
(0 0 0)
(0 0 0)
(0 0 0)
(0 0 0)
(0 0 0)
(0 0 0)
(0 0 0)
(0 0 0)
(0 0 0)
(0 0 0)
(0 0 0)
(0 0 0)
(0 0 0)
(0 0 0)
(0 0 0)
(0 0 0)
(0 0 0)
(0 0 0)
)
;

boundaryField
{
    inlet
    {
        type            zeroGradient;
    }
    outlet
    {
        type            zeroGradient;
    }
    wall
    {
        type            zeroGradient;
    }
    procBoundary2to0
    {
        type            processor;
        value           nonuniform List<vector> 
192
(
(3.2516e-05 -1.52661e-05 7.3066e-06)
(-2.01945e-05 -2.71599e-05 -9.81718e-06)
(-5.09264e-05 -6.59326e-05 3.02825e-05)
(3.27145e-05 2.14258e-05 1.94852e-05)
(-1.87656e-06 5.04087e-05 0.000130755)
(3.76146e-05 1.52424e-05 6.29223e-05)
(2.52242e-05 2.54735e-05 3.35337e-05)
(1.71372e-06 5.41511e-05 8.39922e-05)
(1.68626e-05 4.085e-05 0.000266006)
(-4.53499e-05 5.05206e-05 0.000199479)
(-3.48791e-05 3.34185e-05 0.000228586)
(3.07168e-06 6.33284e-06 0.000261704)
(4.48224e-05 1.48135e-05 0.000374259)
(-6.66817e-06 1.31853e-05 0.000438937)
(-1.38874e-05 -1.38547e-05 0.000402039)
(-6.96803e-05 9.76467e-05 0.000492632)
(4.99912e-06 3.60653e-05 0.000520888)
(-3.39192e-05 5.79676e-05 0.000559021)
(-0.000133516 4.70938e-05 0.000516497)
(-0.000133226 6.05957e-05 0.000582366)
(3.37053e-05 0.000210397 0.000577971)
(0.000135189 9.68108e-05 0.000637388)
(-2.99499e-05 4.18619e-05 0.000500612)
(-0.000152607 -8.52855e-06 0.000482354)
(-1.80721e-05 0.000226705 0.000481874)
(0.00017449 -8.31668e-05 0.000534508)
(0.000566709 -0.000463966 0.000407139)
(0.000444239 0.000434788 1.80137e-05)
(0 0 0)
(0 0 0)
(0 0 0)
(0 0 0)
(0 0 0)
(0 0 0)
(0 0 0)
(0 0 0)
(0 0 0)
(0 0 0)
(0 0 0)
(0 0 0)
(0 0 0)
(0 0 0)
(0 0 0)
(0 0 0)
(0 0 0)
(0 0 0)
(0 0 0)
(0 0 0)
(0 0 0)
(0 0 0)
(0 0 0)
(0 0 0)
(0 0 0)
(0 0 0)
(0 0 0)
(0 0 0)
(0 0 0)
(0 0 0)
(0 0 0)
(0 0 0)
(0 0 0)
(0 0 0)
(0 0 0)
(0 0 0)
(0 0 0)
(0 0 0)
(0 0 0)
(0 0 0)
(0 0 0)
(0 0 0)
(0 0 0)
(0 0 0)
(0 0 0)
(0 0 0)
(0 0 0)
(0 0 0)
(0 0 0)
(0 0 0)
(0 0 0)
(0 0 0)
(0 0 0)
(0 0 0)
(0 0 0)
(0 0 0)
(0 0 0)
(0 0 0)
(0 0 0)
(0 0 0)
(0 0 0)
(0 0 0)
(0 0 0)
(0 0 0)
(0 0 0)
(0 0 0)
(0 0 0)
(0 0 0)
(-9.62364e-07 1.69273e-05 5.22655e-05)
(-6.79503e-06 8.94917e-07 5.68927e-05)
(2.20787e-05 -1.47153e-05 5.34227e-05)
(-4.2418e-06 9.52332e-05 4.12627e-05)
(5.48146e-05 1.73127e-05 0.000163764)
(2.99821e-05 -3.84804e-05 0.000134525)
(3.11009e-05 2.01382e-05 0.000132175)
(6.73525e-05 9.11491e-05 0.000153998)
(9.85106e-06 1.02094e-05 0.000190048)
(1.93655e-05 3.07653e-05 0.000209724)
(2.98707e-05 4.98326e-05 0.000228004)
(5.25287e-05 8.77399e-05 0.00029715)
(2.37297e-06 1.4034e-05 0.000245029)
(8.76507e-06 2.44879e-05 0.000313535)
(-5.08559e-06 4.28541e-05 0.000268923)
(4.49802e-05 8.04681e-05 0.000398257)
(7.5942e-06 7.86391e-05 0.000258966)
(4.36252e-05 0.000117927 0.000349706)
(8.05507e-05 -4.27525e-05 0.000377931)
(3.05374e-05 -1.17686e-05 0.00048441)
(-0.000103967 0.000133611 0.000282061)
(-0.000130367 0.000174448 0.000282595)
(2.28294e-07 -1.14243e-05 0.000266143)
(-3.50771e-05 0.00018713 0.000105675)
(1.58361e-05 -0.000517104 8.15984e-05)
(0.00385142 -0.00213122 -0.00081405)
(-0.00120101 -0.00180383 -0.000189389)
(0.000482839 0.00149005 0.000856442)
(0 0 0)
(0 0 0)
(0 0 0)
(0 0 0)
(0 0 0)
(0 0 0)
(0 0 0)
(0 0 0)
(0 0 0)
(0 0 0)
(0 0 0)
(0 0 0)
(0 0 0)
(0 0 0)
(0 0 0)
(0 0 0)
(0 0 0)
(0 0 0)
(0 0 0)
(0 0 0)
(0 0 0)
(0 0 0)
(0 0 0)
(0 0 0)
(0 0 0)
(0 0 0)
(0 0 0)
(0 0 0)
(0 0 0)
(0 0 0)
(0 0 0)
(0 0 0)
(0 0 0)
(0 0 0)
(0 0 0)
(0 0 0)
(0 0 0)
(0 0 0)
(0 0 0)
(0 0 0)
(0 0 0)
(0 0 0)
(0 0 0)
(0 0 0)
(0 0 0)
(0 0 0)
(0 0 0)
(0 0 0)
(0 0 0)
(0 0 0)
(0 0 0)
(0 0 0)
(0 0 0)
(0 0 0)
(0 0 0)
(0 0 0)
(0 0 0)
(0 0 0)
(0 0 0)
(0 0 0)
(0 0 0)
(0 0 0)
(0 0 0)
(0 0 0)
(0 0 0)
(0 0 0)
(0 0 0)
(0 0 0)
)
;
    }
    procBoundary2to3
    {
        type            processor;
        value           nonuniform List<vector> 
192
(
(9.08228e-05 0.000107577 4.59055e-06)
(1.57696e-05 2.09143e-05 4.70666e-05)
(-3.29653e-05 6.79061e-06 5.51204e-05)
(-3.253e-05 0.000240881 3.95762e-05)
(-1.07429e-05 -0.000174923 -0.000259361)
(-3.16575e-05 -8.81655e-06 0.000202342)
(-0.00013021 1.84087e-05 0.000182416)
(-4.95768e-05 -1.07298e-05 0.000171737)
(-0.000132406 6.66434e-05 0.000272535)
(-4.25556e-05 0.00016976 0.000305125)
(9.74509e-06 0.000128062 0.000333227)
(3.01991e-05 0.000107404 0.000261595)
(-4.37255e-05 0.000153447 0.000474574)
(1.93194e-05 0.00017365 0.000564401)
(3.62219e-05 0.000186079 0.000482171)
(5.17866e-05 0.000153327 0.000450373)
(-7.16539e-05 0.000159321 0.000482)
(-1.68139e-05 0.000291596 0.000570749)
(7.32771e-05 0.000213754 0.000586445)
(0.00011763 0.000110918 0.000551399)
(-0.000160799 6.27199e-05 0.000496569)
(3.59711e-05 0.000157559 0.000527181)
(9.71826e-05 0.000159013 0.000691992)
(9.67696e-05 7.64282e-05 0.000633008)
(0.000738322 0.000244103 6.92993e-05)
(0.000186342 0.000337888 0.000403083)
(0.000150134 -0.000146872 0.00053365)
(-0.000308623 5.83833e-05 0.000609106)
(0 0 0)
(0 0 0)
(0 0 0)
(0 0 0)
(0 0 0)
(0 0 0)
(0 0 0)
(0 0 0)
(0 0 0)
(0 0 0)
(0 0 0)
(0 0 0)
(0 0 0)
(0 0 0)
(0 0 0)
(0 0 0)
(0 0 0)
(0 0 0)
(0 0 0)
(0 0 0)
(0 0 0)
(0 0 0)
(0 0 0)
(0 0 0)
(0 0 0)
(0 0 0)
(0 0 0)
(0 0 0)
(0 0 0)
(0 0 0)
(0 0 0)
(0 0 0)
(0 0 0)
(0 0 0)
(0 0 0)
(0 0 0)
(0 0 0)
(0 0 0)
(0 0 0)
(0 0 0)
(0 0 0)
(0 0 0)
(0 0 0)
(0 0 0)
(0 0 0)
(0 0 0)
(0 0 0)
(0 0 0)
(0 0 0)
(0 0 0)
(0 0 0)
(0 0 0)
(0 0 0)
(0 0 0)
(0 0 0)
(0 0 0)
(0 0 0)
(0 0 0)
(0 0 0)
(0 0 0)
(0 0 0)
(0 0 0)
(0 0 0)
(0 0 0)
(0 0 0)
(0 0 0)
(0 0 0)
(0 0 0)
(-7.81271e-05 -0.000109789 1.96865e-05)
(2.39042e-07 -3.59239e-05 2.16156e-05)
(-3.99161e-05 -3.51664e-05 5.94969e-05)
(-4.59512e-06 1.04736e-05 5.24146e-05)
(1.24355e-05 -1.37757e-05 0.000167187)
(-5.93585e-05 -9.65861e-06 8.50937e-05)
(-9.71827e-05 -0.000148392 0.000147349)
(-7.86506e-05 -2.71437e-05 0.000109822)
(-8.01261e-06 3.36481e-05 0.000211315)
(-6.60956e-05 3.44256e-05 0.000221052)
(-3.38584e-05 -5.34966e-05 0.000268287)
(-1.63784e-05 -0.000156166 0.000230378)
(1.99562e-05 5.32361e-05 0.000423647)
(-3.49195e-05 3.17469e-05 0.000365035)
(-7.90909e-05 -8.50984e-06 0.000331186)
(-0.000108132 7.49176e-06 0.000204996)
(1.73961e-05 1.70322e-05 0.000536612)
(-1.16583e-05 -1.57259e-05 0.000426989)
(-5.64727e-05 3.61101e-05 0.000377035)
(-0.000135059 2.19056e-05 0.000224585)
(2.47715e-05 0.00015179 0.000530042)
(1.40996e-05 -6.79298e-06 0.000452428)
(-7.84058e-05 2.17012e-05 0.000413699)
(-9.99606e-05 1.71471e-05 0.000190469)
(0.000300418 0.000118834 0.000565728)
(9.23864e-05 1.5125e-05 0.000387706)
(-0.000104522 3.88949e-05 0.000305505)
(1.72043e-05 2.389e-06 0.000156095)
(0 0 0)
(0 0 0)
(0 0 0)
(0 0 0)
(0 0 0)
(0 0 0)
(0 0 0)
(0 0 0)
(0 0 0)
(0 0 0)
(0 0 0)
(0 0 0)
(0 0 0)
(0 0 0)
(0 0 0)
(0 0 0)
(0 0 0)
(0 0 0)
(0 0 0)
(0 0 0)
(0 0 0)
(0 0 0)
(0 0 0)
(0 0 0)
(0 0 0)
(0 0 0)
(0 0 0)
(0 0 0)
(0 0 0)
(0 0 0)
(0 0 0)
(0 0 0)
(0 0 0)
(0 0 0)
(0 0 0)
(0 0 0)
(0 0 0)
(0 0 0)
(0 0 0)
(0 0 0)
(0 0 0)
(0 0 0)
(0 0 0)
(0 0 0)
(0 0 0)
(0 0 0)
(0 0 0)
(0 0 0)
(0 0 0)
(0 0 0)
(0 0 0)
(0 0 0)
(0 0 0)
(0 0 0)
(0 0 0)
(0 0 0)
(0 0 0)
(0 0 0)
(0 0 0)
(0 0 0)
(0 0 0)
(0 0 0)
(0 0 0)
(0 0 0)
(0 0 0)
(0 0 0)
(0 0 0)
(0 0 0)
)
;
    }
}


// ************************************************************************* //
