/*--------------------------------*- C++ -*----------------------------------*\
| =========                 |                                                 |
| \\      /  F ield         | OpenFOAM: The Open Source CFD Toolbox           |
|  \\    /   O peration     | Version:  2506                                  |
|   \\  /    A nd           | Website:  www.openfoam.com                      |
|    \\/     M anipulation  |                                                 |
\*---------------------------------------------------------------------------*/
FoamFile
{
    version     2.0;
    format      ascii;
    arch        "LSB;label=32;scalar=64";
    class       volScalarField;
    location    "0.02";
    object      Ksl;
}
// * * * * * * * * * * * * * * * * * * * * * * * * * * * * * * * * * * * * * //

dimensions      [1 -3 -1 0 0 0 0];

internalField   nonuniform List<scalar> 
4608
(
175171
210132
208214
137756
218298
132044
207856
190083
195211
135420
158438
206643
119665
235842
183918
208707
206219
263146
247767
201157
178676
170726
226750
125444
236646
86559.9
197885
104519
205543
268416
268381
540627
155578
336776
342207
167512
186722
165628
119023
152617
220802
185293
181640
287157
146163
241664
212175
178776
121586
231135
162863
306420
126723
226832
182878
176420
248765
234452
244210
173188
239862
241113
207347
122574
236229
151624
278590
324339
331003
193488
249848
262218
202985
277363
211933
277340
294554
189299
233249
274773
213445
178345
374202
304673
359526
307153
232364
245188
223978
231053
263571
208522
253977
375951
168572
196542
315449
230022
162631
192617
208293
198281
251949
320332
321748
284668
216926
241281
365997
232848
234359
228888
260917
211490
194003
242244
284840
273437
169894
266119
280617
246213
185535
389209
202531
117636
223371
353699
211899
208936
263705
245688
207176
233997
261473
223033
233114
302441
232782
291473
271314
199303
253633
309896
279137
148467
284773
145405
301096
182828
219128
243183
184380
389194
313897
146738
222088
296160
251316
245768
527612
162434
266347
276371
259452
319074
186608
142095
245669
268300
269158
502540
137260
265749
215977
229368
217942
218305
325928
251201
420959
224916
236097
233257
208870
208433
232798
232923
217939
190478
279861
235546
128290
193820
168466
174656
295472
205627
277183
221284
302549
229601
213966
233690
238959
240115
212516
171627
176051
289220
289544
248133
262842
241844
369041
227194
260236
243501
326320
470283
203003
199475
209556
289202
152793
219568
166346
204385
251652
316481
250564
206880
207747
255705
243469
294348
196925
248665
406022
283739
279328
284003
248313
176101
326011
209864
276356
295556
186476
201507
274154
676397
192845
217673
215798
211765
202103
311065
253221
177402
287035
319137
208865
281521
166522
245324
145276
124207
385093
281280
223188
210264
222268
233716
302417
258328
200380
225159
159304
223564
264117
261973
453758
237297
372714
148232
284995
145187
298858
203764
155696
240106
138723
463635
208013
295377
224263
332267
247524
194900
225318
315763
211218
239337
112072
312042
183194
268603
252298
271253
333941
238984
183054
382500
276490
200536
292316
245344
161474
293638
257596
240994
206896
277062
170107
209472
288268
235649
177042
258032
187749
289065
213740
294511
259510
197668
203262
272961
258709
184197
228424
152124
272858
330651
384033
176301
190285
131320
312936
215261
332189
182842
159228
373148
321427
236919
281894
118815
243222
327882
234717
261777
320195
351782
163483
229710
228407
168019
115477
312120
219040
197015
246728
210484
223683
200522
236683
207053
287519
570807
104962
211336
330820
291646
16203.9
37729.9
36092.4
43952.7
42056.6
53309.2
81545
37188
53289.1
29520.2
106344
58470.5
150622
130098
89265.1
62146.1
47140.2
49199
62308.2
85371.9
79000.5
71346.2
147786
82571.4
24203.8
16304.1
61762.6
81472.6
160933
93661.4
125804
29739.1
35756.2
64838.7
38236.1
65586
35564.1
83767
46194.7
22747.8
53337
35484.6
50449
65398
71806.1
86727.5
38948.7
15226.6
12398.6
26604
96687.5
40240
38555.1
39155.6
33547.6
24803.6
37435.4
38747.9
76099.4
21018.2
48892.6
31168.5
19257
36928.6
0
0
0
0
0
0
0
0
0
0
0
0
0
0
0
0
0
0
0
0
0
0
524.456
0
0
0
0
0
0
446.893
393.614
0
0
0
0
0
0
0
0
0
0
0
0
0
0
0
0
0
0
0
0
0
0
0
0
0
0
0
0
0
0
0
0
0
0
0
0
0
0
0
0
0
0
0
0
0
0
0
0
0
0
0
0
0
0
0
0
0
0
0
0
0
0
0
0
0
0
0
0
0
0
0
0
0
0
0
0
0
0
0
0
0
0
0
0
0
0
0
0
0
0
0
0
0
0
0
0
0
0
0
0
0
0
0
0
0
0
0
0
0
0
0
0
0
0
0
0
0
0
0
0
0
0
0
0
0
0
0
0
0
0
0
0
0
0
0
0
0
0
0
0
0
0
0
0
0
0
0
0
0
0
0
0
0
0
0
0
0
0
0
0
0
0
0
0
0
0
0
0
0
0
0
0
0
0
0
0
0
0
0
0
0
0
0
0
0
0
0
0
0
0
0
0
0
0
0
0
0
0
0
0
0
0
0
0
0
0
0
0
0
0
0
0
0
0
0
0
0
0
0
0
0
0
0
0
0
0
0
0
0
0
0
0
0
0
0
0
0
0
0
0
0
0
0
0
0
0
0
0
0
0
0
0
0
0
0
0
0
0
0
0
0
0
0
0
0
0
0
0
0
0
0
0
0
0
0
0
0
0
0
0
0
0
0
0
0
0
0
0
0
0
0
0
0
0
0
0
0
0
0
0
0
0
0
0
0
0
0
0
0
0
0
0
0
0
0
0
0
0
0
0
0
0
0
0
0
0
0
0
0
0
0
0
0
0
0
0
0
0
0
0
0
0
0
0
0
0
0
0
0
0
0
0
0
0
0
0
0
0
0
0
0
0
0
0
0
0
0
0
0
0
0
0
0
0
0
0
0
0
0
0
0
0
0
0
0
0
0
0
0
0
0
0
0
0
0
0
0
0
0
0
0
0
0
0
0
0
0
0
0
0
0
0
0
0
0
0
0
0
0
0
0
0
0
0
0
0
0
0
0
0
0
0
0
0
0
0
0
0
0
0
0
0
0
0
0
0
0
0
0
0
0
0
0
0
0
0
0
0
0
0
0
0
0
0
0
0
0
0
0
0
0
0
0
0
0
0
0
0
0
0
0
0
0
0
0
0
0
0
0
0
0
0
0
0
0
0
0
0
0
0
0
0
0
0
0
0
0
0
0
0
0
0
0
0
0
0
0
0
0
0
0
0
0
0
0
0
0
0
0
0
0
0
0
0
0
0
0
0
0
0
0
0
0
0
0
0
0
0
0
0
0
0
0
0
0
0
0
0
0
0
0
0
0
0
0
0
0
0
0
0
0
0
0
0
0
0
0
0
0
0
0
0
0
0
0
0
0
0
0
0
0
0
0
0
0
0
0
0
0
0
0
0
0
0
0
0
0
0
0
0
0
0
0
0
0
0
0
0
0
0
0
0
0
0
0
0
0
0
0
0
0
0
0
0
0
0
0
0
0
0
0
0
0
0
0
0
0
0
0
0
0
0
0
0
0
0
0
0
0
0
0
0
0
0
0
0
0
0
0
0
0
0
0
0
0
0
0
0
0
0
0
0
0
0
0
0
0
0
0
0
0
0
0
0
0
0
0
0
0
0
0
0
0
0
0
0
0
0
0
0
0
0
0
0
0
0
0
0
0
0
0
0
0
0
0
0
0
0
0
0
0
0
0
0
0
0
0
0
0
0
0
0
0
0
0
0
0
0
0
0
0
0
0
0
0
0
0
0
0
0
0
0
0
0
0
0
0
0
0
0
0
0
0
0
0
0
0
0
0
0
0
0
0
0
0
0
0
0
0
0
0
0
0
0
0
0
0
0
0
0
0
0
0
0
0
0
0
0
0
0
0
0
0
0
0
0
0
0
0
0
0
0
0
0
0
0
0
0
0
0
0
0
0
0
0
0
0
0
0
0
0
0
0
0
0
0
0
0
0
0
0
0
0
0
0
0
0
0
0
0
0
0
0
0
0
0
0
0
0
0
0
0
0
0
0
0
0
0
0
0
0
0
0
0
0
0
0
0
0
0
0
0
0
0
0
0
0
0
0
0
0
0
0
0
0
0
0
0
0
0
0
0
0
0
0
0
0
0
0
0
0
0
0
0
0
0
0
0
0
0
0
0
0
0
0
0
0
0
0
0
0
0
0
0
0
0
0
0
0
0
0
0
0
0
0
0
0
0
0
0
0
0
0
0
0
0
0
0
0
0
0
0
0
0
0
0
0
0
0
0
0
0
0
0
0
0
0
0
0
0
0
0
0
0
0
0
0
0
0
0
0
0
0
0
0
0
0
0
0
0
0
0
0
0
0
0
0
0
0
0
0
0
0
0
0
0
0
0
0
0
0
0
0
0
0
0
0
0
0
0
0
0
0
0
0
0
0
0
0
0
0
0
0
0
0
0
0
184371
365548
187754
123070
186101
178414
179560
215315
242662
158228
163653
223397
210095
247620
190702
184519
139099
179668
149344
177010
280121
248623
174862
208092
236157
168055
190307
147872
229979
182619
139887
204083
295250
93226.9
299404
340490
211159
243358
190040
260415
303471
308867
198288
318923
219644
179234
277784
311826
282011
186591
187655
193238
206031
232771
192029
302776
182466
297250
179207
259015
233060
276687
306803
146009
260381
327348
257260
152812
302662
254264
178915
104653
196756
324330
217796
256440
197880
254292
287513
276250
169757
197687
203880
279584
272344
149795
218586
299514
225589
258885
201727
259670
176255
223117
192897
175348
131871
279638
144018
282513
209003
259983
264067
304116
542423
184037
322883
271971
313710
169312
216586
328935
228427
298433
206328
93386.1
287646
239083
140062
187620
258439
203651
302024
151972
250032
211036
166953
214103
238914
181568
231903
315573
235357
256246
148417
370037
219742
158801
199117
306908
206673
304470
330097
200519
340291
269626
210907
277300
213329
178575
213001
384512
205772
302941
242073
214131
251794
216962
226327
79630
75962.5
265118
136147
333164
165681
221585
160286
268904
221340
295999
221058
227672
303518
224349
132462
128991
265059
155062
295298
310110
122643
282520
160092
299982
280265
248884
128569
158606
359413
230751
200516
194753
68093.8
26141.7
45789.2
65778.2
27942
30392.8
37366.5
34213.5
78162
57655.9
82332.9
60910.8
46972.3
20280.8
17404.4
31271.8
53904.6
25298.8
36838.7
43771.8
28744.2
59018.9
63069.8
50461
48145.8
50141.1
80191.7
126323
44193.6
49329.2
85144.9
46549.7
0
0
0
0
0
0
0
0
0
0
0
0
0
0
0
0
0
0
0
0
0
0
0
0
0
0
0
0
0
0
0
0
0
0
0
0
0
0
0
0
0
0
0
0
0
0
0
0
0
0
0
0
0
0
0
0
0
0
0
0
0
0
0
0
0
0
0
0
0
0
0
0
0
0
0
0
0
0
0
0
0
0
0
0
0
0
0
0
0
0
0
0
0
0
0
0
0
0
0
0
0
0
0
0
0
0
0
0
0
0
0
0
0
0
0
0
0
0
0
0
0
0
0
0
0
0
0
0
0
0
0
0
0
0
0
0
0
0
0
0
0
0
0
0
0
0
0
0
0
0
0
0
0
0
0
0
0
0
0
0
0
0
0
0
0
0
0
0
0
0
0
0
0
0
0
0
0
0
0
0
0
0
0
0
0
0
0
0
0
0
0
0
0
0
0
0
0
0
0
0
0
0
0
0
0
0
0
0
0
0
0
0
0
0
0
0
0
0
0
0
0
0
0
0
0
0
0
0
0
0
0
0
0
0
0
0
0
0
0
0
0
0
0
0
0
0
0
0
0
0
0
0
0
0
0
0
0
0
0
0
0
0
0
0
0
0
0
0
0
0
0
0
0
0
0
0
0
0
0
0
0
0
0
0
0
0
0
0
0
0
0
0
0
0
0
0
0
0
0
0
0
0
0
0
0
0
0
0
0
0
0
0
0
0
0
0
0
0
0
0
0
0
0
0
0
0
0
0
0
0
0
0
0
0
0
0
0
0
0
0
0
0
0
0
0
0
0
0
0
0
0
0
0
0
0
0
0
0
0
0
0
0
0
0
0
0
0
0
0
0
0
0
0
0
0
0
0
0
0
0
0
0
0
0
0
0
0
0
0
0
0
0
0
0
0
0
0
0
0
0
0
0
0
0
0
0
0
0
0
0
0
0
0
0
0
0
0
0
0
0
0
0
0
0
0
0
0
0
0
0
0
0
0
0
0
0
0
0
0
0
0
0
0
0
0
0
0
0
0
0
0
0
0
0
0
0
0
0
0
0
0
0
0
0
0
0
0
0
0
0
0
0
0
0
0
0
0
0
0
0
0
0
0
0
0
0
0
0
0
0
0
0
0
0
0
0
0
0
0
0
0
0
0
0
0
0
0
0
0
0
0
0
0
0
0
0
0
0
0
0
0
0
0
0
0
0
0
0
0
0
0
0
0
0
0
0
0
0
0
0
0
0
0
0
244765
148365
152887
251785
185712
229597
192520
304647
198863
189921
127810
219482
165213
223356
290611
156203
226858
136122
144462
226648
155872
198130
187516
246617
250693
135717
143854
174383
143601
197936
133558
237273
183902
218249
244252
106289
209731
122387
229283
287493
192744
291293
315985
350589
142626
242674
348352
239175
211489
257301
133588
361001
284836
240113
122053
289210
125395
136494
333736
213530
123843
270091
150873
231086
219496
230221
234298
219071
177921
387358
186556
218531
257391
150810
244111
208431
331838
172222
193072
164499
203688
197811
226580
269420
177842
187658
292211
261149
201619
219331
217970
241419
306065
275979
289756
175530
243921
230883
160428
270887
219424
163680
280039
151803
236792
211030
214151
361833
283822
410555
248125
216626
156956
98822.2
198953
296209
191429
299519
218834
307625
235736
208978
250961
202446
186268
230323
221875
415317
189157
178156
177428
313650
246497
150106
437937
187692
186938
312683
214206
384191
151986
253970
235258
333068
203919
204341
200628
219311
238049
181475
225022
279426
247942
208865
272386
248401
138061
445050
155840
415894
70460.8
201775
303474
135896
227819
273240
268217
281434
193843
178495
203956
203394
205813
192865
269193
148417
257822
199184
222111
271267
227035
301243
204768
242141
232501
180843
359229
364952
269868
185220
276579
442601
57318.8
57941.8
18865.8
24608.8
99802.9
71706.9
91211.8
33199.6
133881
59853.3
70683.2
55107.7
76768.5
113775
76139.6
48973.6
63582.3
52871.7
38725.6
60822.4
85059.9
45295.9
28883.2
40939.5
98674.5
27789.1
48677.7
34298.7
72146.4
141113
34319.1
51505.7
0
373.036
0
0
0
0
0
0
0
0
0
0
0
0
0
0
0
0
0
0
0
0
0
0
0
0
0
0
0
0
0
0
0
0
0
0
0
0
0
0
0
0
0
0
0
0
0
0
0
0
0
0
0
0
0
0
0
0
0
0
0
0
0
0
0
0
0
0
0
0
0
0
0
0
0
0
0
0
0
0
0
0
0
0
0
0
0
0
0
0
0
0
0
0
0
0
0
0
0
0
0
0
0
0
0
0
0
0
0
0
0
0
0
0
0
0
0
0
0
0
0
0
0
0
0
0
0
0
0
0
0
0
0
0
0
0
0
0
0
0
0
0
0
0
0
0
0
0
0
0
0
0
0
0
0
0
0
0
0
0
0
0
0
0
0
0
0
0
0
0
0
0
0
0
0
0
0
0
0
0
0
0
0
0
0
0
0
0
0
0
0
0
0
0
0
0
0
0
0
0
0
0
0
0
0
0
0
0
0
0
0
0
0
0
0
0
0
0
0
0
0
0
0
0
0
0
0
0
0
0
0
0
0
0
0
0
0
0
0
0
0
0
0
0
0
0
0
0
0
0
0
0
0
0
0
0
0
0
0
0
0
0
0
0
0
0
0
0
0
0
0
0
0
0
0
0
0
0
0
0
0
0
0
0
0
0
0
0
0
0
0
0
0
0
0
0
0
0
0
0
0
0
0
0
0
0
0
0
0
0
0
0
0
0
0
0
0
0
0
0
0
0
0
0
0
0
0
0
0
0
0
0
0
0
0
0
0
0
0
0
0
0
0
0
0
0
0
0
0
0
0
0
0
0
0
0
0
0
0
0
0
0
0
0
0
0
0
0
0
0
0
0
0
0
0
0
0
0
0
0
0
0
0
0
0
0
0
0
0
0
0
0
0
0
0
0
0
0
0
0
0
0
0
0
0
0
0
0
0
0
0
0
0
0
0
0
0
0
0
0
0
0
0
0
0
0
0
0
0
0
0
0
0
0
0
0
0
0
0
0
0
0
0
0
0
0
0
0
0
0
0
0
0
0
0
0
0
0
0
0
0
0
0
0
0
0
0
0
0
0
0
0
0
0
0
0
0
0
0
0
0
0
0
0
0
0
0
0
0
0
0
0
0
0
0
0
0
0
0
0
0
0
0
0
0
0
0
0
0
0
0
0
0
0
0
0
0
0
0
0
0
0
0
0
0
0
0
0
0
0
0
0
0
0
0
0
0
0
0
0
0
0
0
0
162937
178762
248758
224532
175807
223365
151014
202221
137127
160657
177466
187625
212753
255021
209237
204693
177978
323021
179441
226139
146313
185088
182275
186818
162451
245557
135951
297479
144621
205492
186125
235426
155605
229938
223249
237162
204864
219172
154124
228856
251642
204849
207049
254379
262122
161805
322388
266533
204468
273380
229669
228228
184565
223463
202222
106610
216221
389970
172751
227051
258387
250602
316584
234537
233966
162904
249351
200946
209400
201832
216799
152495
279562
181854
189011
220205
203476
222264
215253
234758
211876
171895
266196
183604
287540
224596
147284
340513
357105
238099
251404
282820
294799
271011
199512
294571
149319
251254
222670
263829
194899
194894
224722
151824
226385
156103
278666
153731
287255
281280
271528
292198
201555
322909
309402
255988
165183
153092
272262
167532
256305
202929
192225
177759
386921
292360
240822
227622
196807
225563
215324
212980
172192
256975
152830
192804
256396
233848
139057
266840
246834
369859
169742
321424
158187
198418
265921
397395
174440
188829
185896
407293
216927
299718
278638
248283
238838
170692
338891
189611
181323
242941
239530
208066
203519
165995
235385
184780
378572
249356
204720
241490
228866
251571
211396
201637
121415
306593
240128
251166
238569
251106
465713
188359
280154
191175
173547
294940
99606
204327
163824
245683
35054.9
37240.7
53606.7
45200.2
53089.5
42025.7
46995.3
139318
54481.5
31300.8
28854.8
23231.5
50103.2
55282.3
70088.2
76184.2
75663.5
22560.8
42390.4
32852.1
40548.8
19770.5
28985
76724.6
48264.8
20328.4
34995.6
40246.6
42154.8
65801
17480.4
35694.2
0
0
0
0
0
0
0
0
0
0
0
0
0
0
0
0
0
0
0
0
0
0
0
0
0
0
0
0
0
0
0
0
0
0
0
0
0
0
0
0
0
0
0
0
0
0
0
0
0
0
0
0
0
0
0
0
0
0
0
0
0
0
0
0
0
0
0
0
0
0
0
0
0
0
0
0
0
0
0
0
0
0
0
0
0
0
0
0
0
0
0
0
0
0
0
0
0
0
0
0
0
0
0
0
0
0
0
0
0
0
0
0
0
0
0
0
0
0
0
0
0
0
0
0
0
0
0
0
0
0
0
0
0
0
0
0
0
0
0
0
0
0
0
0
0
0
0
0
0
0
0
0
0
0
0
0
0
0
0
0
0
0
0
0
0
0
0
0
0
0
0
0
0
0
0
0
0
0
0
0
0
0
0
0
0
0
0
0
0
0
0
0
0
0
0
0
0
0
0
0
0
0
0
0
0
0
0
0
0
0
0
0
0
0
0
0
0
0
0
0
0
0
0
0
0
0
0
0
0
0
0
0
0
0
0
0
0
0
0
0
0
0
0
0
0
0
0
0
0
0
0
0
0
0
0
0
0
0
0
0
0
0
0
0
0
0
0
0
0
0
0
0
0
0
0
0
0
0
0
0
0
0
0
0
0
0
0
0
0
0
0
0
0
0
0
0
0
0
0
0
0
0
0
0
0
0
0
0
0
0
0
0
0
0
0
0
0
0
0
0
0
0
0
0
0
0
0
0
0
0
0
0
0
0
0
0
0
0
0
0
0
0
0
0
0
0
0
0
0
0
0
0
0
0
0
0
0
0
0
0
0
0
0
0
0
0
0
0
0
0
0
0
0
0
0
0
0
0
0
0
0
0
0
0
0
0
0
0
0
0
0
0
0
0
0
0
0
0
0
0
0
0
0
0
0
0
0
0
0
0
0
0
0
0
0
0
0
0
0
0
0
0
0
0
0
0
0
0
0
0
0
0
0
0
0
0
0
0
0
0
0
0
0
0
0
0
0
0
0
0
0
0
0
0
0
0
0
0
0
0
0
0
0
0
0
0
0
0
0
0
0
0
0
0
0
0
0
0
0
0
0
0
0
0
0
0
0
0
0
0
0
0
0
0
0
0
0
0
0
0
0
0
0
0
0
0
0
0
0
0
0
0
0
0
0
0
0
0
0
0
0
0
0
0
0
0
0
0
0
0
0
0
0
0
0
0
0
0
0
0
0
0
0
0
220709
200331
169448
211871
187103
181469
204662
147004
283410
196164
160879
179502
145396
290523
120487
138976
217552
153606
274798
248207
191071
236378
171139
153746
135715
209340
153666
268967
332804
142996
321435
189845
175163
178510
345625
125828
232018
315261
306621
191400
248991
225919
325750
249862
209497
252593
232185
189155
270663
186913
144277
264760
186168
240494
220887
172225
399965
217887
117099
276686
220045
257548
202286
182947
390828
234825
276503
273589
200707
240108
145521
220691
215328
183365
215054
203295
186270
187973
290199
295972
368815
329796
238009
165915
198572
258217
213878
281272
148175
338816
148632
196293
223880
148661
266708
164347
258017
260736
266033
161322
213505
248751
190621
272411
243467
231987
265479
167965
228922
296398
158799
301978
301683
277217
206296
243880
266781
203824
198287
236032
171784
229529
226486
150409
191492
244613
251763
162936
219055
399810
214193
128123
223218
315161
208186
201033
249146
196619
243584
247651
260768
202438
205979
198400
295426
208631
261281
176235
273646
297601
220768
226851
192853
352601
197991
191071
152894
166560
279446
193643
126152
327748
260141
202222
103646
227398
186799
211503
255687
277885
214912
170783
225313
250478
252520
328897
210846
195225
187040
196549
194096
258570
158486
175945
143639
364114
176990
308193
338596
216995
221046
200626
72814.7
95655.6
81988.1
46277.4
53426.7
35890.2
62631.2
109248
21835.5
22158.1
31625.3
155035
55383.3
23447.8
66245.1
42977.1
37047.9
30079.6
40556.5
39607.8
24396.4
43655.6
22304.1
24894.5
44360.1
19925.6
31769.4
34580.8
12072.1
86301.8
37674.1
42818.8
0
0
0
0
0
0
0
0
0
0
0
299.132
0
0
0
0
0
0
0
0
0
0
0
0
0
0
0
0
0
0
0
0
0
0
0
0
0
0
0
0
0
0
0
0
0
0
0
0
0
0
0
0
0
0
0
0
0
0
0
0
0
0
0
0
0
0
0
0
0
0
0
0
0
0
0
0
0
0
0
0
0
0
0
0
0
0
0
0
0
0
0
0
0
0
0
0
0
0
0
0
0
0
0
0
0
0
0
0
0
0
0
0
0
0
0
0
0
0
0
0
0
0
0
0
0
0
0
0
0
0
0
0
0
0
0
0
0
0
0
0
0
0
0
0
0
0
0
0
0
0
0
0
0
0
0
0
0
0
0
0
0
0
0
0
0
0
0
0
0
0
0
0
0
0
0
0
0
0
0
0
0
0
0
0
0
0
0
0
0
0
0
0
0
0
0
0
0
0
0
0
0
0
0
0
0
0
0
0
0
0
0
0
0
0
0
0
0
0
0
0
0
0
0
0
0
0
0
0
0
0
0
0
0
0
0
0
0
0
0
0
0
0
0
0
0
0
0
0
0
0
0
0
0
0
0
0
0
0
0
0
0
0
0
0
0
0
0
0
0
0
0
0
0
0
0
0
0
0
0
0
0
0
0
0
0
0
0
0
0
0
0
0
0
0
0
0
0
0
0
0
0
0
0
0
0
0
0
0
0
0
0
0
0
0
0
0
0
0
0
0
0
0
0
0
0
0
0
0
0
0
0
0
0
0
0
0
0
0
0
0
0
0
0
0
0
0
0
0
0
0
0
0
0
0
0
0
0
0
0
0
0
0
0
0
0
0
0
0
0
0
0
0
0
0
0
0
0
0
0
0
0
0
0
0
0
0
0
0
0
0
0
0
0
0
0
0
0
0
0
0
0
0
0
0
0
0
0
0
0
0
0
0
0
0
0
0
0
0
0
0
0
0
0
0
0
0
0
0
0
0
0
0
0
0
0
0
0
0
0
0
0
0
0
0
0
0
0
0
0
0
0
0
0
0
0
0
0
0
0
0
0
0
0
0
0
0
0
0
0
0
0
0
0
0
0
0
0
0
0
0
0
0
0
0
0
0
0
0
0
0
0
0
0
0
0
0
0
0
0
0
0
0
0
0
0
0
0
0
0
0
0
0
0
0
0
0
0
0
0
0
0
0
0
0
0
0
0
0
0
0
0
0
0
0
0
0
0
0
0
0
0
0
0
0
)
;

boundaryField
{
    inlet
    {
        type            zeroGradient;
    }
    outlet
    {
        type            zeroGradient;
    }
    wall
    {
        type            zeroGradient;
    }
}


// ************************************************************************* //
