/*--------------------------------*- C++ -*----------------------------------*\
| =========                 |                                                 |
| \\      /  F ield         | OpenFOAM: The Open Source CFD Toolbox           |
|  \\    /   O peration     | Version:  2506                                  |
|   \\  /    A nd           | Website:  www.openfoam.com                      |
|    \\/     M anipulation  |                                                 |
\*---------------------------------------------------------------------------*/
FoamFile
{
    version     2.0;
    format      ascii;
    arch        "LSB;label=32;scalar=64";
    class       volVectorField;
    location    "0.02";
    object      Us;
}
// * * * * * * * * * * * * * * * * * * * * * * * * * * * * * * * * * * * * * //

dimensions      [0 1 -1 0 0 0 0];

internalField   nonuniform List<vector> 
4608
(
(-5.79272e-06 -7.47915e-05 6.17349e-05)
(-9.43756e-06 -8.01753e-06 6.83043e-05)
(-6.24496e-05 -6.99368e-06 7.3709e-05)
(5.40945e-05 2.58264e-05 1.05132e-05)
(7.91562e-05 -1.19589e-05 5.29665e-05)
(4.12559e-05 5.76956e-05 4.21253e-05)
(2.73825e-05 6.75949e-06 2.44955e-05)
(6.22662e-06 4.35947e-06 6.042e-05)
(3.94971e-05 -6.57875e-05 3.24213e-05)
(6.47493e-06 -3.64061e-06 6.58567e-05)
(-0.000247982 -0.000342487 2.37838e-05)
(-5.1798e-07 -3.9977e-05 2.68961e-05)
(5.00995e-05 -1.36373e-05 2.60217e-05)
(6.15094e-05 5.61535e-05 5.93508e-05)
(3.70587e-05 -1.41954e-05 4.57255e-06)
(5.13671e-05 3.99419e-05 2.78915e-05)
(3.18795e-05 -7.19049e-05 5.756e-05)
(3.70881e-05 1.32745e-05 5.72406e-05)
(3.31933e-05 -1.31587e-05 4.22092e-05)
(3.70471e-05 -2.0723e-05 4.17509e-05)
(-4.91274e-05 -5.38398e-05 4.56499e-05)
(2.41031e-05 3.94706e-05 2.99773e-05)
(7.48204e-05 5.25949e-05 5.21568e-05)
(0.000113305 5.32735e-05 4.78997e-05)
(3.2954e-06 -6.77442e-06 1.89369e-05)
(-1.41725e-05 -3.25198e-05 2.47533e-05)
(-7.94435e-06 -2.20399e-05 5.17912e-05)
(-0.000118324 -4.95881e-05 4.84545e-05)
(1.07202e-05 7.75621e-07 3.67439e-05)
(2.32539e-05 4.50726e-05 2.97731e-05)
(4.29706e-05 2.66423e-05 2.65582e-05)
(0.000154865 8.37536e-05 3.6379e-05)
(4.83821e-06 3.21576e-05 3.39527e-05)
(5.83052e-06 -1.46926e-05 2.94194e-05)
(1.63693e-05 -2.48556e-05 5.34451e-05)
(9.13306e-06 -5.97918e-06 6.54369e-05)
(-1.54974e-05 3.69248e-05 6.48616e-05)
(6.34279e-05 3.73619e-05 2.91609e-05)
(0.000340489 0.000209836 4.53562e-05)
(-6.97862e-05 -0.000373831 -0.000147458)
(-5.73606e-05 3.91096e-05 2.05988e-06)
(-4.73093e-05 1.07588e-05 1.23268e-05)
(2.44878e-06 3.09317e-05 4.12522e-05)
(-6.52807e-05 1.07915e-05 3.30179e-05)
(8.29775e-05 -1.84794e-05 5.44572e-05)
(3.68463e-05 2.16706e-05 5.59211e-05)
(6.99774e-05 6.57253e-05 1.01126e-05)
(-6.88407e-05 8.37469e-05 4.39298e-05)
(-1.25026e-06 7.41459e-05 5.23236e-05)
(-0.000127966 0.000225908 4.61656e-05)
(8.6594e-06 3.12426e-05 4.75616e-05)
(-1.89853e-05 -3.85557e-06 5.93671e-05)
(-3.45764e-05 -4.88447e-05 6.40376e-05)
(8.02552e-05 0.00017942 5.75024e-05)
(2.17318e-05 0.000119248 -6.80972e-06)
(-3.46413e-05 0.000125178 3.99253e-05)
(2.12572e-05 -9.23193e-06 3.98591e-05)
(6.89448e-05 0.000421104 3.41904e-05)
(3.29421e-05 2.90368e-05 6.09446e-05)
(3.4728e-05 0.000277908 2.54583e-05)
(2.07557e-05 -2.38863e-05 -9.62715e-06)
(0.00010539 7.39559e-05 6.18891e-05)
(8.25411e-06 -9.15145e-05 2.02303e-05)
(3.77032e-05 3.58731e-05 7.80252e-05)
(1.76013e-05 -7.57392e-05 0.000225278)
(-6.91178e-05 -6.08694e-05 0.000179441)
(-2.67876e-05 -4.59962e-05 0.000233357)
(-1.71303e-05 1.03092e-05 0.000129478)
(-1.76559e-05 1.8505e-05 0.000149692)
(2.05037e-05 5.45593e-05 0.000180239)
(1.48117e-05 5.76259e-05 0.000145987)
(9.70617e-06 5.01637e-05 0.000139728)
(4.63954e-05 -1.69388e-05 0.000132665)
(-1.90399e-05 -4.68377e-05 0.000185814)
(-4.60914e-05 -4.29941e-05 0.000178028)
(4.3921e-06 -7.7797e-07 0.000158821)
(1.78911e-05 4.69133e-06 0.000149323)
(4.2521e-05 3.78423e-05 0.000159282)
(1.76414e-05 0.000128832 1.78885e-05)
(3.86951e-05 4.94165e-05 0.000122896)
(4.52608e-05 1.94015e-05 0.00016911)
(-1.39518e-05 3.04994e-05 0.000249146)
(-1.21661e-05 -2.02775e-05 0.000154146)
(5.70949e-05 -3.52028e-05 0.000135852)
(0.000130404 -1.94936e-05 0.000139524)
(0.000214553 9.76453e-05 0.000221622)
(5.75545e-05 5.5552e-05 0.000156993)
(5.58775e-05 5.64522e-05 0.000166388)
(6.24352e-05 4.97176e-05 0.000113191)
(3.14754e-05 4.45226e-05 9.87705e-05)
(3.01842e-05 -4.37305e-05 0.000124709)
(7.2083e-05 -6.90985e-05 0.000164689)
(7.8386e-05 -5.05944e-05 0.000165771)
(0.000124631 -9.38363e-06 0.000182409)
(0.000105491 3.86573e-05 0.000162714)
(8.06796e-05 2.07262e-05 0.00020439)
(0.000113195 8.19324e-05 4.17027e-05)
(4.24286e-05 4.43377e-05 7.99958e-05)
(1.51923e-05 -2.96803e-05 0.000179816)
(2.98106e-05 -5.28787e-06 0.0001863)
(3.1758e-05 -5.15436e-05 0.000214772)
(1.78748e-05 -3.91545e-05 0.000116829)
(5.58864e-05 3.59963e-05 0.000183563)
(8.56588e-05 -0.000150247 0.00014796)
(0.000140493 8.48661e-05 9.72809e-05)
(7.28256e-05 -2.638e-05 8.65656e-05)
(9.70498e-05 -1.31421e-05 0.000148024)
(4.62812e-05 5.6208e-06 0.000178291)
(6.54776e-05 -5.50775e-05 0.000206808)
(2.51015e-05 5.19068e-05 0.00016739)
(7.83387e-05 1.36487e-05 8.52172e-05)
(3.36533e-05 -1.83626e-06 0.00020778)
(7.57095e-05 3.70666e-05 0.000153907)
(5.56782e-05 -2.48585e-05 0.000180768)
(5.29229e-05 2.5174e-05 0.000164438)
(1.90936e-05 4.3898e-05 0.000210311)
(-3.0502e-05 -1.53971e-05 0.000156842)
(1.89399e-05 3.52186e-05 0.000186192)
(2.67386e-05 -0.000155105 0.000147142)
(2.56717e-05 -5.36656e-05 0.000208977)
(5.53605e-05 3.88165e-05 0.000184328)
(1.18123e-05 -2.70411e-05 0.000173766)
(2.96435e-05 -5.46804e-05 0.000110006)
(-1.12712e-05 5.4357e-05 0.000208587)
(-2.85552e-05 7.07978e-06 0.000163106)
(-1.02656e-06 2.22614e-05 0.000196665)
(-3.33679e-06 -3.24173e-05 0.000205019)
(-4.70519e-05 -4.95319e-05 0.000125517)
(2.8784e-05 2.28184e-05 0.000318385)
(-3.59213e-05 -3.89148e-05 0.000293024)
(2.24273e-05 6.55209e-06 0.000334885)
(2.5554e-05 5.52332e-06 0.000301953)
(1.77223e-05 3.75293e-05 0.000244523)
(8.50448e-06 1.74756e-05 0.000222162)
(-7.06488e-05 -2.38601e-05 0.00018031)
(-1.86468e-05 2.16626e-05 0.000233755)
(6.95198e-05 3.65242e-05 0.000286709)
(4.91156e-05 -5.16103e-05 0.000286659)
(5.07631e-05 -3.39493e-05 0.000259508)
(4.69504e-05 4.7284e-07 0.000214739)
(4.82531e-05 8.51826e-07 0.000253812)
(8.6455e-05 -2.75944e-05 0.000263669)
(2.32269e-05 -8.20592e-05 0.000229201)
(1.00057e-05 -8.84791e-06 0.000227583)
(4.90831e-05 -6.85247e-06 0.000242061)
(3.2765e-05 -8.04245e-05 0.000297743)
(3.94774e-05 -1.29557e-05 0.000230529)
(2.21051e-05 -3.83027e-05 0.000196257)
(8.8029e-05 -2.86703e-05 0.000233429)
(0.000110729 -1.56635e-05 0.000299096)
(9.0306e-05 -3.26053e-05 0.0002771)
(5.73661e-05 1.72683e-05 0.00024877)
(3.79307e-05 -1.5195e-05 0.000169437)
(0.000110385 6.35944e-06 0.000248227)
(7.35746e-05 -4.64286e-05 0.00024097)
(6.45334e-05 -3.46343e-05 0.000243833)
(6.52372e-05 1.03654e-05 0.000306422)
(0.00012047 3.45137e-05 0.000300098)
(0.000116162 -1.30157e-05 0.00030393)
(4.65643e-06 -6.91221e-05 0.000357919)
(2.37118e-05 -1.90114e-06 0.000195005)
(1.71251e-05 4.1259e-05 0.000220773)
(2.68589e-05 -2.04595e-05 0.000249158)
(-4.27551e-07 5.39022e-06 0.000263141)
(-5.60734e-06 -2.09749e-05 0.000293823)
(-2.14777e-05 -1.06431e-05 0.000236427)
(9.86101e-06 -1.40114e-05 0.000263629)
(1.71634e-05 -2.38577e-05 0.000336495)
(3.4228e-05 6.78207e-05 0.000175541)
(3.94802e-05 5.78821e-05 0.000192496)
(4.26549e-05 2.58293e-05 0.000242325)
(2.41277e-05 7.07886e-06 0.000282042)
(3.52003e-05 -3.15992e-05 0.00026046)
(6.87116e-06 -3.25961e-05 0.000265936)
(-6.44738e-06 -9.65854e-06 0.000252158)
(1.87168e-05 -1.81382e-05 0.000332829)
(3.40309e-05 0.000159904 0.000220819)
(2.93319e-05 0.0001153 0.000245199)
(7.80423e-05 5.80615e-05 0.000280057)
(7.67254e-05 1.3312e-05 0.000328714)
(5.84455e-06 -2.00065e-05 0.000314968)
(1.2967e-05 -1.84529e-05 0.000258344)
(3.38688e-05 -3.26166e-05 0.000260602)
(7.97482e-06 -4.83035e-05 0.00028943)
(1.13025e-05 6.37267e-05 0.00029967)
(5.44054e-05 0.000102511 0.000335029)
(7.39317e-05 4.45214e-05 0.000285562)
(7.03531e-05 4.08845e-05 0.000342999)
(2.25345e-05 -9.74839e-06 0.000345265)
(2.26332e-06 6.95286e-06 0.000291089)
(3.47459e-05 -1.52617e-05 0.000250979)
(1.7014e-05 -1.9567e-05 0.000214354)
(3.14083e-05 -3.31766e-05 0.000381765)
(2.47847e-05 -4.71789e-05 0.000389825)
(3.02309e-05 5.52584e-06 0.000383288)
(4.21704e-05 2.06529e-05 0.000361716)
(1.63896e-05 2.35553e-05 0.000328531)
(2.09768e-05 5.07297e-05 0.000337878)
(7.828e-05 1.15439e-05 0.000401107)
(3.9081e-06 -1.2045e-05 0.000354002)
(4.97908e-05 -8.32703e-06 0.000374675)
(6.58883e-05 -3.06394e-05 0.000352131)
(4.43246e-05 -1.13544e-06 0.000366563)
(6.95808e-05 3.20261e-05 0.000345452)
(5.12558e-05 1.35123e-05 0.000333214)
(4.96234e-05 -2.01571e-06 0.000340622)
(3.84951e-05 -3.35843e-05 0.000377475)
(6.92623e-05 -2.13319e-05 0.000380241)
(1.29323e-05 4.6117e-05 0.000334076)
(3.13823e-05 -1.7529e-05 0.000359253)
(7.54532e-05 -2.251e-05 0.000361605)
(8.73631e-05 4.06364e-06 0.000310345)
(0.000105329 -3.88455e-05 0.000321663)
(9.72691e-05 -1.40745e-05 0.000355517)
(5.12816e-05 -4.00321e-05 0.000360736)
(4.45772e-05 -9.7822e-06 0.000364657)
(4.39798e-06 2.46799e-05 0.00024827)
(5.10359e-05 3.00303e-06 0.000351308)
(5.33354e-05 -1.03133e-05 0.000363374)
(8.42055e-05 -2.46103e-05 0.000325028)
(8.33091e-05 -7.77679e-05 0.000327016)
(0.00019545 9.08862e-05 0.0003923)
(5.5827e-05 -3.24798e-05 0.000377084)
(4.56232e-05 1.79988e-05 0.000393662)
(-4.04771e-05 -1.07288e-06 0.000263387)
(3.39339e-05 -9.57165e-06 0.000281108)
(6.15496e-05 -1.6701e-05 0.000337817)
(6.69571e-05 -4.33468e-06 0.000327)
(3.35683e-05 -2.64049e-05 0.000337587)
(4.346e-06 -3.81972e-05 0.000330442)
(4.56662e-05 -1.47113e-05 0.000317406)
(6.6552e-05 -1.74533e-05 0.000357545)
(-7.56604e-06 -3.34544e-06 0.000278557)
(9.4918e-06 3.59614e-05 0.000284219)
(-2.07563e-06 -1.91909e-05 0.000312226)
(9.70904e-06 -4.52894e-05 0.000341768)
(-1.17279e-05 -1.43474e-05 0.000331242)
(0.000119707 -2.29286e-05 0.000322935)
(4.57812e-05 -1.99227e-05 0.000320123)
(2.38651e-05 1.20883e-07 0.000372744)
(3.89468e-05 -1.47877e-06 0.000270181)
(4.62162e-05 6.83932e-06 0.000305112)
(-1.52135e-05 -1.23616e-05 0.000367952)
(-1.57434e-05 -3.15427e-05 0.000375738)
(1.63731e-06 -1.78864e-05 0.000345084)
(3.15654e-05 -1.19807e-05 0.000335952)
(-2.75917e-05 -4.46914e-05 0.000346878)
(-4.53012e-06 1.02079e-05 0.00036192)
(4.62279e-05 3.53656e-05 0.000381222)
(-1.0786e-05 -2.5928e-07 0.000457241)
(6.7255e-06 -1.10427e-05 0.000379392)
(2.27376e-05 -2.34667e-05 0.000404804)
(3.13889e-05 1.3036e-06 0.000352227)
(7.94177e-05 -5.29082e-05 0.000321601)
(0.000105024 -4.5717e-05 0.000311462)
(7.11475e-05 -0.000109631 0.000350769)
(1.87636e-06 -7.57944e-05 0.000497316)
(-3.30274e-06 -9.059e-05 0.000457064)
(1.73676e-05 -5.04914e-05 0.000390427)
(3.10436e-05 1.24394e-05 0.000349407)
(4.49769e-05 -4.5631e-05 0.000445371)
(1.66785e-05 2.80007e-05 0.000404987)
(9.68589e-06 5.18977e-05 0.000455546)
(-1.80001e-05 4.69564e-06 0.000465977)
(2.33952e-06 -4.32436e-05 0.00048036)
(1.63992e-05 -4.49828e-05 0.000387417)
(6.76257e-05 -2.42287e-05 0.000381087)
(6.22594e-05 1.67976e-05 0.000393752)
(1.99576e-05 1.21986e-05 0.000381053)
(1.36809e-06 6.14667e-05 0.00040888)
(1.79836e-06 1.96297e-05 0.000410459)
(5.26088e-05 -3.27103e-05 0.00044585)
(-1.30041e-05 6.14279e-05 0.000367178)
(2.84913e-05 -3.25434e-05 0.000337404)
(0.00010325 -1.7244e-05 0.000388754)
(0.000103245 -2.85198e-06 0.000374802)
(3.79886e-05 1.03663e-06 0.000350827)
(4.75814e-05 1.50608e-05 0.00032925)
(5.11321e-05 -2.37967e-05 0.000348377)
(1.96576e-05 -3.02339e-06 0.000399022)
(-1.63346e-06 6.15414e-05 0.000418298)
(-2.95176e-05 2.76152e-05 0.00034995)
(2.64304e-05 -5.71112e-06 0.000339259)
(6.90493e-05 -3.19624e-05 0.000308294)
(9.61937e-05 -4.83399e-05 0.000375782)
(5.09479e-05 -5.6395e-05 0.000385192)
(4.05819e-05 -5.05444e-05 0.000374902)
(3.54602e-05 -1.68289e-06 0.00036294)
(-0.000179176 -1.25464e-05 0.000534344)
(-0.00015918 4.85194e-05 0.000457347)
(-1.70087e-05 -6.26956e-06 0.00034963)
(4.13564e-05 -3.47672e-05 0.000368402)
(6.4102e-05 -5.80011e-05 0.000371162)
(5.19834e-05 -3.42985e-05 0.000366938)
(1.55203e-05 -3.71935e-05 0.000367625)
(2.25368e-06 -1.26346e-05 0.00037487)
(7.16765e-05 -6.39001e-07 0.000379654)
(-5.20226e-05 -4.60279e-05 0.000420597)
(-5.20056e-05 -6.82233e-05 0.000411106)
(8.61967e-05 -5.83568e-06 0.000336742)
(-1.8244e-05 -1.99047e-05 0.000362096)
(-2.02845e-05 -3.54682e-05 0.00034263)
(3.40529e-05 -1.38611e-06 0.00042623)
(1.76625e-05 2.48169e-05 0.000409199)
(0.000123773 -8.64712e-05 0.000365527)
(1.34118e-05 -0.00012662 0.000484767)
(-1.84968e-07 -2.65982e-05 0.000434613)
(1.21589e-05 -5.84382e-05 0.000371025)
(3.71188e-05 -3.79631e-05 0.000344931)
(1.9703e-05 -4.77898e-05 0.000389525)
(-2.92541e-05 -8.99323e-05 0.000386135)
(3.70263e-05 -8.64744e-07 0.000402668)
(3.16663e-05 -0.000138767 0.000398482)
(-2.71542e-05 -0.000117365 0.000464948)
(1.32191e-05 -3.44172e-05 0.000442461)
(6.35201e-05 -3.30886e-05 0.000411601)
(3.87199e-05 -6.08243e-05 0.000353168)
(6.78608e-06 -4.2993e-05 0.000393921)
(8.65856e-05 -6.73064e-05 0.00036805)
(6.89446e-05 -1.59676e-06 0.000414996)
(9.67347e-05 -6.9311e-05 0.000588646)
(4.48331e-05 3.46152e-06 0.000512651)
(2.9394e-05 -9.28061e-05 0.000312338)
(0.000212753 -4.49107e-05 0.000259176)
(0.000161598 -3.94874e-05 0.000379969)
(3.88183e-05 -9.90179e-06 0.000428804)
(-6.61996e-05 4.42263e-05 0.000427449)
(-5.35321e-05 -3.93059e-05 0.000491227)
(1.57845e-05 1.28669e-05 0.000445413)
(3.78904e-05 3.25549e-05 0.000395007)
(3.10452e-05 3.33374e-05 0.000332532)
(3.82326e-05 -8.40973e-05 0.000302233)
(7.66812e-05 4.23265e-05 0.000405557)
(-1.24421e-06 -1.19917e-05 0.000416201)
(4.06038e-05 -3.17704e-05 0.000413216)
(7.87649e-07 -4.43628e-05 0.000461381)
(2.45466e-05 6.88819e-05 0.000266083)
(9.02152e-05 -5.10493e-05 0.000352837)
(0.000127923 -6.49036e-05 0.000419836)
(9.7569e-05 -2.05851e-05 0.000479492)
(5.19508e-05 5.64991e-05 0.000378904)
(-5.24934e-07 -2.76322e-05 0.000436287)
(8.24651e-05 -6.5059e-05 0.00050691)
(3.81521e-05 -6.06408e-05 0.000409151)
(7.6536e-05 -1.89643e-05 0.000590881)
(0.000153538 -9.52074e-05 0.000353143)
(0.00013499 -8.65414e-05 0.000330755)
(5.30872e-05 4.37774e-05 0.000406156)
(5.17047e-05 -7.76923e-06 0.000454534)
(4.23804e-05 -0.000105572 0.00042813)
(1.73974e-07 -0.000138462 0.000400935)
(9.2856e-05 -2.23172e-05 0.000261473)
(-0.000181824 -0.000173912 0.000528034)
(6.47604e-05 -3.33427e-05 0.000520365)
(5.61865e-05 -4.3235e-05 0.000330697)
(7.29377e-05 -4.0247e-05 0.000394254)
(0.000113842 -8.30528e-05 0.000437993)
(0.000117443 -7.7634e-06 0.000415018)
(8.35741e-05 -6.34723e-05 0.000395358)
(-4.69367e-05 -4.39003e-05 0.000391064)
(1.09877e-05 1.75361e-05 0.00027781)
(0.000141102 -9.40123e-05 0.000398348)
(-1.60092e-05 -3.01252e-06 0.000383833)
(8.33234e-05 -5.51418e-05 0.000376482)
(-6.77737e-06 -2.93762e-05 0.00043921)
(2.99795e-05 5.18999e-05 0.000459751)
(0.000295259 8.08665e-05 0.000455448)
(2.078e-05 -1.65258e-05 0.000385679)
(0.000274428 -5.88192e-05 0.000366313)
(0.000168512 -3.46738e-05 0.000442009)
(5.0249e-05 -3.57516e-06 0.000477548)
(4.75698e-05 -6.76092e-05 0.000437715)
(4.95022e-06 -4.80216e-05 0.000448213)
(7.33986e-05 -4.69792e-05 0.000507282)
(6.92642e-06 -4.88782e-05 0.000465803)
(7.52969e-06 -0.000298444 0.000231821)
(0.000189603 -0.000120172 0.000446925)
(7.01994e-05 -0.000113815 0.000474048)
(0.000140673 -5.99994e-05 0.000525165)
(-1.90226e-05 -0.000111585 0.000378094)
(-9.19604e-06 -5.42336e-05 0.000463956)
(-1.01309e-05 -4.37644e-05 0.000423164)
(3.8796e-05 -0.000147276 0.000412407)
(0.00018727 -0.000510619 0.000208872)
(0.000355921 -0.000209997 0.000357486)
(0.000483062 -0.000499272 0.000393358)
(-0.000186249 8.30624e-05 0.000238675)
(3.01562e-05 -2.94063e-05 0.000183737)
(-9.15288e-05 0.000254828 0.00034514)
(-0.000119867 -0.000146153 0.000453802)
(-0.000151913 1.51063e-05 0.000459168)
(-0.000171787 9.00764e-05 0.000415236)
(0.000221479 0.000327425 0.000355438)
(6.82469e-05 0.000131606 0.000475253)
(0.000183423 -1.17823e-06 0.000366192)
(0.00194868 -0.00107945 0.000234408)
(3.11952e-05 -3.38575e-05 0.000549281)
(0.000713949 -0.000295343 0.000347642)
(-2.57095e-05 -0.000168795 0.000427651)
(-5.83032e-05 6.53259e-05 0.000431039)
(-0.00224323 0.000756274 -0.000401818)
(0.000261926 -0.000346689 0.00055142)
(0.000117394 -7.45694e-05 0.0004457)
(1.14381e-06 -9.6409e-05 0.000516159)
(-3.68403e-06 -1.84613e-05 0.000469586)
(0.000106334 -4.66076e-05 0.000454542)
(0.00111911 0.000222932 0.000201927)
(-3.86222e-05 0.00016805 0.000296386)
(0.000203332 -0.000393585 0.000682369)
(0.000148799 -0.000191189 0.000362941)
(-0.0023909 -0.00544058 -0.00787962)
(-0.000162894 -0.000958266 -3.34582e-05)
(0.000132841 -0.000106257 0.00046636)
(0.00150947 -0.000225162 0.000315676)
(0.00174608 4.10877e-05 -0.000236536)
(0.000847976 -0.000288462 0.000192528)
(0.000537818 -0.000516879 0.00034982)
(-0.00062625 -0.000322581 0.000866598)
(-0.000609566 -0.00018918 4.7852e-05)
(-9.37393e-05 -0.000170374 0.000298635)
(8.14858e-05 -2.17568e-05 0.000443619)
(1.6379e-05 5.72259e-05 0.000500661)
(-0.000127161 9.14692e-05 0.000447646)
(-9.57367e-05 0.00024425 0.000506718)
(-0.00569981 0.00239904 -0.00408162)
(0.00044354 7.59003e-05 0.000311019)
(-0.0006699 -0.000419185 0.000297528)
(-6.42609e-05 -0.000130514 0.000434297)
(-0.000444548 0.00288816 -0.000724222)
(0.00099111 -0.0008174 -0.000864067)
(-4.33391e-05 0.000201595 0.000320701)
(-2.47398e-05 -8.9813e-05 0.000394945)
(0.00048661 -5.15802e-05 0.000427123)
(0.000165024 0.000178312 0.000423809)
(-0.000579745 -0.000630678 0.000178935)
(-0.000304486 -0.00023687 0.000385394)
(-0.000443726 0.000865517 3.98087e-05)
(0.00213555 0.000786823 0.000950412)
(2.20902e-05 0.000276247 0.000646442)
(-0.000151613 -0.000329534 0.000227165)
(-5.38943e-05 -9.19825e-05 0.000521516)
(1.3449e-05 -0.000196247 0.00051312)
(-0.00154882 -0.00108383 0.00171009)
(0.000140728 -0.000144602 0.000387853)
(-6.3984e-06 0.000142272 0.000478775)
(0.000137104 0.000257693 0.000282573)
(7.39196e-05 -0.000135582 0.000415418)
(0.00571716 0.003034 -4.25206e-05)
(0 0 0)
(0 0 0)
(0 0 0)
(0 0 0)
(0 0 0)
(0 0 0)
(0 0 0)
(0 0 0)
(0 0 0)
(0 0 0)
(0 0 0)
(0 0 0)
(0 0 0)
(0 0 0)
(0 0 0)
(0 0 0)
(0 0 0)
(0 0 0)
(0 0 0)
(0 0 0)
(0 0 0)
(0 0 0)
(0.00723206 0.0022257 -0.00104716)
(0 0 0)
(0 0 0)
(0 0 0)
(0 0 0)
(0 0 0)
(0 0 0)
(0.00852944 -0.000928324 -0.00037031)
(0.0111082 0.00186443 -0.0026573)
(0 0 0)
(0 0 0)
(0 0 0)
(0 0 0)
(0 0 0)
(0 0 0)
(0 0 0)
(0 0 0)
(0 0 0)
(0 0 0)
(0 0 0)
(0 0 0)
(0 0 0)
(0 0 0)
(0 0 0)
(0 0 0)
(0 0 0)
(0 0 0)
(0 0 0)
(0 0 0)
(0 0 0)
(0 0 0)
(0 0 0)
(0 0 0)
(0 0 0)
(0 0 0)
(0 0 0)
(0 0 0)
(0 0 0)
(0 0 0)
(0 0 0)
(0 0 0)
(0 0 0)
(0 0 0)
(0 0 0)
(0 0 0)
(0 0 0)
(0 0 0)
(0 0 0)
(0 0 0)
(0 0 0)
(0 0 0)
(0 0 0)
(0 0 0)
(0 0 0)
(0 0 0)
(0 0 0)
(0 0 0)
(0 0 0)
(0 0 0)
(0 0 0)
(0 0 0)
(0 0 0)
(0 0 0)
(0 0 0)
(0 0 0)
(0 0 0)
(0 0 0)
(0 0 0)
(0 0 0)
(0 0 0)
(0 0 0)
(0 0 0)
(0 0 0)
(0 0 0)
(0 0 0)
(0 0 0)
(0 0 0)
(0 0 0)
(0 0 0)
(0 0 0)
(0 0 0)
(0 0 0)
(0 0 0)
(0 0 0)
(0 0 0)
(0 0 0)
(0 0 0)
(0 0 0)
(0 0 0)
(0 0 0)
(0 0 0)
(0 0 0)
(0 0 0)
(0 0 0)
(0 0 0)
(0 0 0)
(0 0 0)
(0 0 0)
(0 0 0)
(0 0 0)
(0 0 0)
(0 0 0)
(0 0 0)
(0 0 0)
(0 0 0)
(0 0 0)
(0 0 0)
(0 0 0)
(0 0 0)
(0 0 0)
(0 0 0)
(0 0 0)
(0 0 0)
(0 0 0)
(0 0 0)
(0 0 0)
(0 0 0)
(0 0 0)
(0 0 0)
(0 0 0)
(0 0 0)
(0 0 0)
(0 0 0)
(0 0 0)
(0 0 0)
(0 0 0)
(0 0 0)
(0 0 0)
(0 0 0)
(0 0 0)
(0 0 0)
(0 0 0)
(0 0 0)
(0 0 0)
(0 0 0)
(0 0 0)
(0 0 0)
(0 0 0)
(0 0 0)
(0 0 0)
(0 0 0)
(0 0 0)
(0 0 0)
(0 0 0)
(0 0 0)
(0 0 0)
(0 0 0)
(0 0 0)
(0 0 0)
(0 0 0)
(0 0 0)
(0 0 0)
(0 0 0)
(0 0 0)
(0 0 0)
(0 0 0)
(0 0 0)
(0 0 0)
(0 0 0)
(0 0 0)
(0 0 0)
(0 0 0)
(0 0 0)
(0 0 0)
(0 0 0)
(0 0 0)
(0 0 0)
(0 0 0)
(0 0 0)
(0 0 0)
(0 0 0)
(0 0 0)
(0 0 0)
(0 0 0)
(0 0 0)
(0 0 0)
(0 0 0)
(0 0 0)
(0 0 0)
(0 0 0)
(0 0 0)
(0 0 0)
(0 0 0)
(0 0 0)
(0 0 0)
(0 0 0)
(0 0 0)
(0 0 0)
(0 0 0)
(0 0 0)
(0 0 0)
(0 0 0)
(0 0 0)
(0 0 0)
(0 0 0)
(0 0 0)
(0 0 0)
(0 0 0)
(0 0 0)
(0 0 0)
(0 0 0)
(0 0 0)
(0 0 0)
(0 0 0)
(0 0 0)
(0 0 0)
(0 0 0)
(0 0 0)
(0 0 0)
(0 0 0)
(0 0 0)
(0 0 0)
(0 0 0)
(0 0 0)
(0 0 0)
(0 0 0)
(0 0 0)
(0 0 0)
(0 0 0)
(0 0 0)
(0 0 0)
(0 0 0)
(0 0 0)
(0 0 0)
(0 0 0)
(0 0 0)
(0 0 0)
(0 0 0)
(0 0 0)
(0 0 0)
(0 0 0)
(0 0 0)
(0 0 0)
(0 0 0)
(0 0 0)
(0 0 0)
(0 0 0)
(0 0 0)
(0 0 0)
(0 0 0)
(0 0 0)
(0 0 0)
(0 0 0)
(0 0 0)
(0 0 0)
(0 0 0)
(0 0 0)
(0 0 0)
(0 0 0)
(0 0 0)
(0 0 0)
(0 0 0)
(0 0 0)
(0 0 0)
(0 0 0)
(0 0 0)
(0 0 0)
(0 0 0)
(0 0 0)
(0 0 0)
(0 0 0)
(0 0 0)
(0 0 0)
(0 0 0)
(0 0 0)
(0 0 0)
(0 0 0)
(0 0 0)
(0 0 0)
(0 0 0)
(0 0 0)
(0 0 0)
(0 0 0)
(0 0 0)
(0 0 0)
(0 0 0)
(0 0 0)
(0 0 0)
(0 0 0)
(0 0 0)
(0 0 0)
(0 0 0)
(0 0 0)
(0 0 0)
(0 0 0)
(0 0 0)
(0 0 0)
(0 0 0)
(0 0 0)
(0 0 0)
(0 0 0)
(0 0 0)
(0 0 0)
(0 0 0)
(0 0 0)
(0 0 0)
(0 0 0)
(0 0 0)
(0 0 0)
(0 0 0)
(0 0 0)
(0 0 0)
(0 0 0)
(0 0 0)
(0 0 0)
(0 0 0)
(0 0 0)
(0 0 0)
(0 0 0)
(0 0 0)
(0 0 0)
(0 0 0)
(0 0 0)
(0 0 0)
(0 0 0)
(0 0 0)
(0 0 0)
(0 0 0)
(0 0 0)
(0 0 0)
(0 0 0)
(0 0 0)
(0 0 0)
(0 0 0)
(0 0 0)
(0 0 0)
(0 0 0)
(0 0 0)
(0 0 0)
(0 0 0)
(0 0 0)
(0 0 0)
(0 0 0)
(0 0 0)
(0 0 0)
(0 0 0)
(0 0 0)
(0 0 0)
(0 0 0)
(0 0 0)
(0 0 0)
(0 0 0)
(0 0 0)
(0 0 0)
(0 0 0)
(0 0 0)
(0 0 0)
(0 0 0)
(0 0 0)
(0 0 0)
(0 0 0)
(0 0 0)
(0 0 0)
(0 0 0)
(0 0 0)
(0 0 0)
(0 0 0)
(0 0 0)
(0 0 0)
(0 0 0)
(0 0 0)
(0 0 0)
(0 0 0)
(0 0 0)
(0 0 0)
(0 0 0)
(0 0 0)
(0 0 0)
(0 0 0)
(0 0 0)
(0 0 0)
(0 0 0)
(0 0 0)
(0 0 0)
(0 0 0)
(0 0 0)
(0 0 0)
(0 0 0)
(0 0 0)
(0 0 0)
(0 0 0)
(0 0 0)
(0 0 0)
(0 0 0)
(0 0 0)
(0 0 0)
(0 0 0)
(0 0 0)
(0 0 0)
(0 0 0)
(0 0 0)
(0 0 0)
(0 0 0)
(0 0 0)
(0 0 0)
(0 0 0)
(0 0 0)
(0 0 0)
(0 0 0)
(0 0 0)
(0 0 0)
(0 0 0)
(0 0 0)
(0 0 0)
(0 0 0)
(0 0 0)
(0 0 0)
(0 0 0)
(0 0 0)
(0 0 0)
(0 0 0)
(0 0 0)
(0 0 0)
(0 0 0)
(0 0 0)
(0 0 0)
(0 0 0)
(0 0 0)
(0 0 0)
(0 0 0)
(0 0 0)
(0 0 0)
(0 0 0)
(0 0 0)
(0 0 0)
(0 0 0)
(0 0 0)
(0 0 0)
(0 0 0)
(0 0 0)
(0 0 0)
(0 0 0)
(0 0 0)
(0 0 0)
(0 0 0)
(0 0 0)
(0 0 0)
(0 0 0)
(0 0 0)
(0 0 0)
(0 0 0)
(0 0 0)
(0 0 0)
(0 0 0)
(0 0 0)
(0 0 0)
(0 0 0)
(0 0 0)
(0 0 0)
(0 0 0)
(0 0 0)
(0 0 0)
(0 0 0)
(0 0 0)
(0 0 0)
(0 0 0)
(0 0 0)
(0 0 0)
(0 0 0)
(0 0 0)
(0 0 0)
(0 0 0)
(0 0 0)
(0 0 0)
(0 0 0)
(0 0 0)
(0 0 0)
(0 0 0)
(0 0 0)
(0 0 0)
(0 0 0)
(0 0 0)
(0 0 0)
(0 0 0)
(0 0 0)
(0 0 0)
(0 0 0)
(0 0 0)
(0 0 0)
(0 0 0)
(0 0 0)
(0 0 0)
(0 0 0)
(0 0 0)
(0 0 0)
(0 0 0)
(0 0 0)
(0 0 0)
(0 0 0)
(0 0 0)
(0 0 0)
(0 0 0)
(0 0 0)
(0 0 0)
(0 0 0)
(0 0 0)
(0 0 0)
(0 0 0)
(0 0 0)
(0 0 0)
(0 0 0)
(0 0 0)
(0 0 0)
(0 0 0)
(0 0 0)
(0 0 0)
(0 0 0)
(0 0 0)
(0 0 0)
(0 0 0)
(0 0 0)
(0 0 0)
(0 0 0)
(0 0 0)
(0 0 0)
(0 0 0)
(0 0 0)
(0 0 0)
(0 0 0)
(0 0 0)
(0 0 0)
(0 0 0)
(0 0 0)
(0 0 0)
(0 0 0)
(0 0 0)
(0 0 0)
(0 0 0)
(0 0 0)
(0 0 0)
(0 0 0)
(0 0 0)
(0 0 0)
(0 0 0)
(0 0 0)
(0 0 0)
(0 0 0)
(0 0 0)
(0 0 0)
(0 0 0)
(0 0 0)
(0 0 0)
(0 0 0)
(0 0 0)
(0 0 0)
(0 0 0)
(0 0 0)
(0 0 0)
(0 0 0)
(0 0 0)
(0 0 0)
(0 0 0)
(0 0 0)
(0 0 0)
(0 0 0)
(0 0 0)
(0 0 0)
(0 0 0)
(0 0 0)
(0 0 0)
(0 0 0)
(0 0 0)
(0 0 0)
(0 0 0)
(0 0 0)
(0 0 0)
(0 0 0)
(0 0 0)
(0 0 0)
(0 0 0)
(0 0 0)
(0 0 0)
(0 0 0)
(0 0 0)
(0 0 0)
(0 0 0)
(0 0 0)
(0 0 0)
(0 0 0)
(0 0 0)
(0 0 0)
(0 0 0)
(0 0 0)
(0 0 0)
(0 0 0)
(0 0 0)
(0 0 0)
(0 0 0)
(0 0 0)
(0 0 0)
(0 0 0)
(0 0 0)
(0 0 0)
(0 0 0)
(0 0 0)
(0 0 0)
(0 0 0)
(0 0 0)
(0 0 0)
(0 0 0)
(0 0 0)
(0 0 0)
(0 0 0)
(0 0 0)
(0 0 0)
(0 0 0)
(0 0 0)
(0 0 0)
(0 0 0)
(0 0 0)
(0 0 0)
(0 0 0)
(0 0 0)
(0 0 0)
(0 0 0)
(0 0 0)
(0 0 0)
(0 0 0)
(0 0 0)
(0 0 0)
(0 0 0)
(0 0 0)
(0 0 0)
(0 0 0)
(0 0 0)
(0 0 0)
(0 0 0)
(0 0 0)
(0 0 0)
(0 0 0)
(0 0 0)
(0 0 0)
(0 0 0)
(0 0 0)
(0 0 0)
(0 0 0)
(0 0 0)
(0 0 0)
(0 0 0)
(0 0 0)
(0 0 0)
(0 0 0)
(0 0 0)
(0 0 0)
(0 0 0)
(0 0 0)
(0 0 0)
(0 0 0)
(0 0 0)
(0 0 0)
(0 0 0)
(0 0 0)
(0 0 0)
(0 0 0)
(0 0 0)
(0 0 0)
(0 0 0)
(0 0 0)
(0 0 0)
(0 0 0)
(0 0 0)
(0 0 0)
(0 0 0)
(0 0 0)
(0 0 0)
(0 0 0)
(0 0 0)
(0 0 0)
(0 0 0)
(0 0 0)
(0 0 0)
(0 0 0)
(0 0 0)
(0 0 0)
(0 0 0)
(0 0 0)
(0 0 0)
(0 0 0)
(0 0 0)
(0 0 0)
(0 0 0)
(0 0 0)
(0 0 0)
(0 0 0)
(0 0 0)
(0 0 0)
(0 0 0)
(0 0 0)
(0 0 0)
(0 0 0)
(0 0 0)
(0 0 0)
(0 0 0)
(0 0 0)
(0 0 0)
(0 0 0)
(0 0 0)
(0 0 0)
(0 0 0)
(0 0 0)
(0 0 0)
(0 0 0)
(0 0 0)
(0 0 0)
(0 0 0)
(0 0 0)
(0 0 0)
(0 0 0)
(0 0 0)
(0 0 0)
(0 0 0)
(0 0 0)
(0 0 0)
(0 0 0)
(0 0 0)
(0 0 0)
(0 0 0)
(0 0 0)
(0 0 0)
(0 0 0)
(0 0 0)
(0 0 0)
(0 0 0)
(0 0 0)
(0 0 0)
(0 0 0)
(0 0 0)
(0 0 0)
(0 0 0)
(0 0 0)
(0 0 0)
(0 0 0)
(0 0 0)
(0 0 0)
(0 0 0)
(0 0 0)
(0 0 0)
(0 0 0)
(0 0 0)
(0 0 0)
(0 0 0)
(0 0 0)
(0 0 0)
(0 0 0)
(0 0 0)
(0 0 0)
(0 0 0)
(0 0 0)
(0 0 0)
(0 0 0)
(0 0 0)
(0 0 0)
(0 0 0)
(0 0 0)
(0 0 0)
(0 0 0)
(0 0 0)
(0 0 0)
(0 0 0)
(0 0 0)
(0 0 0)
(0 0 0)
(0 0 0)
(0 0 0)
(0 0 0)
(0 0 0)
(0 0 0)
(0 0 0)
(0 0 0)
(0 0 0)
(0 0 0)
(0 0 0)
(0 0 0)
(0 0 0)
(0 0 0)
(0 0 0)
(0 0 0)
(0 0 0)
(0 0 0)
(0 0 0)
(0 0 0)
(0 0 0)
(0 0 0)
(0 0 0)
(0 0 0)
(0 0 0)
(0 0 0)
(0 0 0)
(0 0 0)
(0 0 0)
(0 0 0)
(0 0 0)
(0 0 0)
(0 0 0)
(0 0 0)
(0 0 0)
(0 0 0)
(0 0 0)
(0 0 0)
(0 0 0)
(0 0 0)
(0 0 0)
(0 0 0)
(0 0 0)
(0 0 0)
(0 0 0)
(0 0 0)
(0 0 0)
(0 0 0)
(0 0 0)
(0 0 0)
(0 0 0)
(0 0 0)
(0 0 0)
(0 0 0)
(0 0 0)
(0 0 0)
(0 0 0)
(0 0 0)
(0 0 0)
(0 0 0)
(0 0 0)
(0 0 0)
(0 0 0)
(0 0 0)
(0 0 0)
(0 0 0)
(0 0 0)
(0 0 0)
(0 0 0)
(0 0 0)
(0 0 0)
(0 0 0)
(0 0 0)
(0 0 0)
(0 0 0)
(0 0 0)
(0 0 0)
(0 0 0)
(0 0 0)
(0 0 0)
(0 0 0)
(0 0 0)
(0 0 0)
(0 0 0)
(0 0 0)
(0 0 0)
(0 0 0)
(0 0 0)
(0 0 0)
(0 0 0)
(0 0 0)
(0 0 0)
(0 0 0)
(0 0 0)
(0 0 0)
(0 0 0)
(0 0 0)
(0 0 0)
(0 0 0)
(0 0 0)
(0 0 0)
(0 0 0)
(0 0 0)
(0 0 0)
(0 0 0)
(0 0 0)
(0 0 0)
(0 0 0)
(0 0 0)
(0 0 0)
(0 0 0)
(0 0 0)
(0 0 0)
(0 0 0)
(0 0 0)
(0 0 0)
(0 0 0)
(0 0 0)
(0 0 0)
(0 0 0)
(0 0 0)
(0 0 0)
(0 0 0)
(0 0 0)
(0 0 0)
(0 0 0)
(0 0 0)
(0 0 0)
(0 0 0)
(0 0 0)
(0 0 0)
(0 0 0)
(0 0 0)
(0 0 0)
(0 0 0)
(0 0 0)
(0 0 0)
(0 0 0)
(0 0 0)
(0 0 0)
(0 0 0)
(0 0 0)
(0 0 0)
(0 0 0)
(0 0 0)
(0 0 0)
(0 0 0)
(0 0 0)
(0 0 0)
(0 0 0)
(0 0 0)
(0 0 0)
(0 0 0)
(0 0 0)
(0 0 0)
(0 0 0)
(0 0 0)
(0 0 0)
(0 0 0)
(0 0 0)
(0 0 0)
(0 0 0)
(0 0 0)
(0 0 0)
(0 0 0)
(0 0 0)
(0 0 0)
(0 0 0)
(0 0 0)
(0 0 0)
(0 0 0)
(0 0 0)
(0 0 0)
(0 0 0)
(0 0 0)
(0 0 0)
(0 0 0)
(0 0 0)
(0 0 0)
(0 0 0)
(0 0 0)
(0 0 0)
(0 0 0)
(0 0 0)
(0 0 0)
(0 0 0)
(0 0 0)
(0 0 0)
(0 0 0)
(0 0 0)
(0 0 0)
(0 0 0)
(0 0 0)
(0 0 0)
(0 0 0)
(0 0 0)
(0 0 0)
(0 0 0)
(0 0 0)
(0 0 0)
(0 0 0)
(0 0 0)
(0 0 0)
(0 0 0)
(0 0 0)
(0 0 0)
(0 0 0)
(0 0 0)
(0 0 0)
(0 0 0)
(0 0 0)
(0 0 0)
(0 0 0)
(0 0 0)
(0 0 0)
(0 0 0)
(0 0 0)
(0 0 0)
(0 0 0)
(0 0 0)
(0 0 0)
(0 0 0)
(0 0 0)
(0 0 0)
(0 0 0)
(0 0 0)
(0 0 0)
(0 0 0)
(0 0 0)
(0 0 0)
(0 0 0)
(0 0 0)
(0 0 0)
(0 0 0)
(0 0 0)
(0 0 0)
(0 0 0)
(0 0 0)
(0 0 0)
(0 0 0)
(0 0 0)
(0 0 0)
(0 0 0)
(0 0 0)
(0 0 0)
(0 0 0)
(0 0 0)
(0 0 0)
(0 0 0)
(0 0 0)
(0 0 0)
(0 0 0)
(0 0 0)
(0 0 0)
(0 0 0)
(0 0 0)
(0 0 0)
(0 0 0)
(0 0 0)
(0 0 0)
(0 0 0)
(0 0 0)
(0 0 0)
(0 0 0)
(0 0 0)
(0 0 0)
(0 0 0)
(0 0 0)
(0 0 0)
(0 0 0)
(0 0 0)
(0 0 0)
(0 0 0)
(0 0 0)
(0 0 0)
(0 0 0)
(0 0 0)
(0 0 0)
(0 0 0)
(0 0 0)
(0 0 0)
(0 0 0)
(0 0 0)
(0 0 0)
(0 0 0)
(0 0 0)
(0 0 0)
(0 0 0)
(0 0 0)
(0 0 0)
(0 0 0)
(0 0 0)
(0 0 0)
(0 0 0)
(0 0 0)
(0 0 0)
(0 0 0)
(0 0 0)
(0 0 0)
(0 0 0)
(0 0 0)
(0 0 0)
(0 0 0)
(0 0 0)
(0 0 0)
(-0.000124318 4.58818e-05 1.94663e-05)
(-4.33726e-05 8.35444e-06 3.9122e-05)
(-3.73025e-05 3.71466e-06 7.94559e-05)
(-1.33877e-05 7.28176e-05 8.82924e-05)
(1.94203e-05 5.37081e-05 4.32272e-05)
(2.66585e-05 -4.92127e-05 5.40984e-05)
(4.47103e-05 -0.00014321 -5.35123e-05)
(-4.52334e-05 8.74399e-06 2.80422e-05)
(-0.000135767 0.000378507 0.000127047)
(4.69249e-05 1.3152e-05 6.29061e-05)
(-5.99157e-05 0.000177116 0.000112238)
(6.79376e-06 -2.65712e-05 7.53282e-05)
(-1.03701e-05 2.40657e-05 4.40626e-05)
(6.94707e-06 -9.66812e-05 3.18309e-05)
(-3.12075e-05 -4.67092e-05 -2.88958e-05)
(-1.82514e-05 7.65396e-06 4.26434e-05)
(0.000473617 -0.000290274 4.13974e-05)
(0.000109948 6.78847e-05 7.80888e-05)
(-9.61267e-05 9.32038e-05 9.09198e-05)
(-5.60668e-05 -4.54689e-05 6.70272e-05)
(-2.13496e-05 -1.83035e-05 4.02517e-05)
(-3.93067e-05 -2.32203e-05 1.27402e-05)
(-7.57404e-06 1.67829e-05 2.69597e-05)
(-2.27559e-06 -1.68078e-05 3.87284e-05)
(-0.000334029 -0.000580545 -0.000177738)
(1.68483e-05 -2.05398e-05 2.52121e-05)
(2.45044e-05 4.93084e-06 4.32334e-05)
(-4.24263e-05 4.72515e-06 3.60758e-05)
(-4.89068e-05 6.58255e-06 1.98703e-05)
(7.0281e-05 -2.87694e-05 2.07917e-05)
(4.85364e-05 -8.94211e-06 1.67598e-05)
(2.42295e-06 -1.48244e-05 1.51347e-05)
(6.37286e-05 -3.89146e-05 0.000290356)
(4.16894e-05 -5.34375e-05 0.000212999)
(1.47941e-05 -1.65246e-05 0.00025966)
(-2.35737e-05 7.12299e-05 0.000180538)
(-8.8092e-06 2.2589e-05 0.000205404)
(3.16152e-05 2.24526e-05 0.000223399)
(5.41114e-05 0.00016815 -3.28147e-05)
(-6.06262e-06 1.4731e-05 3.77608e-05)
(0.000246916 -9.68418e-05 0.000188076)
(1.94236e-06 5.19572e-05 0.000248538)
(-1.8191e-05 -4.78549e-05 0.000273296)
(-1.14591e-05 -3.0879e-06 0.000237345)
(1.82179e-07 1.40534e-05 0.000138314)
(4.07571e-06 -3.08176e-05 0.000157199)
(4.11128e-05 -6.80532e-05 7.34052e-05)
(1.53206e-05 -1.16174e-05 0.000131011)
(0.000110208 -7.47207e-05 5.027e-05)
(3.44663e-05 0.00011814 0.000178799)
(8.92796e-05 5.11089e-06 0.000249286)
(6.91821e-05 -3.37754e-05 0.000182758)
(-7.90013e-05 7.9079e-06 0.00013092)
(-2.93334e-05 -4.90358e-05 8.50496e-05)
(3.38997e-05 -2.81936e-05 0.000104372)
(-2.62224e-06 3.86737e-05 0.000158447)
(2.39143e-05 -6.19216e-05 2.28911e-05)
(-3.77183e-05 -6.11899e-05 6.82243e-05)
(0.000106351 -1.61751e-05 0.000138138)
(4.15501e-05 3.95038e-05 0.000172805)
(-4.62801e-05 -2.45053e-06 0.000101997)
(-2.78259e-05 -2.29203e-05 7.59851e-05)
(3.615e-05 -5.31218e-05 0.000124888)
(-4.98015e-05 1.16282e-05 0.000138971)
(-3.41616e-05 7.60335e-05 0.00034549)
(1.03447e-05 6.89326e-05 0.00034349)
(7.99047e-06 8.62308e-05 0.000345579)
(1.41046e-05 6.22284e-05 0.000316714)
(-2.64104e-06 4.39021e-05 0.000318716)
(1.15171e-05 1.5329e-05 0.000290243)
(2.36763e-05 1.31929e-05 0.000222751)
(3.18695e-05 -2.42211e-05 0.000214892)
(1.63779e-05 7.30836e-05 0.000275593)
(-6.8763e-05 0.000120431 0.000306214)
(3.00452e-05 5.13244e-05 0.000289534)
(-2.5058e-05 5.70107e-05 0.000314024)
(5.27132e-05 -8.31955e-09 0.000287083)
(-2.63019e-06 -5.36908e-06 0.000227689)
(2.16652e-06 -6.79648e-05 0.000119518)