/*--------------------------------*- C++ -*----------------------------------*\
| =========                 |                                                 |
| \\      /  F ield         | OpenFOAM: The Open Source CFD Toolbox           |
|  \\    /   O peration     | Version:  2506                                  |
|   \\  /    A nd           | Website:  www.openfoam.com                      |
|    \\/     M anipulation  |                                                 |
\*---------------------------------------------------------------------------*/
FoamFile
{
    version     2.0;
    format      ascii;
    arch        "LSB;label=32;scalar=64";
    class       volScalarField;
    location    "0.03";
    object      Ksl;
}
// * * * * * * * * * * * * * * * * * * * * * * * * * * * * * * * * * * * * * //

dimensions      [1 -3 -1 0 0 0 0];

internalField   nonuniform List<scalar> 
1152
(
194482
115039
99861
356124
144465
104468
149671
166618
110707
148373
98760.3
100140
128013
58005.7
103871
118934
255076
169361
130270
878672
170550
167608
1.02906e+06
209361
358450
150527
129417
1.369e+06
185574
390926
199190
244691
337021
257896
507311
2.01418e+07
598438
355060
142217
223441
207877
247540
578542
122659
343582
136677
445678
1.84015e+06
276537
135773
345747
158218
123171
292665
217831
202660
483297
250376
244683
1.30983e+07
554908
134433
211029
100937
245131
381677
398100
226079
282324
187978
179304
312512
235236
178825
666391
105969
119081
482248
379209
4.60072e+06
338579
128996
153828
161071
177812
180024
259821
161115
178879
156867
313026
156511
284304
177129
180066
137458
55029
50240.8
62107.2
76015.9
30709.7
49769
88338.7
240407
47477.2
52718.1
110365
34927.2
28915.2
94065
253632
76101.2
0
0
0
0
0
0
0
0
0
0
0
0
0
0
0
0
0
0
0
0
0
0
0
0
0
0
0
0
0
0
0
0
0
0
0
0
0
0
0
0
0
0
0
0
0
0
0
0
0
0
0
0
0
0
0
0
0
0
0
0
0
0
0
0
0
0
0
0
0
0
0
0
0
0
0
0
0
0
0
0
0
0
0
0
0
0
0
0
0
0
0
0
0
0
0
0
0
0
0
0
0
0
0
0
0
0
0
0
0
0
0
0
0
0
0
0
0
0
0
0
0
0
0
0
0
0
0
0
0
0
0
0
0
0
0
0
0
0
0
0
0
0
0
0
0
0
0
0
0
0
0
0
0
0
0
0
0
0
0
0
0
0
0
0
0
0
0
0
0
0
0
0
0
0
0
0
0
0
0
0
0
0
0
0
0
0
0
0
0
0
0
0
0
0
0
0
0
0
0
0
0
0
0
0
0
0
0
0
0
0
0
0
0
0
0
0
0
0
0
0
0
0
0
0
0
0
0
0
0
0
0
0
0
0
0
0
0
0
0
0
0
0
0
0
0
0
0
0
0
0
0
0
0
0
0
0
0
0
0
0
0
0
0
0
0
0
0
0
0
0
0
0
123341
101516
91144
125431
184066
108848
94055.3
78389.5
145049
80711.6
115017
148541
169866
187579
88067
93634.5
146804
210064
248132
361557
455713
156274
268706
267619
183074
329410
332623
243677
235470
186151
196590
219771
144615
182857
353956
201706
154233
198624
274554
126399
225619
209186
172740
465043
287674
565380
448720
163165
282151
312716
197094
1.17579e+07
1.18128e+06
145263
299371
205127
190940
189444
192635
241521
158773
677043
305869
211167
117210
373552
157138
414206
261653
177380
300610
197708
148717
335159
168053
220514
274975
215285
183690
285409
283891
464567
220583
118974
274860
205778
166887
170938
254182
147149
442559
165796
156366
298682
174867
161336
42729.2
55991
28368.5
30795.6
77107.6
34436.4
22225.1
23846.5
28914.5
13407.7
29548.3
36885.7
71880.4
45040.1
19040.5
36978.7
0
0
0
0
0
0
0
0
0
0
0
0
0
0
0
0
0
0
0
0
0
0
0
0
0
0
0
0
0
0
0
0
0
0
0
0
0
0
0
0
0
0
0
0
0
0
0
0
0
0
0
0
0
0
0
0
0
0
0
0
0
0
0
0
0
0
0
0
0
0
0
0
0
0
0
0
0
0
0
0
0
0
0
0
0
0
0
0
0
0
0
0
0
0
0
0
0
0
0
0
0
0
0
0
0
0
0
0
0
0
0
0
0
0
0
0
0
0
0
0
0
0
0
0
0
0
0
0
0
0
0
0
0
0
0
0
0
0
0
0
0
0
0
0
0
0
0
0
0
0
0
0
0
0
0
0
0
0
0
0
0
0
0
0
0
0
0
0
0
0
0
0
0
0
0
0
0
0
0
0
0
0
0
0
0
0
0
0
0
0
0
0
0
0
0
0
0
0
0
0
0
0
0
0
0
0
0
0
0
0
0
0
0
0
0
0
0
0
0
0
0
0
0
0
0
0
0
0
0
0
0
0
0
0
0
0
0
0
0
0
0
0
0
0
0
0
0
0
0
0
0
0
0
0
0
0
0
0
0
0
0
0
0
0
0
0
0
0
0
0
0
0
93659
220697
116042
253860
133959
78412.9
132203
146576
146453
130726
117236
80783.5
106504
135446
119808
482621
152371
167442
331228
170530
607636
324863
184095
148200
320336
186812
158723
339164
143840
314180
326231
133816
209925
427953
217414
213032
360854
115959
225375
216873
98313.2
2.83066e+07
208033
340270
519022
142422
224209
131491
152504
221702
302078
120893
417000
178471
216883
210754
366618
199710
292141
216988
152933
762659
227728
341198
159974
318207
222302
167993
355561
142735
232701
237054
178208
221383
244360
268559
288009
182183
180353
183272
183108
153127
219983
102974
170402
161505
189312
400546
257218
170032
379990
167664
566425
197563
239832
142803
104686
79980.5
73492.3
93336.8
61192.4
140101
79556.6
135742
55001.2
50246.2
49392.6
27431.5
58850.1
35287.5
48539.5
62853
0
0
146.352
154.567
0
0
0
0
0
0
0
0
0
0
0
0
0
0
0
0
0
0
0
0
0
0
0
0
0
0
0
0
0
0
0
0
0
0
0
0
0
0
0
0
0
0
0
0
0
0
0
0
0
0
0
0
0
0
0
0
0
0
0
0
0
0
0
0
0
0
0
0
0
0
0
0
0
0
0
0
0
0
0
0
0
0
0
0
0
0
0
0
0
0
0
0
0
0
0
0
0
0
0
0
0
0
0
0
0
0
0
0
0
0
0
0
0
0
0
0
0
0
0
0
0
0
0
0
0
0
0
0
0
0
0
0
0
0
0
0
0
0
0
0
0
0
0
0
0
0
0
0
0
0
0
0
0
0
0
0
0
0
0
0
0
0
0
0
0
0
0
0
0
0
0
0
0
0
0
0
0
0
0
0
0
0
0
0
0
0
0
0
0
0
0
0
0
0
0
0
0
0
0
0
0
0
0
0
0
0
0
0
0
0
0
0
0
0
0
0
0
0
0
0
0
0
0
0
0
0
0
0
0
0
0
0
0
0
0
0
0
0
0
0
0
0
0
0
0
0
0
0
0
0
0
0
0
0
0
0
0
0
0
0
0
0
0
0
0
0
0
0
)
;

boundaryField
{
    inlet
    {
        type            zeroGradient;
    }
    outlet
    {
        type            zeroGradient;
    }
    wall
    {
        type            zeroGradient;
    }
    procBoundary0to1
    {
        type            processor;
        value           nonuniform List<scalar> 
192
(
55422.7
114809
96489.1
301156
307574
232668
215193
255672
103970
386275
249886
162825
1.49849e+06
273558
166108
1.27469e+07
143832
212190
268171
146649
1.42534e+06
115385
564666
3.78771e+06
41139
59131.6
81947.7
221470
0
0
0
116.003
0
0
0
0
0
0
0
0
0
0
0
0
0
0
0
0
0
0
0
0
0
0
0
0
0
0
0
0
0
0
0
0
0
0
0
0
0
0
0
0
0
0
0
0
0
0
0
0
0
0
0
0
0
0
0
0
0
0
0
0
0
0
0
0
72393.2
136029
103810
92044.9
232701
278685
182791
176712
324063
250101
218639
1.63399e+07
592140
491055
157971
284714
2.32095e+06
225839
176034
327004
8.4233e+06
84745.6
325426
251076
25809.1
30965.8
35132.9
27041.8
0
0
0
0
0
0
0
0
0
0
0
0
0
0
0
0
0
0
0
0
0
0
0
0
0
0
0
0
0
0
0
0
0
0
0
0
0
0
0
0
0
0
0
0
0
0
0
0
0
0
0
0
0
0
0
0
0
0
0
0
0
0
0
0
0
0
0
0
)
;
    }
    procBoundary0to2
    {
        type            processor;
        value           nonuniform List<scalar> 
192
(
167383
214931
137157
141785
168358
361933
205148
2.21248e+07
352243
276260
240279
102281
170249
2.1305e+06
284366
344822
2.70726e+06
197774
182527
119670
117724
292181
337612
1.78371e+06
83192.7
75286
71086.7
61481.4
0
0
0
0
0
0
0
0
0
0
0
0
0
0
0
0
0
0
0
0
0
0
0
0
0
0
0
0
0
0
0
0
0
0
0
0
0
0
0
0
0
0
0
0
0
0
0
0
0
0
0
0
0
0
0
0
0
0
0
0
0
0
0
0
0
0
0
0
122012
71321.5
162216
98950
408459
259998
802811
517372
167417
96141.9
275217
135783
273383
148766
275219
201480
148324
270027
329229
169693
217360
85032.1
344733
165462
34879.2
14997.4
45860.4
22574.8
0
0
0
0
0
0
0
0
0
0
0
0
0
0
0
0
0
0
0
0
0
0
0
0
0
0
0
0
0
0
0
0
0
0
0
0
0
0
0
0
0
0
0
0
0
0
0
0
0
0
0
0
0
0
0
0
0
0
0
0
0
0
0
0
0
0
0
0
)
;
    }
}


// ************************************************************************* //
