/*--------------------------------*- C++ -*----------------------------------*\
| =========                 |                                                 |
| \\      /  F ield         | OpenFOAM: The Open Source CFD Toolbox           |
|  \\    /   O peration     | Version:  2506                                  |
|   \\  /    A nd           | Website:  www.openfoam.com                      |
|    \\/     M anipulation  |                                                 |
\*---------------------------------------------------------------------------*/
FoamFile
{
    version     2.0;
    format      ascii;
    arch        "LSB;label=32;scalar=64";
    class       volScalarField;
    location    "0.03";
    object      p;
}
// * * * * * * * * * * * * * * * * * * * * * * * * * * * * * * * * * * * * * //

dimensions      [0 2 -2 0 0 0 0];

internalField   nonuniform List<scalar> 
1152
(
11.0145
10.9367
10.9279
11.0797
10.9894
10.9526
11.055
11.0716
11.0192
10.96
10.9402
10.9987
10.9883
10.9377
10.9686
11.0079
9.54668
9.60311
9.63695
9.55909
9.64418
9.69367
9.51692
9.51865
9.70866
9.68519
9.71193
9.53114
9.69793
9.83051
9.79834
9.74994
7.49004
7.57101
7.84449
7.12562
7.34366
7.70366
7.57285
7.52549
7.59502
7.7312
7.7501
7.35365
7.67495
7.55954
7.65788
7.3583
5.49391
5.52026
5.52456
5.62816
5.39622
5.39241
5.55719
5.5159
5.36821
5.44608
5.54806
5.5338
5.16541
5.61183
5.62976
5.71504
3.39563
3.32197
3.18721
3.36261
3.42322
3.29948
3.4317
3.43903
3.13936
3.26763
3.53338
3.63339
3.18011
3.4701
3.576
3.98816
1.24837
1.35664
1.3991
1.49252
1.23616
1.38587
1.53012
1.61472
1.30123
1.42974
1.48788
1.57689
1.31618
1.47855
1.64526
1.65682
1.00729
1.0142
1.01411
1.01359
1.01251
1.01403
1.0127
1.00856
1.01367
1.01564
1.01113
1.02785
1.01854
1.01156
1.00583
1.01184
1.0051
1.00534
1.00542
1.00549
1.00567
1.00542
1.00537
1.00526
1.00589
1.00553
1.00512
1.0054
1.00612
1.0052
1.00428
1.00239
1.00865
1.00889
1.0088
1.00886
1.00884
1.00877
1.00841
1.00817
1.00876
1.00871
1.00808
1.00827
1.0088
1.00836
1.00757
1.00747
1.00704
1.00709
1.00705
1.00709
1.00706
1.00699
1.00682
1.00673
1.00703
1.00692
1.00663
1.00652
1.007
1.00679
1.00645
1.00624
1.00686
1.00685
1.00683
1.00683
1.00681
1.00676
1.00668
1.00665
1.00676
1.0067
1.00658
1.00652
1.00672
1.00663
1.0065
1.00643
1.0063
1.0063
1.00629
1.00629
1.00627
1.00624
1.00621
1.0062
1.00624
1.0062
1.00615
1.00612
1.0062
1.00616
1.0061
1.00607
1.0058
1.00579
1.00579
1.00579
1.00577
1.00575
1.00574
1.00573
1.00574
1.00572
1.0057
1.00569
1.00572
1.0057
1.00567
1.00565
1.00529
1.00528
1.00528
1.00528
1.00527
1.00526
1.00525
1.00525
1.00525
1.00524
1.00522
1.00522
1.00523
1.00522
1.0052
1.00519
1.00478
1.00478
1.00477
1.00477
1.00476
1.00476
1.00475
1.00475
1.00475
1.00474
1.00474
1.00473
1.00474
1.00473
1.00472
1.00472
1.00427
1.00427
1.00427
1.00427
1.00426
1.00426
1.00426
1.00425
1.00425
1.00425
1.00424
1.00424
1.00424
1.00424
1.00423
1.00423
1.00376
1.00376
1.00376
1.00376
1.00376
1.00376
1.00375
1.00375
1.00375
1.00375
1.00375
1.00374
1.00375
1.00374
1.00374
1.00374
1.00326
1.00326
1.00326
1.00326
1.00326
1.00326
1.00325
1.00325
1.00325
1.00325
1.00325
1.00325
1.00325
1.00325
1.00324
1.00324
1.00276
1.00276
1.00276
1.00276
1.00275
1.00275
1.00275
1.00275
1.00275
1.00275
1.00275
1.00275
1.00275
1.00275
1.00275
1.00274
1.00226
1.00225
1.00225
1.00225
1.00225
1.00225
1.00225
1.00225
1.00225
1.00225
1.00225
1.00225
1.00225
1.00225
1.00225
1.00225
1.00175
1.00175
1.00175
1.00175
1.00175
1.00175
1.00175
1.00175
1.00175
1.00175
1.00175
1.00175
1.00175
1.00175
1.00175
1.00175
1.00125
1.00125
1.00125
1.00125
1.00125
1.00125
1.00125
1.00125
1.00125
1.00125
1.00125
1.00125
1.00125
1.00125
1.00125
1.00125
1.00075
1.00075
1.00075
1.00075
1.00075
1.00075
1.00075
1.00075
1.00075
1.00075
1.00075
1.00075
1.00075
1.00075
1.00075
1.00075
1.00025
1.00025
1.00025
1.00025
1.00025
1.00025
1.00025
1.00025
1.00025
1.00025
1.00025
1.00025
1.00025
1.00025
1.00025
1.00025
10.8003
10.8514
10.8945
10.948
11.0504
10.9195
10.9333
10.9423
10.983
10.9528
10.9962
11.0207
11.0823
11.0073
10.9615
10.9611
9.37461
9.45097
9.5836
9.54154
9.26932
9.46
9.60323
9.55427
9.47826
9.64427
9.56402
9.67031
9.48252
9.57191
9.74597
9.64723
7.5837
7.55046
7.46636
7.45957
7.4548
7.41311
7.41205
7.3984
7.30652
7.28063
7.30517
7.42687
7.13184
7.5243
7.55191
7.5058
5.40239
5.51215
5.36879
5.62959
5.59573
5.44212
5.4251
5.48756
5.17557
5.30683
5.28463
5.27903
5.16028
5.13449
5.12839
5.40068
3.39411
3.38459
3.29316
3.12527
3.29142
3.38825
3.23104
3.25061
3.28905
3.22248
3.27662
3.15938
3.21455
3.06029
3.06075
3.13487
1.4608
1.25885
1.23536
1.22379
1.3691
1.25653
1.17496
1.20505
1.24943
1.13127
1.19008
1.24664
1.37869
1.22269
1.17836
1.23777
1.01368
1.00897
1.00995
1.00972
1.00889
1.01185
1.01251
1.01255
1.01534
1.01549
1.01446
1.0122
1.01815
1.01515
1.01354
1.01313
1.00533
1.00532
1.00552
1.00553
1.00553
1.00591
1.00617
1.00615
1.00638
1.00691
1.0064
1.00621
1.00629
1.00627
1.00635
1.0061
1.00899
1.00883
1.00885
1.00879
1.00854
1.00862
1.00871
1.00878
1.00921
1.00913
1.00888
1.0087
1.00908
1.00892
1.00882
1.0087
1.00709
1.00711
1.00709
1.00706
1.00703
1.00709
1.0071
1.00707
1.00732
1.00733
1.00722
1.0071
1.00721
1.0072
1.00715
1.00706
1.00695
1.00693
1.00692
1.00689
1.00686
1.00685
1.00685
1.00684
1.00695
1.00692
1.00687
1.00682
1.00687
1.00685
1.00682
1.00677
1.00632
1.00633
1.00632
1.00631
1.00629
1.0063
1.00629
1.00628
1.00633
1.00633
1.0063
1.00627
1.00629
1.00629
1.00627
1.00624
1.00582
1.00582
1.00581
1.0058
1.00579
1.00579
1.00579
1.00578
1.0058
1.00579
1.00578
1.00576
1.00577
1.00577
1.00576
1.00574
1.0053
1.0053
1.00529
1.00529
1.00528
1.00528
1.00528
1.00527
1.00528
1.00528
1.00527
1.00526
1.00526
1.00526
1.00525
1.00524
1.00479
1.00478
1.00478
1.00478
1.00477
1.00477
1.00477
1.00477
1.00477
1.00477
1.00476
1.00476
1.00476
1.00475
1.00475
1.00475
1.00428
1.00427
1.00427
1.00427
1.00427
1.00427
1.00427
1.00426
1.00426
1.00426
1.00426
1.00426
1.00425
1.00425
1.00425
1.00425
1.00377
1.00377
1.00377
1.00377
1.00376
1.00376
1.00376
1.00376
1.00376
1.00376
1.00376
1.00375
1.00375
1.00375
1.00375
1.00375
1.00326
1.00326
1.00326
1.00326
1.00326
1.00326
1.00326
1.00326
1.00326
1.00326
1.00325
1.00325
1.00325
1.00325
1.00325
1.00325
1.00276
1.00276
1.00276
1.00276
1.00276
1.00276
1.00276
1.00276
1.00275
1.00275
1.00275
1.00275
1.00275
1.00275
1.00275
1.00275
1.00226
1.00226
1.00226
1.00226
1.00226
1.00225
1.00225
1.00225
1.00225
1.00225
1.00225
1.00225
1.00225
1.00225
1.00225
1.00225
1.00175
1.00175
1.00175
1.00175
1.00175
1.00175
1.00175
1.00175
1.00175
1.00175
1.00175
1.00175
1.00175
1.00175
1.00175
1.00175
1.00125
1.00125
1.00125
1.00125
1.00125
1.00125
1.00125
1.00125
1.00125
1.00125
1.00125
1.00125
1.00125
1.00125
1.00125
1.00125
1.00075
1.00075
1.00075
1.00075
1.00075
1.00075
1.00075
1.00075
1.00075
1.00075
1.00075
1.00075
1.00075
1.00075
1.00075
1.00075
1.00025
1.00025
1.00025
1.00025
1.00025
1.00025
1.00025
1.00025
1.00025
1.00025
1.00025
1.00025
1.00025
1.00025
1.00025
1.00025
10.7929
10.8966
10.9329
10.9761
10.8849
10.851
10.8923
10.8896
10.9223
10.8884
10.8725
10.8688
10.9235
10.9574
10.9523
10.9366
9.51008
9.41606
9.53244
9.34853
9.49845
9.34244
9.45077
9.4426
9.26491
9.32305
9.47906
9.62584
9.44921
9.41532
9.51365
9.35742
7.46091
7.45914
7.41432
7.23588
7.44603
7.36543
7.4997
7.4874
7.45734
7.47632
7.6228
7.41944
7.50134
7.61228
7.56096
7.46468
5.38698
5.43575
5.40563
5.32216
5.47441
5.54055
5.472
5.38683
5.68977
5.64481
5.52371
5.37703
5.58861
5.60146
5.45445
5.56876
3.45816
3.33915
3.34051
3.37167
3.34526
3.41223
3.38414
3.3725
3.38962
3.38415
3.36586
3.23687
3.48213
3.28627
3.27859
3.178
1.67007
1.62236
1.57663
1.63545
1.51829
1.68241
1.53853
1.47803
1.4255
1.45433
1.29056
1.2323
1.2613
1.3183
1.33909
1.38931
1.01043
1.0128
1.00675
1.03259
1.01446
1.0094
1.00725
0.998218
1.01071
1.01427
1.01067
1.00893
1.0069
1.01319
1.0122
1.01167
1.00484
1.00519
1.0066
1.01097
1.005
1.00517
1.00583
1.00803
1.00499
1.00519
1.00554
1.00665
1.00505
1.00534
1.00543
1.00574
1.00885
1.00924
1.00935
1.00987
1.00885
1.00901
1.00924
1.00969
1.00882
1.00912
1.00917
1.00955
1.00878
1.00904
1.009
1.0091
1.00701
1.00723
1.00744
1.00822
1.00706
1.00722
1.00743
1.00795
1.00705
1.00722
1.00734
1.00766
1.00704
1.00717
1.00721
1.00732
1.00696
1.00706
1.00716
1.00746
1.00694
1.00702
1.00712
1.00733
1.00693
1.00699
1.00705
1.00717
1.00692
1.00694
1.00695
1.00699
1.00634
1.00642
1.00649
1.00662
1.00635
1.00641
1.00648
1.00657
1.00634
1.00639
1.00643
1.00649
1.00633
1.00636
1.00637
1.00639
1.00584
1.00588
1.00591
1.00596
1.00584
1.00587
1.0059
1.00594
1.00583
1.00585
1.00587
1.0059
1.00582
1.00583
1.00584
1.00584
1.00531
1.00534
1.00536
1.00538
1.00531
1.00533
1.00535
1.00536
1.00531
1.00532
1.00533
1.00534
1.0053
1.00531
1.00531
1.00531
1.0048
1.00481
1.00482
1.00483
1.00479
1.00481
1.00481
1.00482
1.00479
1.0048
1.0048
1.00481
1.00479
1.00479
1.00479
1.00479
1.00428
1.00429
1.0043
1.0043
1.00428
1.00429
1.00429
1.0043
1.00428
1.00428
1.00429
1.00429
1.00428
1.00428
1.00428
1.00428
1.00377
1.00378
1.00378
1.00378
1.00377
1.00378
1.00378
1.00378
1.00377
1.00377
1.00378
1.00378
1.00377
1.00377
1.00377
1.00377
1.00327
1.00327
1.00327
1.00327
1.00327
1.00327
1.00327
1.00327
1.00327
1.00327
1.00327
1.00327
1.00326
1.00326
1.00326
1.00326
1.00276
1.00276
1.00276
1.00276
1.00276
1.00276
1.00276
1.00276
1.00276
1.00276
1.00276
1.00276
1.00276
1.00276
1.00276
1.00276
1.00226
1.00226
1.00226
1.00226
1.00226
1.00226
1.00226
1.00226
1.00226
1.00226
1.00226
1.00226
1.00226
1.00226
1.00226
1.00226
1.00176
1.00176
1.00176
1.00176
1.00176
1.00176
1.00176
1.00176
1.00175
1.00175
1.00175
1.00175
1.00175
1.00175
1.00175
1.00175
1.00125
1.00125
1.00125
1.00125
1.00125
1.00125
1.00125
1.00125
1.00125
1.00125
1.00125
1.00125
1.00125
1.00125
1.00125
1.00125
1.00075
1.00075
1.00075
1.00075
1.00075
1.00075
1.00075
1.00075
1.00075
1.00075
1.00075
1.00075
1.00075
1.00075
1.00075
1.00075
1.00025
1.00025
1.00025
1.00025
1.00025
1.00025
1.00025
1.00025
1.00025
1.00025
1.00025
1.00025
1.00025
1.00025
1.00025
1.00025
)
;

boundaryField
{
    inlet
    {
        type            zeroGradient;
    }
    outlet
    {
        type            fixedValue;
        value           uniform 1;
    }
    wall
    {
        type            zeroGradient;
    }
    procBoundary0to1
    {
        type            processor;
        value           nonuniform List<scalar> 
192
(
10.8794
10.9487
10.9312
10.9301
9.7075
9.74719
9.69666
9.60243
7.60654
7.61827
7.52403
7.67001
5.71586
5.39237
5.44743
5.77573
3.33686
3.26578
3.65731
3.88282
1.2929
1.50563
1.48046
1.94143
1.01445
1.01758
1.00656
0.946634
1.00551
1.00486
1.0028
0.995539
1.00882
1.00838
1.00755
1.00799
1.00704
1.00671
1.0063
1.00619
1.0068
1.00663
1.00647
1.0064
1.00628
1.00618
1.0061
1.00605
1.00578
1.00572
1.00567
1.00564
1.00527
1.00524
1.00521
1.00519
1.00477
1.00475
1.00473
1.00471
1.00426
1.00425
1.00424
1.00423
1.00376
1.00375
1.00374
1.00373
1.00326
1.00325
1.00325
1.00324
1.00275
1.00275
1.00275
1.00274
1.00225
1.00225
1.00225
1.00224
1.00175
1.00175
1.00175
1.00175
1.00125
1.00125
1.00125
1.00125
1.00075
1.00075
1.00075
1.00075
1.00025
1.00025
1.00025
1.00025
10.8716
10.9133
10.8724
10.8626
9.92077
9.68762
9.64193
9.62288
7.77367
7.62056
7.38633
7.485
5.49173
5.2743
5.30598
5.4562
3.2211
2.8717
3.26754
3.25001
0.681305
1.26667
1.22539
1.15577
1.05496
1.01955
1.00379
1.0087
1.04006
1.01707
1.00854
1.0065
1.00282
1.00891
1.00907
1.00892
1.00818
1.00795
1.00756
1.00726
1.00727
1.00724
1.00711
1.00695
1.00652
1.00652
1.00646
1.00637
1.00592
1.00591
1.00588
1.00583
1.00536
1.00535
1.00533
1.00531
1.00482
1.00481
1.0048
1.00479
1.0043
1.00429
1.00429
1.00428
1.00378
1.00378
1.00377
1.00377
1.00327
1.00327
1.00327
1.00326
1.00276
1.00276
1.00276
1.00276
1.00226
1.00226
1.00226
1.00225
1.00176
1.00175
1.00175
1.00175
1.00125
1.00125
1.00125
1.00125
1.00075
1.00075
1.00075
1.00075
1.00025
1.00025
1.00025
1.00025
)
;
    }
    procBoundary0to2
    {
        type            processor;
        value           nonuniform List<scalar> 
192
(
10.9987
11.0666
11.0286
10.935
9.60616
9.59402
9.60269
9.27555
7.57074
7.67297
7.80784
7.92249
5.47085
5.50421
5.59737
5.84921
3.1423
3.38331
3.57321
3.65057
1.40151
1.47144
1.56791
1.66241
1.01325
1.01306
1.01208
1.01289
1.00564
1.00509
1.00411
1.00261
1.00857
1.00829
1.00788
1.00772
1.00694
1.00675
1.0065
1.0063
1.0067
1.0066
1.00648
1.0064
1.00619
1.00614
1.00608
1.00604
1.0057
1.00568
1.00565
1.00563
1.00522
1.0052
1.00519
1.00518
1.00473
1.00472
1.00471
1.00471
1.00424
1.00423
1.00423
1.00422
1.00374
1.00374
1.00373
1.00373
1.00324
1.00324
1.00324
1.00324
1.00275
1.00274
1.00274
1.00274
1.00225
1.00225
1.00224
1.00224
1.00175
1.00175
1.00175
1.00175
1.00125
1.00125
1.00125
1.00125
1.00075
1.00075
1.00075
1.00075
1.00025
1.00025
1.00025
1.00025
10.9212
10.8471
11.0164
10.9731
9.33197
9.24582
9.46683
9.54029
7.26461
7.30179
7.32232
7.41077
5.28398
5.5536
5.43954
5.45601
3.10838
2.99241
3.21716
3.21158
1.28285
1.21558
1.18332
1.24302
1.0141
1.01633
1.01069
1.01672
1.00632
1.00693
1.00597
1.00628
1.00909
1.00916
1.00876
1.00881
1.00722
1.0073
1.00714
1.00708
1.0069
1.00688
1.00682
1.00677
1.0063
1.00629
1.00626
1.00623
1.00577
1.00576
1.00575
1.00573
1.00526
1.00525
1.00524
1.00523
1.00475
1.00475
1.00474
1.00474
1.00425
1.00425
1.00424
1.00424
1.00375
1.00375
1.00375
1.00374
1.00325
1.00325
1.00325
1.00325
1.00275
1.00275
1.00275
1.00275
1.00225
1.00225
1.00225
1.00225
1.00175
1.00175
1.00175
1.00175
1.00125
1.00125
1.00125
1.00125
1.00075
1.00075
1.00075
1.00075
1.00025
1.00025
1.00025
1.00025
)
;
    }
}


// ************************************************************************* //
