/*--------------------------------*- C++ -*----------------------------------*\
| =========                 |                                                 |
| \\      /  F ield         | OpenFOAM: The Open Source CFD Toolbox           |
|  \\    /   O peration     | Version:  2506                                  |
|   \\  /    A nd           | Website:  www.openfoam.com                      |
|    \\/     M anipulation  |                                                 |
\*---------------------------------------------------------------------------*/
FoamFile
{
    version     2.0;
    format      ascii;
    arch        "LSB;label=32;scalar=64";
    class       volVectorField;
    location    "0.03";
    object      stored_U;
}
// * * * * * * * * * * * * * * * * * * * * * * * * * * * * * * * * * * * * * //

dimensions      [0 1 -1 0 0 0 0];

internalField   nonuniform List<vector> 
1152
(
(-9.33103e-05 -0.0003241 0.00648961)
(0.000883019 0.000405286 0.0112962)
(-0.00191038 -0.000835456 0.0127012)
(0.000192266 -0.000229344 0.00363621)
(-7.68598e-05 0.000186562 0.00863811)
(-0.000851964 7.31541e-05 0.0123073)
(-0.000934847 0.000163584 0.00865538)
(0.000502512 0.000717308 0.00797914)
(0.00086611 0.000197248 0.0114234)
(0.000754907 3.78386e-05 0.00818759)
(-0.000793665 0.00128064 0.0128265)
(-0.000363253 0.000730962 0.014395)
(0.000306676 0.000263665 0.00898687)
(0.000429699 -0.002621 0.0222731)
(-0.00116803 -0.00117421 0.0118839)
(8.62288e-05 -5.54428e-05 0.0100495)
(-0.000225975 -0.000755118 0.0119639)
(-0.000713395 -0.00200058 0.0194397)
(0.000319765 0.000739865 0.0241244)
(5.31102e-06 0.000100792 0.00324034)
(-0.000877287 -0.00089577 0.0196573)
(0.000806362 -0.000302118 0.0186432)
(0.000288415 0.000137074 0.00293032)
(-0.00121222 0.000889724 0.0152135)
(1.60955e-05 5.4149e-05 0.00815278)
(0.000233167 -0.00086372 0.0216795)
(0.00218239 -0.00261104 0.0260635)
(-5.8163e-05 -5.53439e-05 0.00252454)
(-0.00101197 0.000811638 0.0166677)
(-0.000185855 0.000297544 0.00760797)
(0.000631328 0.000818852 0.0157775)
(0.000953062 0.000973105 0.0128054)
(-0.000267201 0.000763057 0.00959464)
(-0.00144989 -9.72256e-06 0.0139427)
(0.000992665 0.000410033 0.00649759)
(-3.74706e-05 3.92502e-05 0.000557141)
(-0.000329512 4.99838e-05 0.00579885)
(-0.000484927 -0.000138747 0.00975036)
(0.00312041 0.00214377 0.0272116)
(0.00021805 -9.97377e-05 0.0168248)
(-0.00124268 -0.00140619 0.0178863)
(-0.000214641 0.000969175 0.0154175)
(0.00102636 3.82158e-05 0.00650175)
(0.00360273 0.00350221 0.0353923)
(0.000155594 0.000185808 0.0109217)
(0.00139936 0.00102889 0.0315844)
(0.000852263 0.000139696 0.00790832)
(-0.000102879 -0.000127635 0.00276413)
(0.000818659 0.00140784 0.0131226)
(6.059e-05 0.00288531 0.0305187)
(-0.000188274 5.57932e-05 0.0108292)
(-0.000867796 0.00171666 0.0229172)
(0.00172689 0.00182237 0.0329791)
(-0.000350157 0.000663956 0.0131869)
(-0.000387162 0.000543327 0.0175197)
(0.0018397 0.00330527 0.0184084)
(-0.000223201 0.000527849 0.00747334)
(-0.000355162 -0.000538539 0.0157187)
(0.00144207 0.000745971 0.0151737)
(-7.05064e-05 -7.85431e-06 0.000779987)
(-0.000144706 -0.000396884 0.00694514)
(-0.00195555 -0.000275188 0.0303571)
(0.00187561 0.000352772 0.0182518)
(0.00745977 -0.0057764 0.0395634)
(-0.000954283 0.000519379 0.0139525)
(0.000669087 0.000216277 0.009204)
(-1.61405e-05 -0.000139973 0.00854031)
(-0.000501896 -0.00061691 0.0165236)
(-0.000162643 0.00117695 0.0128877)
(0.000314271 0.000735577 0.0195785)
(-0.000374939 -0.00166287 0.020422)
(0.000898467 -0.000447734 0.0108608)
(-0.000321509 0.00137753 0.0154726)
(-0.00197929 -0.000771855 0.020517)
(-0.000429859 -6.74639e-05 0.00500946)
(0.00265942 -0.00144689 0.0344047)
(-0.00311359 -7.42992e-07 0.0323282)
(-0.000787564 -7.44427e-05 0.00687454)
(-0.000409175 7.72985e-05 0.00790652)
(-7.84972e-05 2.03339e-05 0.00109902)
(-0.000374617 0.000207359 0.00601276)
(-0.00133087 -0.000585752 0.0179498)
(-0.000946061 -0.00124323 0.0138344)
(0.00115929 -0.00133372 0.0142308)
(-0.00103389 -0.0004498 0.0123602)
(-0.00178421 -0.000296825 0.0122307)
(-0.000780272 -0.000152677 0.00849725)
(0.000496762 -0.00030765 0.0142599)
(-0.00112139 -0.000518086 0.0119285)
(-0.00140106 -0.000617904 0.0142613)
(-0.000345739 -0.000228137 0.0068205)
(0.000611638 -0.000239196 0.0162272)
(-0.00105165 -0.000353615 0.00787345)
(-0.00203234 -0.000128079 0.0126853)
(-0.000994184 -0.000425857 0.012757)
(-0.00516819 -0.000972761 0.0159902)
(0.00024607 0.000235581 0.0075232)
(-6.39029e-05 0.000225844 0.0110834)
(0.000189954 0.000179182 0.00983679)
(-4.54194e-05 0.000260965 0.00865621)
(-8.24553e-05 -0.000361542 0.0130596)
(0.000253359 8.9892e-05 0.0116597)
(0.000306414 0.00034656 0.00794248)
(0.000248261 -3.3218e-05 0.0033908)
(-0.000123563 -0.000629955 0.0104531)
(0.000530097 -0.000193959 0.0117045)
(7.31515e-05 0.000175572 0.00602825)
(0.000712155 0.00026393 0.0219294)
(0.000104826 -0.000701412 0.0169945)
(0.000215956 2.82488e-05 0.00707875)
(0.000329985 -0.000392507 0.0032392)
(0.00245834 3.28981e-07 0.0108545)
(0.000337942 -0.00102803 0.0143322)
(-3.28706e-05 -0.000180445 0.016713)
(-6.86346e-05 0.000176729 0.0146572)
(-0.000431849 0.000334584 0.0137147)
(0.000398783 -0.000785687 0.0184894)
(0.000566218 -0.000188837 0.0166742)
(0.000237572 0.000163049 0.0116697)
(-0.00018986 -1.54097e-05 0.00914124)
(0.000545381 -0.000441949 0.0155341)
(0.000669643 -3.24063e-05 0.0159173)
(8.77948e-05 8.18227e-05 0.0110574)
(0.000129892 0.000263664 0.0224082)
(0.000736407 -0.000164948 0.0164689)
(0.000952725 -4.73163e-06 0.0112871)
(0.000637692 -0.000110124 0.00723128)
(-6.63709e-05 0.000291071 0.0182205)
(0.000269144 -0.000109899 0.0042157)
(0.000286236 0.0002019 0.00430672)
(0.000279282 0.000394701 0.00378673)
(-9.72855e-05 0.000244112 0.00370329)
(-5.31837e-06 8.06819e-05 0.00467477)
(0.000657917 0.000196758 0.00415895)
(0.000367242 0.000180565 0.00319698)
(-0.000401994 -0.000807993 0.00313072)
(-0.000251753 0.000317875 0.00425937)
(0.00031315 0.0004562 0.00393476)
(-0.000707227 0.000177412 0.00319382)
(-0.00087441 -0.000956956 0.00490807)
(9.86484e-05 0.00027977 0.00437043)
(0.0004783 0.000398742 0.00326946)
(-0.0010355 8.13588e-05 0.00266164)
(-0.00243879 0.000340894 0.00421747)
(8.82601e-05 -0.000143012 0.0088867)
(0.000129206 1.2088e-05 0.00890155)
(7.82288e-05 0.000100274 0.00859737)
(-3.96169e-05 6.63867e-05 0.00860652)
(4.44313e-05 5.34775e-07 0.0089243)
(0.000253247 6.57619e-05 0.0087531)
(9.50995e-05 4.07645e-05 0.0083085)
(-0.000145988 -0.000279385 0.00839179)
(1.3472e-05 0.000123539 0.0086641)
(0.000152395 0.000167293 0.00861775)
(-0.000260546 5.29186e-05 0.00834719)
(-0.000340653 -0.000308062 0.00922355)
(8.23121e-05 0.000152588 0.00857512)
(0.000174379 0.000191547 0.00828545)
(-0.000375486 8.50072e-05 0.00810814)
(-0.000699384 0.000132225 0.00919631)
(0.000143533 4.13399e-05 0.00729666)
(0.000141996 3.39303e-05 0.00730826)
(8.20434e-05 1.81014e-05 0.00721732)
(3.66511e-05 -2.00207e-05 0.00725766)
(7.94313e-05 8.59921e-05 0.00732037)
(0.000127472 5.98082e-05 0.00726642)
(4.89336e-05 1.13877e-05 0.00713346)
(-2.46897e-05 -0.000108764 0.00719397)
(3.66088e-05 0.000105592 0.00727046)
(6.30425e-05 8.57836e-05 0.00723274)
(-8.4145e-05 2.17163e-05 0.00715445)
(-0.000113198 -0.000103948 0.00742958)
(2.45399e-05 9.25327e-05 0.00721586)
(4.13471e-05 9.0994e-05 0.00712619)
(-0.000139898 4.60151e-05 0.00707877)
(-0.000217114 3.81322e-05 0.00741087)
(5.75014e-05 -1.33888e-05 0.00756098)
(6.27068e-05 -1.07403e-05 0.00754238)
(3.93875e-05 -1.83805e-05 0.00749846)
(3.03092e-05 -3.06342e-05 0.00750683)
(4.02039e-05 2.28958e-05 0.00754545)
(5.37572e-05 1.26135e-05 0.00752186)
(2.30478e-05 -8.71127e-06 0.00747687)
(3.3805e-06 -4.88875e-05 0.00749936)
(2.70953e-05 4.165e-05 0.00751557)
(2.94886e-05 2.95437e-05 0.00750369)
(-2.1749e-05 3.07184e-06 0.00748396)
(-3.25038e-05 -3.90629e-05 0.00757081)
(1.67108e-05 4.28789e-05 0.00747885)
(1.4787e-05 3.73157e-05 0.00746215)
(-4.55967e-05 1.88844e-05 0.00745728)
(-6.6638e-05 8.99753e-06 0.0075651)
(4.02184e-05 -5.4985e-06 0.007478)
(3.99358e-05 -1.11003e-05 0.00748278)
(2.75506e-05 -1.8993e-05 0.00747207)
(2.3727e-05 -2.48879e-05 0.00747668)
(2.79991e-05 1.03716e-05 0.00748865)
(3.08355e-05 1.60865e-06 0.00748584)
(1.7693e-05 -1.04609e-05 0.00747373)
(1.07609e-05 -2.57793e-05 0.00748275)
(1.98602e-05 1.86796e-05 0.00748479)
(1.85028e-05 1.01622e-05 0.00748312)
(3.07565e-07 -2.50079e-06 0.00747873)
(-4.43286e-06 -1.8662e-05 0.00750643)
(1.23064e-05 1.9463e-05 0.00747008)
(9.53875e-06 1.41257e-05 0.0074684)
(-1.09971e-05 5.42432e-06 0.00747003)
(-1.75892e-05 -1.20722e-06 0.00750514)
(2.29533e-05 -6.8607e-06 0.00746325)
(2.32841e-05 -1.03527e-05 0.00747168)
(1.81061e-05 -1.49132e-05 0.00746956)
(1.62498e-05 -1.7646e-05 0.00747048)
(1.71123e-05 1.34244e-06 0.00747728)
(1.81673e-05 -3.43964e-06 0.00747974)
(1.31179e-05 -9.45134e-06 0.00747627)
(1.02816e-05 -1.56986e-05 0.00747854)
(1.30851e-05 6.13699e-06 0.00747939)
(1.22335e-05 1.38037e-06 0.00748078)
(5.85819e-06 -4.62538e-06 0.0074799)
(3.7364e-06 -1.12118e-05 0.00748781)
(8.88897e-06 7.29676e-06 0.00747391)
(7.34389e-06 3.83849e-06 0.00747568)
(5.13178e-07 -4.01648e-07 0.00747716)
(-1.64169e-06 -4.00733e-06 0.00748844)
(1.39283e-05 -5.74383e-06 0.00745333)
(1.43776e-05 -7.91917e-06 0.00746593)
(1.21556e-05 -1.03729e-05 0.00746824)
(1.09329e-05 -1.18193e-05 0.00746865)
(1.09578e-05 -1.70406e-06 0.00747045)
(1.16215e-05 -4.3511e-06 0.00747606)
(9.60193e-06 -7.34544e-06 0.00747603)
(8.15475e-06 -1.01617e-05 0.00747625)
(8.7099e-06 9.31791e-07 0.00747585)
(8.63706e-06 -1.69977e-06 0.00747905)
(6.34251e-06 -4.6494e-06 0.00747926)
(5.25951e-06 -7.55111e-06 0.00748122)
(6.49231e-06 1.87136e-06 0.00747504)
(6.01751e-06 -2.2619e-07 0.00747798)
(3.74124e-06 -2.41687e-06 0.00747905)
(2.97599e-06 -4.21479e-06 0.00748235)
(8.65515e-06 -4.50408e-06 0.00744861)
(9.13892e-06 -5.71666e-06 0.00746339)
(8.20795e-06 -6.9654e-06 0.00746778)
(7.38511e-06 -7.72745e-06 0.0074685)
(7.15461e-06 -2.5076e-06 0.00746676)
(7.721e-06 -3.92458e-06 0.00747397)
(6.92302e-06 -5.42421e-06 0.00747538)
(6.11774e-06 -6.72035e-06 0.00747528)
(5.93689e-06 -1.05063e-06 0.00747354)
(6.18792e-06 -2.47228e-06 0.00747772)
(5.40799e-06 -3.95281e-06 0.00747834)
(4.85038e-06 -5.30382e-06 0.00747864)
(4.7919e-06 -3.76475e-07 0.00747485)
(4.81698e-06 -1.59758e-06 0.00747826)
(4.09034e-06 -2.73883e-06 0.00747903)
(3.84943e-06 -3.6323e-06 0.00747982)
(5.53764e-06 -3.36523e-06 0.00744602)
(5.95219e-06 -4.01913e-06 0.00746208)
(5.58039e-06 -4.63614e-06 0.00746761)
(5.0534e-06 -5.01169e-06 0.00746879)
(4.77606e-06 -2.40063e-06 0.00746449)
(5.24797e-06 -3.14453e-06 0.00747263)
(4.95158e-06 -3.88121e-06 0.0074748)
(4.49286e-06 -4.49064e-06 0.00747486)
(4.12922e-06 -1.58426e-06 0.00747187)
(4.4622e-06 -2.35959e-06 0.00747664)
(4.23015e-06 -3.1078e-06 0.00747757)
(3.93717e-06 -3.73389e-06 0.00747746)
(3.52728e-06 -1.13453e-06 0.0074741)
(3.73123e-06 -1.84444e-06 0.00747779)
(3.57998e-06 -2.45025e-06 0.0074785)
(3.50188e-06 -2.88337e-06 0.00747856)
(3.61237e-06 -2.45863e-06 0.00744461)
(3.94644e-06 -2.79432e-06 0.00746142)
(3.81706e-06 -3.08549e-06 0.00746761)
(3.49424e-06 -3.2489e-06 0.00746919)
(3.23776e-06 -2.00316e-06 0.00746312)
(3.61573e-06 -2.3785e-06 0.00747182)
(3.5222e-06 -2.73535e-06 0.00747445)
(3.26038e-06 -3.011e-06 0.00747475)
(2.90333e-06 -1.53757e-06 0.00747072)
(3.21421e-06 -1.9567e-06 0.00747586)
(3.18092e-06 -2.33353e-06 0.00747703)
(3.02254e-06 -2.62058e-06 0.00747693)
(2.59131e-06 -1.25211e-06 0.00747332)
(2.82915e-06 -1.65542e-06 0.00747723)
(2.86218e-06 -1.98047e-06 0.00747799)
(2.82856e-06 -2.19679e-06 0.00747787)
(2.39473e-06 -1.76084e-06 0.00744381)
(2.65254e-06 -1.92924e-06 0.00746107)
(2.61703e-06 -2.05703e-06 0.00746766)
(2.4278e-06 -2.10921e-06 0.00746953)
(2.21635e-06 -1.55322e-06 0.00746228)
(2.50231e-06 -1.74122e-06 0.00747131)
(2.49305e-06 -1.9045e-06 0.00747424)
(2.34469e-06 -2.01782e-06 0.00747475)
(2.05028e-06 -1.28933e-06 0.00746993)
(2.30437e-06 -1.51136e-06 0.00747531)
(2.3375e-06 -1.69723e-06 0.00747667)
(2.24692e-06 -1.82051e-06 0.00747667)
(1.89209e-06 -1.10954e-06 0.00747266)
(2.10347e-06 -1.33701e-06 0.00747671)
(2.18769e-06 -1.5158e-06 0.00747758)
(2.15542e-06 -1.63079e-06 0.00747747)
(1.59688e-06 -1.23557e-06 0.00744335)
(1.78574e-06 -1.31516e-06 0.00746087)
(1.7899e-06 -1.36318e-06 0.00746772)
(1.68202e-06 -1.36502e-06 0.00746979)
(1.52041e-06 -1.14812e-06 0.00746174)
(1.72574e-06 -1.23569e-06 0.00747099)
(1.74607e-06 -1.30368e-06 0.00747411)
(1.66233e-06 -1.3403e-06 0.00747479)
(1.44211e-06 -1.00029e-06 0.00746938)
(1.63373e-06 -1.11389e-06 0.00747492)
(1.68302e-06 -1.19918e-06 0.00747642)
(1.62828e-06 -1.24057e-06 0.00747653)
(1.36478e-06 -8.87106e-07 0.00747214)
(1.53434e-06 -1.01437e-06 0.00747631)
(1.62257e-06 -1.1121e-06 0.00747726)
(1.581e-06 -1.17938e-06 0.00747721)
(1.05643e-06 -8.38902e-07 0.00744308)
(1.18608e-06 -8.74738e-07 0.00746077)
(1.20339e-06 -8.86094e-07 0.00746777)
(1.14366e-06 -8.69243e-07 0.00746997)
(1.02715e-06 -8.07537e-07 0.00746141)
(1.1688e-06 -8.44193e-07 0.00747079)
(1.19595e-06 -8.66167e-07 0.00747404)
(1.14903e-06 -8.69807e-07 0.00747483)
(9.9377e-07 -7.25207e-07 0.00746901)
(1.13048e-06 -7.78907e-07 0.00747466)
(1.17611e-06 -8.1429e-07 0.00747626)
(1.14275e-06 -8.20038e-07 0.00747646)
(9.59529e-07 -6.5589e-07 0.00747176)
(1.08536e-06 -7.2498e-07 0.00747601)
(1.15724e-06 -7.77417e-07 0.00747703)
(1.11505e-06 -8.16677e-07 0.00747704)
(6.74252e-07 -5.29352e-07 0.00744294)
(7.58497e-07 -5.44228e-07 0.00746072)
(7.77438e-07 -5.41317e-07 0.00746781)
(7.47093e-07 -5.21901e-07 0.0074701)
(6.65325e-07 -5.20192e-07 0.0074612)
(7.59071e-07 -5.32108e-07 0.00747067)
(7.83352e-07 -5.35084e-07 0.00747401)
(7.58958e-07 -5.28683e-07 0.00747487)
(6.53951e-07 -4.73027e-07 0.00746877)
(7.45821e-07 -4.96489e-07 0.00747449)
(7.79729e-07 -5.10231e-07 0.00747616)
(7.62418e-07 -5.06203e-07 0.00747642)
(6.40822e-07 -4.32601e-07 0.00747151)
(7.25726e-07 -4.68674e-07 0.00747581)
(7.75302e-07 -4.95361e-07 0.00747688)
(7.47838e-07 -5.1576e-07 0.00747694)
(4.08306e-07 -2.61549e-07 0.00744286)
(4.62744e-07 -2.65504e-07 0.00746069)
(4.82758e-07 -2.58076e-07 0.00746784)
(4.74174e-07 -2.42485e-07 0.00747019)
(4.07666e-07 -2.54387e-07 0.00746109)
(4.69828e-07 -2.5481e-07 0.0074706)
(4.92184e-07 -2.50918e-07 0.00747399)
(4.851e-07 -2.43634e-07 0.0074749)
(4.06938e-07 -2.24517e-07 0.00746863)
(4.67532e-07 -2.32466e-07 0.00747439)
(4.93342e-07 -2.37655e-07 0.0074761)
(4.90313e-07 -2.34019e-07 0.0074764)
(4.04478e-07 -2.01257e-07 0.00747135)
(4.58906e-07 -2.17324e-07 0.00747568)
(4.91619e-07 -2.2921e-07 0.0074768)
(4.85426e-07 -2.38237e-07 0.00747689)
(2.61388e-07 -2.73978e-08 0.00744274)
(3.1412e-07 -1.62914e-08 0.00746061)
(3.48427e-07 -2.02939e-09 0.0074678)
(3.64912e-07 1.3198e-08 0.00747019)
(2.75008e-07 -2.12987e-09 0.00746096)
(3.27747e-07 8.11155e-09 0.00747052)
(3.60622e-07 1.7657e-08 0.00747394)
(3.76144e-07 2.62741e-08 0.00747488)
(2.84012e-07 2.64481e-08 0.00746851)
(3.34341e-07 3.0196e-08 0.0074743)
(3.66463e-07 3.29957e-08 0.00747604)
(3.82447e-07 3.69875e-08 0.00747638)
(2.89198e-07 4.56294e-08 0.00747122)
(3.35242e-07 4.34838e-08 0.00747559)
(3.6793e-07 4.14989e-08 0.00747674)
(3.8284e-07 3.94747e-08 0.00747687)
(0.000273471 -0.00209063 0.0116532)
(-0.00135076 -0.00118691 0.0127558)
(-0.0023168 -0.000576409 0.0140405)
(-0.00172162 -0.000211108 0.010436)
(0.00123921 -0.000159052 0.00802089)
(0.00200894 -1.91521e-05 0.0126853)
(0.000185167 -0.00107246 0.0136774)
(-0.000582101 -0.000943441 0.0176379)
(0.00021706 -7.79936e-05 0.00991433)
(6.9487e-05 -0.000932681 0.0163334)
(-0.000531736 -0.000217868 0.0111422)
(5.03885e-05 0.000124595 0.00828288)
(0.000574235 0.000378438 0.00849231)
(0.000777925 0.00059684 0.00688914)
(0.00064812 -9.39376e-05 0.0139981)
(-0.000346608 0.000869437 0.0140517)
(-0.00175698 0.000663135 0.0223037)
(-0.00182672 -0.000690481 0.0148955)
(0.000226338 -0.00115031 0.0119394)
(0.000352527 -3.62934e-05 0.00795129)
(-0.000427595 -0.000382611 0.00659661)
(-0.00261778 -0.00226754 0.0211498)
(-0.000340489 -7.47279e-05 0.0112745)
(0.000152226 -0.000384295 0.0117348)
(-0.000981233 -0.00103038 0.0184205)
(-0.000341037 -0.000523042 0.00924666)
(0.00010764 -0.000235434 0.00912689)
(-0.00049607 -0.000208581 0.0123885)
(-0.000643755 0.000430841 0.0137576)
(-0.00183512 0.00173063 0.0170121)
(-0.000397549 0.000550692 0.0157965)
(0.000391808 0.000788784 0.0140345)
(0.000347328 0.000660092 0.0276827)
(0.000970547 0.000986637 0.0202794)
(0.000452832 0.000397809 0.0100293)
(-0.000353746 0.000743886 0.0174913)
(-0.000236867 0.00175589 0.0235996)
(-7.20087e-05 0.00140171 0.019176)
(1.50611e-05 0.00070555 0.0134289)
(0.000946402 0.00058303 0.0331415)
(-8.0598e-05 0.00129229 0.0169568)
(0.000140536 -0.000442049 0.0184551)
(-0.000829397 -0.000858973 0.0229218)
(-0.000489982 -0.000119228 0.00781455)
(-0.0015788 0.000232259 0.0130911)
(-0.000776294 -4.12701e-05 0.00671181)
(0.00018968 3.40008e-05 0.00788851)
(-0.000299747 0.000227882 0.0252568)
(-0.000165936 -0.000878067 0.0133247)
(0.000277863 9.33153e-05 0.0115938)
(-0.0017175 0.00096201 0.0186736)
(0.000104606 -3.50616e-06 0.000740994)
(0.000192299 0.000167838 0.00289314)
(0.00138686 0.00228687 0.0275137)
(-0.000129394 0.000442615 0.0124834)
(-0.000467294 0.00210283 0.0190369)
(-0.00138295 0.00156302 0.019839)
(-0.00101126 0.00139834 0.0203034)
(5.62114e-05 0.00175853 0.0199439)
(-0.000315274 0.000439194 0.0157808)
(0.000146048 -0.000585314 0.0242026)
(7.28106e-05 -0.000213853 0.00555431)
(-0.000785538 -0.000417621 0.0121483)
(5.9072e-05 -0.000896278 0.0188924)
(-0.000578398 0.00127382 0.0342856)
(0.000502922 0.000215697 0.00901793)
(0.00234973 0.00191755 0.0243972)
(-0.000428015 0.000497183 0.00837018)
(-0.000568316 0.00015401 0.0140273)
(0.000217283 0.00103271 0.0214501)
(0.000538554 0.000332138 0.0119841)
(-0.000898202 -7.42212e-05 0.0190426)
(0.000618861 0.000587065 0.0258773)
(-2.04544e-05 0.000839575 0.010705)
(0.000458368 0.00117735 0.0226801)
(0.000879008 0.000637388 0.0166153)
(0.000607288 0.000537874 0.012727)
(0.000848369 0.000936593 0.0160056)
(-0.000408269 0.000359923 0.0200933)
(-0.000319018 -0.000133801 0.0130881)
(0.000462083 0.00121628 0.00759182)
(0.000391712 0.000709695 0.00421827)
(-0.000582046 0.00093239 0.00977235)
(-0.000300264 2.51e-05 0.0176321)
(0.00030307 0.000761197 0.00717426)
(0.00114493 0.00104936 0.0106193)
(0.000409467 0.000515324 0.0124974)
(-9.98772e-05 -0.000711259 0.0126354)
(0.000486199 0.000258057 0.00784697)
(0.000683693 0.000416388 0.0141669)
(-5.81446e-05 4.56712e-05 0.00459453)
(-0.000699248 -0.000185476 0.0126494)
(0.00128286 -3.47033e-05 0.0132722)
(0.000896701 -1.57632e-05 0.00671303)
(-5.43482e-05 0.000258284 0.0115103)
(-0.00098894 1.14503e-05 0.0129993)
(0.000225468 4.44658e-05 0.0152966)
(-0.000111975 -0.000381328 0.00786338)
(-0.000415805 -0.000680722 0.0142108)
(0.000529412 -0.00113315 0.0128543)
(-0.000932534 0.00171433 0.00527559)
(-0.000288607 -0.000647336 0.0117622)
(0.00123366 -0.00113048 0.0128163)
(0.0018351 -0.00142986 0.0122329)
(0.000248309 -0.000445783 0.0134537)
(0.000717374 -0.00040809 0.0167166)
(-0.00229107 -0.00296834 0.00966874)
(-0.000313919 4.95908e-05 0.010967)
(9.09908e-05 -0.000450957 0.00755325)
(0.00128013 -0.00215873 0.00847455)
(-0.00140631 -0.0019038 0.0145319)
(-0.000167997 -0.000308883 0.0108725)
(0.0002771 -0.000392326 0.0162847)
(0.000130571 -0.000834832 0.014977)
(0.000163652 -0.0011785 0.0168092)
(0.000574885 -0.00115826 0.0170706)
(-3.83432e-05 -0.00107264 0.0120218)
(-0.000140873 -0.00194075 0.013865)
(0.00045043 -0.00164601 0.014202)
(0.00072071 -0.00125632 0.0155685)
(-4.36655e-05 -0.00109495 0.0165818)
(0.000595209 -0.000877471 0.016803)
(0.00128652 -0.00101486 0.012719)
(0.000890491 -0.000629499 0.010369)
(-0.000106904 -0.000579139 0.0122158)
(4.5178e-06 -0.000987971 0.0140583)
(0.000283752 -0.000664794 0.0143828)
(0.000586054 -0.000672178 0.0133058)
(-3.15961e-05 0.000255568 0.00480657)
(-5.33608e-05 0.000159801 0.00473396)
(-3.8001e-05 7.64285e-05 0.00493503)
(0.000248872 9.17973e-05 0.00478204)
(-0.000189065 -0.000106191 0.00390916)
(-0.000268087 -0.000231066 0.00452217)
(-0.000264329 0.000150952 0.00453177)
(-0.0003118 0.00037227 0.0044486)
(8.31302e-05 0.000231021 0.00500778)
(0.000598076 0.000220961 0.00536746)
(0.000704629 0.000195594 0.00424243)
(-5.24467e-05 0.000290319 0.00376834)
(-0.000270722 7.25721e-05 0.00332941)
(-0.000282044 -0.000191557 0.00396405)
(9.13705e-05 -0.000116776 0.00416758)
(-4.50004e-05 -0.000206073 0.00398451)
(5.36461e-05 -7.05288e-05 0.00907203)
(7.27357e-05 -0.000104131 0.00908747)
(0.000130167 -7.87163e-05 0.00913721)
(0.000152275 -6.22986e-05 0.00905637)
(-6.1968e-05 -0.000158052 0.00849577)
(-7.58375e-05 -0.000189047 0.00873943)
(1.81174e-05 -2.47287e-05 0.00879546)
(2.77532e-07 5.56755e-05 0.0088008)
(-1.05263e-05 0.000130923 0.00888129)
(0.000201226 0.000138441 0.00892992)
(0.000340138 0.000131956 0.00856015)
(0.000102971 0.000123329 0.00841408)
(-0.000156757 0.000169081 0.00793951)
(-0.000176386 7.22107e-05 0.00828656)
(2.71749e-05 7.62994e-05 0.00837034)
(1.70154e-05 3.01732e-05 0.0083588)
(3.76523e-05 2.926e-05 0.00714306)
(8.92335e-05 4.87373e-05 0.00724889)
(0.00011013 6.03607e-05 0.00730609)
(0.000130409 7.18189e-05 0.00731242)
(-3.32569e-05 6.96276e-05 0.00701027)
(1.34775e-07 7.76859e-05 0.00720138)
(2.79898e-05 0.000119889 0.00726945)
(4.57916e-05 0.00013245 0.00728672)
(-3.21334e-06 0.000181513 0.00725523)
(9.17566e-05 0.000179584 0.0073779)
(0.000116171 0.000165322 0.00729047)
(5.43421e-05 0.000139444 0.0072315)
(-4.61893e-05 0.000144574 0.00686901)
(-4.24355e-05 0.000109194 0.00708925)
(1.64933e-07 9.88742e-05 0.00716114)
(-1.86585e-06 7.74481e-05 0.00716934)
(2.50756e-05 -1.94516e-05 0.0074217)
(4.19048e-05 -1.46993e-05 0.00750426)
(5.74501e-05 -3.90426e-06 0.00755479)
(6.18502e-05 2.15643e-06 0.00756982)
(-1.13e-05 6.84947e-06 0.00734772)
(3.18559e-06 1.03015e-05 0.00746093)
(2.85583e-05 2.83368e-05 0.00752139)
(3.8328e-05 3.43575e-05 0.00754107)
(-5.65751e-06 7.1115e-05 0.00739619)
(3.07467e-05 7.01934e-05 0.00749068)
(5.19153e-05 6.64497e-05 0.00750572)
(3.82706e-05 5.47354e-05 0.00750513)
(-2.31671e-05 7.39394e-05 0.00722175)
(-1.83285e-05 6.00952e-05 0.00735915)
(6.83578e-06 5.36211e-05 0.00742714)
(1.08435e-05 4.41663e-05 0.0074569)
(1.72619e-05 -7.99825e-06 0.00724281)
(2.95485e-05 -3.69187e-06 0.00734747)
(3.61041e-05 -1.56625e-07 0.00741705)
(4.03087e-05 2.07091e-06 0.00745627)
(-3.24863e-06 1.15024e-05 0.00724877)
(8.50865e-06 1.27803e-05 0.00736918)
(1.96174e-05 1.72479e-05 0.00744002)
(2.68021e-05 1.78893e-05 0.00747365)
(-2.35152e-06 3.76742e-05 0.00728802)
(1.50839e-05 3.55543e-05 0.00740198)
(2.45196e-05 3.27788e-05 0.00745424)
(2.35009e-05 2.67199e-05 0.00747452)
(-7.549e-06 3.89299e-05 0.00722852)
(-2.56058e-06 3.25008e-05 0.00735935)
(7.45576e-06 2.83886e-05 0.00742722)
(1.06249e-05 2.32925e-05 0.00745714)
(1.07477e-05 -8.12959e-06 0.00721827)
(1.64831e-05 -6.28668e-06 0.0073219)
(2.01457e-05 -4.15993e-06 0.00739417)
(2.3169e-05 -2.87042e-06 0.00743775)
(4.54973e-07 3.32611e-06 0.00723576)
(7.30223e-06 3.84769e-06 0.00735029)
(1.30877e-05 5.18158e-06 0.00742257)
(1.72743e-05 4.97615e-06 0.00746031)
(-7.8098e-07 1.6193e-05 0.00725878)
(7.58516e-06 1.47997e-05 0.00737423)
(1.27524e-05 1.3131e-05 0.00743842)
(1.44043e-05 1.02048e-05 0.00746767)
(-2.23766e-06 1.89594e-05 0.00724066)
(1.32597e-06 1.57438e-05 0.00736352)
(6.05511e-06 1.32004e-05 0.0074314)
(8.31981e-06 1.02674e-05 0.00746223)
(6.89724e-06 -5.76544e-06 0.00719512)
(1.01739e-05 -5.0044e-06 0.00730136)
(1.21145e-05 -4.10263e-06 0.00737676)
(1.41474e-05 -3.54584e-06 0.00742381)
(1.30657e-06 4.90715e-07 0.00722129)
(5.46712e-06 4.63329e-07 0.00733622)
(8.61329e-06 7.03346e-07 0.00741031)
(1.12475e-05 3.49743e-07 0.00745094)
(-8.99885e-09 6.67956e-06 0.00724269)
(4.49635e-06 5.70442e-06 0.0073602)
(7.50099e-06 4.69816e-06 0.00742907)
(9.13516e-06 3.16652e-06 0.00746237)
(-3.91841e-07 8.98982e-06 0.00724233)
(2.10495e-06 7.13422e-06 0.00736315)
(4.61919e-06 5.49802e-06 0.00743151)
(6.11879e-06 3.75397e-06 0.0074631)
(4.48089e-06 -4.18577e-06 0.00718504)
(6.34009e-06 -3.94469e-06 0.00729214)
(7.45094e-06 -3.50264e-06 0.00736875)
(8.83523e-06 -3.2288e-06 0.00741726)
(1.39845e-06 -8.60099e-07 0.00721326)
(3.92741e-06 -9.90051e-07 0.00732865)
(5.76608e-06 -1.03363e-06 0.0074038)
(7.42117e-06 -1.3378e-06 0.00744589)
(3.6482e-07 2.37246e-06 0.00723471)
(2.94354e-06 1.70928e-06 0.00735315)
(4.74113e-06 1.03024e-06 0.00742381)
(6.02223e-06 1.76469e-07 0.0074589)
(1.81197e-07 4.01387e-06 0.00724134)
(1.86615e-06 2.8415e-06 0.00736163)
(3.35094e-06 1.81549e-06 0.00743033)
(4.43094e-06 7.59294e-07 0.00746247)
(2.98073e-06 -2.9721e-06 0.0071795)
(4.07959e-06 -2.92618e-06 0.00728716)
(4.72983e-06 -2.72357e-06 0.00736443)
(5.66797e-06 -2.5965e-06 0.00741367)
(1.22685e-06 -1.22575e-06 0.00720838)
(2.78769e-06 -1.39039e-06 0.00732418)
(3.8814e-06 -1.5072e-06 0.00739993)
(4.96519e-06 -1.72576e-06 0.00744282)
(4.50936e-07 5.15689e-07 0.00723023)
(2.02334e-06 2.52699e-08 0.00734911)
(3.16059e-06 -4.13957e-07 0.00742059)
(4.09521e-06 -9.03307e-07 0.00745656)
(2.81769e-07 1.58245e-06 0.00723964)
(1.43693e-06 8.2176e-07 0.00735989)
(2.42539e-06 1.62448e-07 0.00742888)
(3.20612e-06 -4.70576e-07 0.0074614)
(2.01347e-06 -2.10133e-06 0.00717657)
(2.68163e-06 -2.12678e-06 0.00728453)
(3.07938e-06 -2.03493e-06 0.00736212)
(3.71302e-06 -1.97895e-06 0.00741173)
(9.83201e-07 -1.20509e-06 0.00720549)
(1.95947e-06 -1.35329e-06 0.00732155)
(2.63524e-06 -1.46346e-06 0.00739766)
(3.35968e-06 -1.61218e-06 0.00744098)
(4.35935e-07 -2.42377e-07 0.0072276)
(1.43586e-06 -5.86082e-07 0.00734674)
(2.17553e-06 -8.72969e-07 0.00741861)
(2.83658e-06 -1.15887e-06 0.00745502)
(2.77445e-07 4.50128e-07 0.00723814)
(1.0742e-06 -6.35859e-08 0.00735846)
(1.74777e-06 -4.87728e-07 0.00742763)
(2.31849e-06 -8.6404e-07 0.0074604)
(1.37277e-06 -1.47766e-06 0.00717493)
(1.78922e-06 -1.5196e-06 0.00728306)
(2.03886e-06 -1.47997e-06 0.00736083)
(2.46166e-06 -1.45809e-06 0.00741062)
(7.50653e-07 -1.02692e-06 0.00720374)
(1.37102e-06 -1.14408e-06 0.00731996)
(1.79915e-06 -1.23216e-06 0.00739628)
(2.29139e-06 -1.33102e-06 0.00743985)
(3.73502e-07 -4.82915e-07 0.00722599)
(1.02706e-06 -7.21704e-07 0.00734527)
(1.51642e-06 -9.1117e-07 0.00741734)
(1.98052e-06 -1.0784e-06 0.00745399)
(2.31391e-07 -3.89369e-08 0.00723699)
(7.84061e-07 -3.8567e-07 0.00735737)
(1.25532e-06 -6.59444e-07 0.00742665)
(1.67184e-06 -8.83356e-07 0.00745957)
(9.36768e-07 -1.03063e-06 0.007174)
(1.19946e-06 -1.07011e-06 0.00728223)
(1.35562e-06 -1.05558e-06 0.00736009)
(1.63648e-06 -1.04722e-06 0.00740998)
(5.52579e-07 -8.08111e-07 0.00720267)
(9.50285e-07 -8.95651e-07 0.007319)
(1.22796e-06 -9.61196e-07 0.00739544)
(1.56493e-06 -1.02327e-06 0.00743915)
(2.95486e-07 -4.96124e-07 0.00722496)
(7.26502e-07 -6.59567e-07 0.00734433)
(1.05437e-06 -7.83782e-07 0.00741651)
(1.38041e-06 -8.82149e-07 0.00745329)
(1.78772e-07 -2.11097e-07 0.00723614)
(5.61111e-07 -4.4416e-07 0.00735657)
(8.91932e-07 -6.20165e-07 0.00742593)
(1.19451e-06 -7.54493e-07 0.00745894)
(6.28001e-07 -7.01982e-07 0.00717345)
(7.91537e-07 -7.33092e-07 0.00728175)
(8.88837e-07 -7.2899e-07 0.00735967)
(1.07578e-06 -7.24363e-07 0.0074096)
(3.90126e-07 -5.94964e-07 0.00720202)
(6.42972e-07 -6.56678e-07 0.00731842)
(8.23019e-07 -7.01231e-07 0.00739493)
(1.05174e-06 -7.37626e-07 0.00743871)
(2.18586e-07 -4.15268e-07 0.0072243)
(5.00518e-07 -5.24056e-07 0.00734372)
(7.18777e-07 -6.02964e-07 0.00741597)
(9.44667e-07 -6.59712e-07 0.00745283)
(1.30271e-07 -2.32954e-07 0.00723555)
(3.90369e-07 -3.86752e-07 0.007356)
(6.18998e-07 -4.98098e-07 0.00742541)
(8.33206e-07 -5.77893e-07 0.00745849)
(3.99118e-07 -4.50221e-07 0.00717313)
(4.98748e-07 -4.70166e-07 0.00728148)
(5.58871e-07 -4.67766e-07 0.00735943)
(6.79569e-07 -4.6288e-07 0.0074094)
(2.56043e-07 -3.98484e-07 0.00720162)
(4.12692e-07 -4.37003e-07 0.00731807)
(5.27239e-07 -4.63578e-07 0.00739462)
(6.76041e-07 -4.81964e-07 0.00743845)
(1.47752e-07 -2.95181e-07 0.00722389)
(3.26405e-07 -3.62383e-07 0.00734334)
(4.6773e-07 -4.09007e-07 0.00741563)
(6.1722e-07 -4.39015e-07 0.00745254)
(8.81575e-08 -1.81033e-07 0.00723515)
(2.58234e-07 -2.76954e-07 0.00735563)
(4.09831e-07 -3.43662e-07 0.00742507)
(5.54017e-07 -3.88857e-07 0.00745819)
(2.20709e-07 -2.41444e-07 0.00717296)
(2.83415e-07 -2.46477e-07 0.00728133)
(3.23882e-07 -2.39644e-07 0.0073593)
(3.98996e-07 -2.30206e-07 0.00740928)
(1.41111e-07 -2.08157e-07 0.0072014)
(2.3708e-07 -2.24339e-07 0.00731787)
(3.10382e-07 -2.33561e-07 0.00739445)
(4.02876e-07 -2.37085e-07 0.0074383)
(8.24273e-08 -1.45972e-07 0.00722364)
(1.92476e-07 -1.79162e-07 0.00734311)
(2.82115e-07 -2.00008e-07 0.00741543)
(3.76328e-07 -2.11227e-07 0.00745236)
(5.27488e-08 -7.62748e-08 0.00723491)
(1.59188e-07 -1.27162e-07 0.0073554)
(2.54399e-07 -1.6044e-07 0.00742486)
(3.46207e-07 -1.81312e-07 0.007458)
(8.93001e-08 -8.01817e-08 0.00717277)
(1.36701e-07 -6.75203e-08 0.00728116)
(1.78822e-07 -4.82613e-08 0.00735914)
(2.28018e-07 -2.81276e-08 0.00740914)
(4.87041e-08 -4.00248e-08 0.0072012)
(1.15954e-07 -3.38833e-08 0.00731769)
(1.7849e-07 -2.23426e-08 0.00739428)
(2.42701e-07 -8.58113e-09 0.00743815)
(2.53447e-08 1.53314e-08 0.00722344)
(1.01378e-07 1.14153e-08 0.00734293)
(1.73502e-07 1.46196e-08 0.00741526)
(2.41981e-07 2.16403e-08 0.00745221)
(2.48675e-08 6.95186e-08 0.00723472)
(9.8806e-08 5.43191e-08 0.00735523)
(1.70892e-07 4.77447e-08 0.0074247)
(2.3791e-07 4.6861e-08 0.00745785)
(-0.00220192 -0.00104618 0.0146465)
(-0.000390802 0.000509353 0.00614727)
(-0.000581405 0.000703967 0.0120752)
(0.000239168 0.000426883 0.00547711)
(-0.000851519 -0.00139574 0.00924636)
(-0.00011113 0.000348156 0.0183161)
(-0.000179603 0.000779666 0.00994709)
(-9.55149e-05 0.00101153 0.00880718)
(-0.000177874 -0.000347382 0.0101653)
(8.15597e-05 -0.00103025 0.0103066)
(9.26498e-05 -0.000470951 0.0111626)
(-0.000102034 -0.000469827 0.0153765)
(-0.00039974 -0.000960302 0.0128231)
(-0.000364804 -0.000218299 0.00994135)
(5.79631e-05 -0.000416296 0.0106394)