/*--------------------------------*- C++ -*----------------------------------*\
| =========                 |                                                 |
| \\      /  F ield         | OpenFOAM: The Open Source CFD Toolbox           |
|  \\    /   O peration     | Version:  2506                                  |
|   \\  /    A nd           | Website:  www.openfoam.com                      |
|    \\/     M anipulation  |                                                 |
\*---------------------------------------------------------------------------*/
FoamFile
{
    version     2.0;
    format      ascii;
    arch        "LSB;label=32;scalar=64";
    class       volVectorField;
    location    "0.03";
    object      U;
}
// * * * * * * * * * * * * * * * * * * * * * * * * * * * * * * * * * * * * * //

dimensions      [0 1 -1 0 0 0 0];

internalField   nonuniform List<vector> 
1152
(
(-9.81833e-05 -0.000427938 0.00654589)
(0.000952999 0.000153333 0.0113536)
(-0.00185804 -0.00118664 0.0128459)
(0.000204101 -0.000285292 0.00365534)
(-0.000126155 4.83591e-05 0.00862278)
(-0.000874867 -0.000189895 0.0122623)
(-0.000893477 4.83901e-05 0.00861535)
(0.000670012 0.000688015 0.00782899)
(0.000759528 4.59179e-05 0.0114339)
(0.000661585 4.73213e-05 0.00818549)
(-0.000610083 0.00114051 0.0126607)
(0.000181639 0.000933137 0.0139049)
(0.000249197 0.000279359 0.00908185)
(0.00048452 -0.00270592 0.0221422)
(-0.000752127 -0.00109482 0.0117332)
(0.000703087 0.000670459 0.00987263)
(-0.000257731 -0.000815182 0.012066)
(-0.000782172 -0.00217765 0.0195952)
(0.000442902 6.37364e-05 0.0245285)
(-3.84516e-05 6.03617e-05 0.00324214)
(-0.00101052 -0.00104744 0.0197974)
(0.000818721 -0.000572572 0.0188598)
(0.00018867 0.000126626 0.00289901)
(-0.00127685 0.000473319 0.0146645)
(1.42958e-05 2.14191e-05 0.00822146)
(1.23661e-05 -0.00106579 0.021584)
(0.00190109 -0.00284974 0.0253878)
(-4.25625e-05 5.35838e-05 0.00237754)
(-0.00113403 0.00080324 0.0167905)
(-0.000195087 0.000296389 0.00754879)
(0.000684193 0.000653646 0.0153696)
(0.000904768 0.00116248 0.0121096)
(-0.000337035 0.000658121 0.00965921)
(-0.00157776 -0.000207036 0.0140821)
(0.000907819 0.000197184 0.00647755)
(2.28001e-05 0.000209297 0.000661814)
(-0.000368596 -4.68637e-07 0.00583524)
(-0.000614164 -0.000298229 0.00991897)
(0.00184656 0.0012118 0.0273282)
(-0.000184514 -0.000897043 0.016903)
(-0.00156535 -0.00166745 0.0181912)
(-0.000621594 0.000867785 0.0154678)
(0.000845665 3.44252e-05 0.00645978)
(0.00253143 0.00220412 0.0327564)
(4.70375e-05 0.000204393 0.0110335)
(0.000304112 0.000769977 0.0312999)
(0.000468391 -4.27688e-07 0.0076173)
(-7.75259e-05 -2.3706e-06 0.00258319)
(0.000759533 0.00127691 0.0133718)
(-5.7612e-05 0.0023834 0.0310632)
(-0.000139506 -0.000145015 0.0110042)
(-0.00140826 0.000760671 0.0234142)
(0.00138536 0.0015387 0.0335404)
(-0.000402482 0.000468846 0.0134985)
(-0.000500816 0.000121118 0.0180088)
(0.00103896 0.000919269 0.0189555)
(-0.00020529 0.000486786 0.00762132)
(-0.000674865 -0.00092471 0.0161197)
(-0.000191778 -1.89262e-05 0.0155565)
(6.94081e-05 0.000192655 0.000943817)
(-0.000218237 -0.000342085 0.00715358)
(-0.00423696 -0.000652418 0.0311033)
(-0.000267895 -0.000281774 0.018677)
(-0.00120403 -0.00466559 0.0377373)
(-0.0010369 0.000422486 0.0141716)
(0.000697737 0.00017309 0.00934073)
(1.17303e-05 -0.000124932 0.0087107)
(-0.00067651 -0.000963989 0.0168514)
(-0.000242402 0.0010224 0.0131218)
(0.000140072 0.000569169 0.0200062)
(-0.000766413 -0.00219251 0.0212208)
(0.000742454 -0.000546601 0.0111896)
(-0.000494564 0.00125908 0.0159617)
(-0.00255011 -0.000959701 0.0213541)
(-0.000227178 -3.41332e-06 0.00518319)
(-0.00103066 -0.00637795 0.0387826)
(-0.00379158 -2.07379e-05 0.033603)
(-0.00068218 -0.000246718 0.0072131)
(-0.00104272 -2.34182e-05 0.00841151)
(0.000194365 -6.01693e-06 0.00122035)
(-0.000597962 0.000103772 0.00622212)
(-0.00137808 -0.000676765 0.0183111)
(-0.000974138 -0.00138006 0.0142956)
(0.000983308 -0.00149449 0.0147832)
(-0.00125393 -0.00071266 0.0126218)
(-0.00203014 -0.000484097 0.012503)
(-0.000937665 -0.000157382 0.00872852)
(0.000368097 -0.000372369 0.0150189)
(-0.00126026 -0.000725988 0.0123742)
(-0.00161345 -0.000683985 0.0148623)
(-0.000315279 -0.000261847 0.00709194)
(0.000283736 -0.00014795 0.0174091)
(-0.00113039 -0.000415127 0.00815495)
(-0.00223334 -0.000163259 0.0132224)
(-0.00107073 -0.000480106 0.0133164)
(-0.00269645 -0.00078683 0.0203394)
(-5.26377e-05 0.000342539 0.0074648)
(-8.54691e-05 0.000180913 0.011306)
(9.52046e-05 0.000166186 0.0100941)
(-4.8109e-05 0.000197161 0.00908523)
(-9.14471e-05 -0.000323807 0.0133017)
(0.000210985 4.5478e-05 0.0120111)
(0.000267032 0.000270513 0.00838625)
(0.000227521 4.45308e-05 0.00369359)
(-0.000294919 -0.000256085 0.0109789)
(0.000122413 0.000117986 0.0123803)
(9.27113e-05 0.000165509 0.00644515)
(0.000533357 5.15803e-05 0.0239777)
(-0.000106835 -0.000216047 0.0177707)
(0.000228205 0.000163703 0.00748861)
(0.000345319 -0.000392579 0.00350897)
(0.00170418 0.00037967 0.011411)
(0.000367772 -0.00106241 0.0142051)
(-5.95545e-05 -0.000196808 0.0169346)
(-9.05552e-05 0.000179389 0.0149875)
(-0.000424802 0.000397799 0.0140414)
(0.000507988 -0.000868808 0.0183298)
(0.000579434 -0.00020918 0.0168878)
(0.000247244 0.000192536 0.0120781)
(-0.000101202 4.8569e-05 0.00970338)
(0.00063311 -0.000483853 0.0158014)
(0.000751686 -3.25839e-06 0.0162081)
(0.000147489 0.000235252 0.0115299)
(0.00043461 0.000641851 0.0233151)
(0.000842088 -0.000129672 0.0169795)
(0.0011557 5.66684e-05 0.0116202)
(0.000989427 5.02616e-05 0.00752574)
(0.00110509 0.000632032 0.0184016)
(0.000250107 -0.000109644 0.00427056)
(0.000263917 0.00022755 0.00438117)
(0.000270021 0.000453807 0.00387094)
(-9.74025e-05 0.000343142 0.00378719)
(1.01051e-05 6.02148e-05 0.00477459)
(0.000676168 0.000218551 0.00425474)
(0.000411519 0.00026456 0.00329518)
(-0.000371502 -0.000660575 0.00322875)
(-0.000206258 0.000307065 0.00438037)
(0.000390838 0.000488168 0.00403426)
(-0.000592471 0.000273303 0.00328581)
(-0.000767493 -0.000790184 0.00502968)
(0.00015993 0.00028873 0.00448717)
(0.000601573 0.000430891 0.00333138)
(-0.000858998 0.000121184 0.00266339)
(-0.00226923 0.000385175 0.00411085)
(9.06877e-05 -0.000132297 0.00899726)
(0.000129751 4.04942e-05 0.00902436)
(7.86882e-05 0.000151795 0.00872568)
(-3.42393e-05 0.000140129 0.00873704)
(6.16599e-05 7.12498e-06 0.00904549)
(0.00027687 9.10963e-05 0.00887651)
(0.000124702 9.75997e-05 0.00842462)
(-0.000124125 -0.000187003 0.00849116)
(4.5362e-05 0.000133052 0.0087932)
(0.00020141 0.000192566 0.00873787)
(-0.000193399 0.000101586 0.00843836)
(-0.000289256 -0.00022908 0.00928365)
(0.00012171 0.000162967 0.0087036)
(0.000236773 0.000210155 0.00839141)
(-0.00029237 0.000105808 0.00816889)
(-0.00064067 0.000154435 0.00920234)
(0.000146877 5.5096e-05 0.00740183)
(0.000143673 5.80359e-05 0.00741412)
(8.48949e-05 5.56836e-05 0.0073232)
(4.05098e-05 2.64794e-05 0.0073644)
(9.06233e-05 9.71372e-05 0.00742675)
(0.000142412 8.09438e-05 0.00736865)
(6.33536e-05 4.63181e-05 0.00722716)
(-1.58793e-05 -6.23378e-05 0.00727887)
(5.53737e-05 0.000116834 0.00737671)
(8.79056e-05 0.000104233 0.00733033)
(-5.60741e-05 4.72747e-05 0.00723313)
(-9.60662e-05 -6.91354e-05 0.00748671)
(4.70405e-05 0.000101413 0.00731988)
(7.05231e-05 0.00010382 0.00721721)
(-0.000109137 6.00544e-05 0.00714719)
(-0.000199895 5.36552e-05 0.00745159)
(5.97027e-05 -2.03439e-06 0.00767059)
(6.42256e-05 6.37398e-06 0.0076523)
(4.1494e-05 5.00187e-06 0.007608)
(3.27664e-05 -3.21988e-06 0.00761574)
(4.68702e-05 3.32136e-05 0.00765394)
(6.12081e-05 2.8024e-05 0.00762738)
(3.00253e-05 1.2304e-05 0.00757713)
(8.02969e-06 -2.35399e-05 0.00759682)
(3.78202e-05 5.09169e-05 0.00762261)
(4.15109e-05 4.21711e-05 0.00760558)
(-9.71417e-06 1.90595e-05 0.00757709)
(-2.50606e-05 -1.99785e-05 0.00765606)
(2.88467e-05 4.99622e-05 0.00758384)
(2.89689e-05 4.62139e-05 0.00756004)
(-3.21657e-05 2.88557e-05 0.00754611)
(-5.86549e-05 1.98248e-05 0.00764532)
(4.1747e-05 2.76897e-06 0.00758791)
(4.10173e-05 1.71499e-07 0.00759288)
(2.89095e-05 -4.86985e-06 0.0075819)
(2.53286e-05 -8.87258e-06 0.00758615)
(3.18235e-05 1.82402e-05 0.00759687)
(3.463e-05 1.20066e-05 0.00759257)
(2.13054e-05 2.5091e-06 0.00757825)
(1.35332e-05 -1.11321e-05 0.00758591)
(2.5752e-05 2.56592e-05 0.00759155)
(2.46145e-05 1.87964e-05 0.00758716)
(5.91157e-06 7.99683e-06 0.00757915)
(-5.9005e-07 -6.95755e-06 0.00760382)
(1.88522e-05 2.49109e-05 0.00757529)
(1.68562e-05 2.04876e-05 0.00757023)
(-4.31289e-06 1.25189e-05 0.0075678)
(-1.33912e-05 6.57266e-06 0.00759965)
(2.38769e-05 -1.19351e-06 0.00757299)
(2.39692e-05 -3.10989e-06 0.00758161)
(1.90106e-05 -6.29138e-06 0.00757943)
(1.73607e-05 -8.11509e-06 0.00758019)
(1.93381e-05 6.89103e-06 0.00758572)
(2.0213e-05 3.43025e-06 0.00758753)
(1.51172e-05 -1.33959e-06 0.00758317)
(1.20032e-05 -6.75883e-06 0.00758475)
(1.63189e-05 1.11459e-05 0.00758666)
(1.54598e-05 7.32071e-06 0.00758675)
(8.83488e-06 2.25708e-06 0.00758425)
(5.99162e-06 -3.77415e-06 0.00759102)
(1.25563e-05 1.13486e-05 0.00758007)
(1.12734e-05 8.40887e-06 0.00758026)
(4.01097e-06 4.6191e-06 0.00757976)
(8.7273e-07 1.35736e-06 0.00758967)
(1.45217e-05 -1.90801e-06 0.0075626)
(1.48474e-05 -3.26146e-06 0.00757547)
(1.28046e-05 -5.01325e-06 0.00757785)
(1.1749e-05 -5.97672e-06 0.0075782)
(1.22507e-05 2.12963e-06 0.00757892)
(1.27939e-05 1.99888e-07 0.00758433)
(1.08259e-05 -2.16523e-06 0.00758395)
(9.31428e-06 -4.52413e-06 0.00758383)
(1.05722e-05 4.47148e-06 0.00758353)
(1.04464e-05 2.38491e-06 0.00758616)
(8.07845e-06 -7.30603e-08 0.00758564)
(6.71332e-06 -2.62252e-06 0.00758704)
(8.62166e-06 4.87019e-06 0.00758194)
(8.23342e-06 3.11485e-06 0.00758411)
(5.80947e-06 1.20414e-06 0.00758425)
(4.58947e-06 -4.18059e-07 0.00758693)
(9.06429e-06 -1.92485e-06 0.00755744)
(9.48836e-06 -2.69407e-06 0.00757254)
(8.70229e-06 -3.56799e-06 0.00757706)
(8.02146e-06 -4.06595e-06 0.00757777)
(7.9596e-06 1.36845e-07 0.00757516)
(8.45344e-06 -8.89403e-07 0.00758241)
(7.73193e-06 -2.04845e-06 0.0075837)
(6.94882e-06 -3.09307e-06 0.00758343)
(7.03843e-06 1.45662e-06 0.00758145)
(7.26729e-06 3.44916e-07 0.00758543)
(6.49629e-06 -8.58655e-07 0.00758573)
(5.84373e-06 -1.9991e-06 0.00758571)
(6.05333e-06 1.84438e-06 0.00758223)
(6.13961e-06 8.33875e-07 0.0075853)
(5.38623e-06 -1.3846e-07 0.00758563)
(4.93967e-06 -9.29329e-07 0.00758605)
(5.83688e-06 -1.62566e-06 0.00755451)
(6.2291e-06 -2.03738e-06 0.00757091)
(5.97451e-06 -2.44682e-06 0.0075766)
(5.56585e-06 -2.67761e-06 0.0075778)
(5.30223e-06 -5.83118e-07 0.00757281)
(5.73922e-06 -1.10667e-06 0.0075811)
(5.52124e-06 -1.65427e-06 0.00758327)
(5.11685e-06 -2.12252e-06 0.00758325)
(4.81494e-06 1.80289e-07 0.00757991)
(5.14898e-06 -4.12592e-07 0.00758466)
(4.95518e-06 -1.00181e-06 0.00758546)
(4.65551e-06 -1.50984e-06 0.00758518)
(4.30816e-06 4.92591e-07 0.00758178)
(4.56632e-06 -8.37847e-08 0.00758537)
(4.42746e-06 -5.81271e-07 0.00758587)
(4.2839e-06 -9.49282e-07 0.00758569)
(3.84293e-06 -1.28385e-06 0.00755286)
(4.17332e-06 -1.48483e-06 0.00757002)
(4.13661e-06 -1.65656e-06 0.00757639)
(3.90803e-06 -1.73979e-06 0.007578)
(3.6008e-06 -7.57057e-07 0.00757138)
(3.96717e-06 -1.00319e-06 0.00758028)
(3.94316e-06 -1.24976e-06 0.00758297)
(3.73999e-06 -1.44554e-06 0.00758324)
(3.35654e-06 -3.01895e-07 0.00757885)
(3.68153e-06 -6.09554e-07 0.00758407)
(3.69105e-06 -8.91937e-07 0.00758521)
(3.5604e-06 -1.11328e-06 0.00758501)
(3.09997e-06 -7.16935e-08 0.00758122)
(3.3881e-06 -3.88756e-07 0.00758514)
(3.44336e-06 -6.40723e-07 0.00758581)
(3.41548e-06 -8.06648e-07 0.00758555)
(2.57819e-06 -9.6751e-07 0.00755189)
(2.84214e-06 -1.05815e-06 0.00756951)
(2.87725e-06 -1.11414e-06 0.00757629)
(2.75763e-06 -1.12091e-06 0.0075782)
(2.48041e-06 -6.99395e-07 0.00757049)
(2.76841e-06 -8.07425e-07 0.00757977)
(2.81406e-06 -9.03292e-07 0.00758278)
(2.71468e-06 -9.69619e-07 0.00758328)
(2.36807e-06 -4.26162e-07 0.00757811)
(2.64238e-06 -5.77106e-07 0.00758364)
(2.71247e-06 -7.04189e-07 0.00758501)
(2.6562e-06 -7.90367e-07 0.00758496)
(2.24347e-06 -2.62339e-07 0.00758071)
(2.50049e-06 -4.3225e-07 0.00758485)
(2.60461e-06 -5.58675e-07 0.00758568)
(2.60754e-06 -6.28957e-07 0.00758549)
(1.7449e-06 -7.00936e-07 0.00755132)
(1.9462e-06 -7.3341e-07 0.0075692)
(2.00039e-06 -7.36518e-07 0.00757624)
(1.93883e-06 -7.10525e-07 0.00757836)
(1.72012e-06 -5.63968e-07 0.00756992)
(1.93441e-06 -6.00941e-07 0.00757942)
(1.99526e-06 -6.25491e-07 0.00758265)
(1.94483e-06 -6.32446e-07 0.00758333)
(1.6756e-06 -4.00623e-07 0.0075776)
(1.88921e-06 -4.67362e-07 0.00758331)
(1.96691e-06 -5.1452e-07 0.00758485)
(1.93873e-06 -5.3449e-07 0.00758493)
(1.62029e-06 -2.88323e-07 0.00758028)
(1.82873e-06 -3.76833e-07 0.00758457)
(1.93132e-06 -4.36805e-07 0.00758553)
(1.9302e-06 -4.63648e-07 0.00758544)
(1.1734e-06 -4.83099e-07 0.00755095)
(1.31914e-06 -4.87852e-07 0.007569)
(1.36972e-06 -4.69966e-07 0.00757619)
(1.33614e-06 -4.33635e-07 0.00757845)
(1.18033e-06 -4.13526e-07 0.00756953)
(1.3329e-06 -4.17481e-07 0.00757918)
(1.38845e-06 -4.09979e-07 0.00758254)
(1.35832e-06 -3.9228e-07 0.00758334)
(1.16927e-06 -3.16958e-07 0.00757723)
(1.32661e-06 -3.39237e-07 0.00758306)
(1.39351e-06 -3.4767e-07 0.00758471)
(1.37164e-06 -3.38696e-07 0.00758489)
(1.15053e-06 -2.45147e-07 0.00757995)
(1.30833e-06 -2.88838e-07 0.00758433)
(1.39142e-06 -3.15342e-07 0.00758538)
(1.37576e-06 -3.22888e-07 0.00758536)
(7.60976e-07 -3.01837e-07 0.00755072)
(8.60938e-07 -2.95007e-07 0.00756885)
(9.00365e-07 -2.72648e-07 0.00757614)
(8.81408e-07 -2.38225e-07 0.00757848)
(7.78718e-07 -2.66077e-07 0.00756927)
(8.81488e-07 -2.56969e-07 0.007579)
(9.24822e-07 -2.38989e-07 0.00758245)
(9.0442e-07 -2.15359e-07 0.00758332)
(7.82703e-07 -2.09137e-07 0.00757696)
(8.9099e-07 -2.11175e-07 0.00758286)
(9.4106e-07 -2.04011e-07 0.00758458)
(9.20639e-07 -1.87108e-07 0.00758483)
(7.8099e-07 -1.67553e-07 0.00757969)
(8.90806e-07 -1.87487e-07 0.00758413)
(9.50563e-07 -1.97876e-07 0.00758523)
(9.27069e-07 -1.98537e-07 0.00758527)
(4.6312e-07 -1.33331e-07 0.00755056)
(5.28599e-07 -1.23595e-07 0.00756875)
(5.59661e-07 -1.04368e-07 0.00757608)
(5.54345e-07 -7.82491e-08 0.00757848)
(4.80387e-07 -1.11177e-07 0.00756909)
(5.47362e-07 -9.93024e-08 0.00757887)
(5.81071e-07 -8.18129e-08 0.00758236)
(5.72136e-07 -6.20234e-08 0.00758328)
(4.8957e-07 -7.59819e-08 0.00757677)
(5.59816e-07 -7.04873e-08 0.00758271)
(5.96499e-07 -6.083e-08 0.00758447)
(5.84532e-07 -4.69267e-08 0.00758476)
(4.94722e-07 -5.35852e-08 0.0075795)
(5.64931e-07 -6.02303e-08 0.00758397)
(6.0563e-07 -6.31303e-08 0.00758511)
(5.89887e-07 -6.27178e-08 0.00758518)
(2.81707e-07 1.22297e-08 0.00755039)
(3.37316e-07 2.82754e-08 0.00756861)
(3.74978e-07 4.66846e-08 0.00757599)
(3.91709e-07 6.58169e-08 0.00757842)
(3.01879e-07 4.13901e-08 0.00756893)
(3.55304e-07 5.59711e-08 0.00757873)
(3.91642e-07 7.05118e-08 0.00758226)
(4.05463e-07 8.39945e-08 0.00758322)
(3.14484e-07 7.16439e-08 0.00757661)
(3.67168e-07 8.01613e-08 0.00758258)
(4.0291e-07 8.85794e-08 0.00758437)
(4.14308e-07 9.66547e-08 0.00758469)
(3.22422e-07 8.99058e-08 0.00757935)
(3.73302e-07 9.10498e-08 0.00758385)
(4.08659e-07 9.21143e-08 0.00758501)
(4.1733e-07 9.26455e-08 0.00758511)
(0.000312196 -0.00223408 0.0118361)
(-0.0014207 -0.00132193 0.0129637)
(-0.00228905 -0.000844867 0.0143439)
(-0.00170188 -0.000332563 0.0106162)
(0.0012778 -0.000173164 0.00814972)
(0.00201509 -6.78928e-05 0.0128864)
(0.000116983 -0.00120197 0.013883)
(-0.000654714 -0.00117138 0.0178027)
(0.000201756 -0.000125178 0.0100288)
(3.0099e-05 -0.00104148 0.016571)
(-0.000617087 -0.000308827 0.0112464)
(-1.44799e-05 1.50903e-05 0.00847588)
(0.000534265 0.000347963 0.00857376)
(0.000766363 0.000583051 0.00695822)
(0.000580535 -0.000140167 0.0142239)
(-0.000453843 0.000831814 0.0141947)
(-0.00174703 0.000610955 0.0227157)
(-0.00183916 -0.000748751 0.0151178)
(0.000236353 -0.00118583 0.0121383)
(0.000371023 -5.28224e-05 0.00812359)
(-0.000442245 -0.000387586 0.00667823)
(-0.0026682 -0.00233466 0.0215351)
(-0.000361336 -6.08428e-05 0.0114405)
(0.000146281 -0.000382705 0.0117224)
(-0.000996635 -0.00109041 0.0186183)
(-0.000314675 -0.000476889 0.00943804)
(0.00011112 -0.000253054 0.00922634)
(-0.0005104 -0.000271971 0.0124928)
(-0.000619543 0.000480696 0.0143606)
(-0.00186956 0.0017458 0.0172456)
(-0.000427058 0.000544605 0.0159893)
(0.000343505 0.000776088 0.0142594)
(0.000424595 0.0005196 0.0281763)
(0.00104167 0.000907672 0.0206703)
(0.000439711 0.000380779 0.010219)
(-0.000432589 0.000695797 0.0178387)
(-0.000200141 0.0017185 0.0239701)
(-9.29374e-05 0.00137598 0.0194959)
(1.81174e-05 0.000658713 0.0136493)
(0.000787233 0.000414097 0.0336298)
(-0.000105138 0.00132652 0.0171078)
(0.000130664 -0.000446181 0.0187306)
(-0.000893864 -0.000907959 0.0232947)
(-0.00051508 -0.000148857 0.00796265)
(-0.00158413 0.00026029 0.0130647)
(-0.000766228 -3.68577e-05 0.00687093)
(0.000239215 7.0763e-05 0.00804034)
(-0.00056245 0.000221298 0.0256141)
(-0.000147998 -0.000970405 0.013569)
(0.000319475 6.99801e-05 0.0117451)
(-0.00180756 0.000881689 0.0189334)
(0.000144454 6.24488e-05 0.000750446)
(0.000185061 0.000186399 0.00292246)
(0.00136112 0.00219222 0.0277985)
(-0.000189122 0.000378707 0.0126614)
(-0.000593709 0.00195628 0.0194064)
(-0.00138636 0.00155763 0.0200212)
(-0.00100124 0.00142537 0.0205906)
(-1.43862e-05 0.00176249 0.0202121)
(-0.000395526 0.000345587 0.0159978)
(0.000142075 -0.000699444 0.0248541)
(0.000136076 -0.00015807 0.00559605)
(-0.000780119 -0.000390695 0.0122739)
(-0.000127574 -0.000981463 0.0191475)
(-0.000516635 0.00118587 0.035089)
(0.00052275 0.000220763 0.00908787)
(0.00246828 0.0018962 0.0247972)
(-0.000442808 0.000550921 0.00849147)
(-0.000596628 0.000125736 0.0142156)
(0.000198199 0.000981882 0.022233)
(0.000543708 0.000224161 0.0121668)
(-0.000987188 -0.00025727 0.019607)
(0.000600337 0.000561237 0.026171)
(-2.28035e-05 0.000831852 0.0108754)
(0.000465974 0.00118269 0.0230787)
(0.000808101 0.000505143 0.0169137)
(0.000730971 0.000576651 0.0127905)
(0.000953462 0.000949775 0.0162383)
(-0.000432629 0.000353271 0.0204576)
(-0.000428321 -0.000195164 0.0133935)
(0.000545095 0.00129361 0.00762436)
(0.000476529 0.000762566 0.00429198)
(-0.000473233 0.00108677 0.00998026)
(-0.000462351 0.000531759 0.0181904)
(0.000327202 0.000825568 0.00726124)
(0.00121626 0.00103239 0.0103213)
(0.000399215 0.000479343 0.0125731)
(-0.00046007 -0.000337584 0.012964)
(0.000527305 0.000254691 0.00802163)
(0.00065339 0.000415985 0.0142249)
(-4.56528e-05 -5.72922e-05 0.00467869)
(-0.000713781 -0.000244109 0.0129747)
(0.00138851 -3.93244e-05 0.0135687)
(0.000933832 -2.09464e-05 0.0067709)
(-4.79598e-05 0.000255169 0.0118627)
(-0.00100686 8.66064e-05 0.0132787)
(0.000176965 4.89285e-06 0.0155003)
(-0.000191494 -0.00034763 0.00798275)
(-0.000351893 -0.000360892 0.0144658)
(0.000441017 -0.000721679 0.0131476)
(-0.00121778 0.00209087 0.00542516)
(-0.000238441 -0.000594496 0.011991)
(0.00094731 -0.000833323 0.0133738)
(0.00143707 -0.000396144 0.0137095)
(0.000155779 -0.000347258 0.0137071)
(0.000668074 -0.000383838 0.0169876)
(-0.00244303 -0.00302299 0.00992326)
(-0.00030753 0.000290903 0.0112708)
(9.37441e-05 -0.000415021 0.00770325)
(0.00101158 -0.0021815 0.00860721)
(-0.00165897 -0.00187066 0.0149167)
(-0.00034738 -3.05102e-05 0.0112215)
(0.000297202 -0.000448829 0.0164295)
(0.000150657 -0.000917667 0.0149403)
(0.000213299 -0.00127233 0.016549)
(0.000676452 -0.00126236 0.016694)
(-3.23231e-05 -0.0011303 0.0120386)
(-0.000141065 -0.00201673 0.0140448)
(0.000451466 -0.0016929 0.0145088)
(0.000813458 -0.0012892 0.0156932)
(-4.24942e-05 -0.00112989 0.0169086)
(0.000595513 -0.000913271 0.0171296)
(0.00127579 -0.00101923 0.0132498)
(0.000927374 -0.000615275 0.0110158)
(-9.41801e-05 -0.000572885 0.0130451)
(1.84651e-05 -0.000962645 0.0145346)
(0.000304018 -0.000622282 0.0146464)
(0.000604818 -0.000628211 0.0136909)
(-2.60574e-05 0.000263523 0.00484733)
(-3.42118e-05 0.000165619 0.00477565)
(-2.00299e-05 6.53638e-05 0.00498267)
(0.000250805 7.15162e-05 0.00484173)
(-0.000179772 -0.00013968 0.00398149)
(-0.000265038 -0.000273402 0.00460739)
(-0.00025543 0.000101851 0.00465811)
(-0.000284742 0.00032942 0.00459096)
(0.000105476 0.000162549 0.00512932)
(0.000619293 0.000172542 0.00549759)
(0.00073131 0.000171891 0.00438556)
(-8.26744e-06 0.0002761 0.00390678)
(-0.000229821 7.32636e-05 0.00348195)
(-0.000214248 -0.00018828 0.00411187)
(0.000131099 -0.000106401 0.00429871)
(-1.59464e-05 -0.000198052 0.00411298)
(5.32194e-05 -7.02692e-05 0.00918336)
(7.50345e-05 -0.000103294 0.00919538)
(0.000135194 -8.00923e-05 0.00924169)
(0.000154828 -6.31195e-05 0.00916185)
(-5.54392e-05 -0.000170689 0.0085993)
(-7.03827e-05 -0.000201814 0.00884858)
(2.7307e-05 -3.67152e-05 0.00891432)
(1.54832e-05 5.0161e-05 0.00892396)
(-2.68472e-06 0.000115901 0.00902555)
(0.000213977 0.000127847 0.00907312)
(0.000359536 0.000129487 0.00870441)
(0.000130205 0.000126224 0.00855063)
(-0.000146414 0.000174263 0.00810763)
(-0.000154994 7.68361e-05 0.00843766)
(4.99535e-05 8.32873e-05 0.00850917)
(4.3652e-05 3.81371e-05 0.00849401)
(3.53605e-05 3.30625e-05 0.00724866)
(8.76456e-05 5.38933e-05 0.00735582)
(0.000110366 6.55807e-05 0.00741204)
(0.00013052 7.81249e-05 0.00741806)
(-3.12911e-05 6.57555e-05 0.00711799)
(1.59156e-06 7.48473e-05 0.00731085)
(3.07897e-05 0.000119609 0.00738031)
(5.1419e-05 0.00013697 0.00739606)
(6.06402e-07 0.000178222 0.00737544)
(0.000100152 0.00017864 0.00749764)
(0.000128592 0.000168041 0.00740841)
(6.94764e-05 0.000146316 0.00734406)
(-4.26072e-05 0.00014837 0.00699071)
(-3.35268e-05 0.000113561 0.00720888)
(1.30257e-05 0.000103944 0.00727673)
(1.48087e-05 8.41166e-05 0.00728026)
(2.2835e-05 -1.57446e-05 0.00753084)
(3.99087e-05 -9.46319e-06 0.00761512)
(5.69664e-05 2.05719e-06 0.00766544)
(6.10594e-05 8.81172e-06 0.00768025)
(-1.10643e-05 6.89058e-06 0.00745613)
(3.52677e-06 1.16579e-05 0.00757093)
(2.99378e-05 3.17524e-05 0.00763207)
(4.08873e-05 4.05747e-05 0.00765136)
(-4.06169e-06 7.22981e-05 0.00751214)
(3.52499e-05 7.29187e-05 0.00760669)
(5.88814e-05 7.11409e-05 0.00761983)
(4.6585e-05 6.15625e-05 0.0076161)
(-2.20002e-05 7.74567e-05 0.00733614)
(-1.42101e-05 6.43599e-05 0.00747362)
(1.37139e-05 5.85019e-05 0.00753977)
(2.0044e-05 5.00592e-05 0.00756625)
(1.55229e-05 -4.8886e-06 0.00735129)
(2.79916e-05 6.62824e-07 0.00745782)
(3.56002e-05 4.81153e-06 0.00752739)
(3.94496e-05 7.47597e-06 0.00756641)
(-3.70315e-06 1.30366e-05 0.00735629)
(8.30814e-06 1.54192e-05 0.00747825)
(2.02709e-05 2.12614e-05 0.00754934)
(2.78738e-05 2.34838e-05 0.00758284)
(-1.77038e-06 3.98926e-05 0.00739917)
(1.72992e-05 3.89244e-05 0.00751373)
(2.81695e-05 3.71892e-05 0.00756489)
(2.78216e-05 3.23193e-05 0.00758353)
(-7.0322e-06 4.17196e-05 0.0073377)
(-4.88386e-07 3.59727e-05 0.00746937)
(1.11255e-05 3.2359e-05 0.00753636)
(1.56942e-05 2.79759e-05 0.00756476)
(9.48202e-06 -5.91495e-06 0.00732623)
(1.53371e-05 -3.17647e-06 0.00743163)
(1.96936e-05 -6.35994e-07 0.00750396)
(2.23327e-05 9.57664e-07 0.00754746)
(-8.09079e-08 4.99377e-06 0.0073429)
(6.92014e-06 6.33474e-06 0.00745892)
(1.33643e-05 8.52449e-06 0.00753141)
(1.77257e-05 9.26396e-06 0.00756915)
(-6.70512e-07 1.82803e-05 0.00736736)
(8.54182e-06 1.76845e-05 0.00748368)
(1.45518e-05 1.6666e-05 0.00754743)
(1.65663e-05 1.4432e-05 0.007576)
(-2.02381e-06 2.11191e-05 0.00734786)
(2.39183e-06 1.84427e-05 0.00747166)
(8.0679e-06 1.62949e-05 0.00753934)
(1.11333e-05 1.38324e-05 0.00756956)
(6.00341e-06 -4.2246e-06 0.00730216)
(9.34512e-06 -2.82837e-06 0.00741016)
(1.17548e-05 -1.59789e-06 0.00748569)
(1.35004e-05 -8.55603e-07 0.00753285)
(8.44929e-07 1.94967e-06 0.00732795)
(5.14835e-06 2.515e-06 0.00744432)
(8.71494e-06 3.24137e-06 0.00751868)
(1.13392e-05 3.43839e-06 0.00755945)
(-8.71335e-08 8.36797e-06 0.00734981)
(4.82067e-06 7.91541e-06 0.00746838)
(8.36852e-06 7.289e-06 0.00753725)
(1.02666e-05 6.2123e-06 0.00757042)
(-3.16688e-07 1.06674e-05 0.00734862)
(2.64859e-06 9.21549e-06 0.00747049)
(5.74139e-06 7.88756e-06 0.00753899)
(7.73222e-06 6.43435e-06 0.00757048)
(3.86229e-06 -3.11937e-06 0.00729142)
(5.7588e-06 -2.44448e-06 0.00740025)
(7.20125e-06 -1.7921e-06 0.00747706)
(8.38561e-06 -1.38861e-06 0.00752577)
(1.0227e-06 2.7537e-07 0.00731952)
(3.61392e-06 5.49627e-07 0.00743631)
(5.74756e-06 8.38683e-07 0.00751174)
(7.40522e-06 8.70877e-07 0.00755412)
(2.40011e-07 3.64541e-06 0.00734107)
(3.04346e-06 3.34718e-06 0.00746066)
(5.16502e-06 2.94914e-06 0.0075316)
(6.5932e-06 2.3834e-06 0.00756684)
(1.99523e-07 5.30895e-06 0.00734722)
(2.17065e-06 4.42721e-06 0.00746862)
(4.01395e-06 3.59481e-06 0.00753766)
(5.36543e-06 2.75025e-06 0.00756997)
(2.5612e-06 -2.24747e-06 0.00728541)
(3.6866e-06 -1.90625e-06 0.00739477)
(4.56645e-06 -1.55876e-06 0.00747228)
(5.37267e-06 -1.3434e-06 0.00752179)
(9.40458e-07 -3.7567e-07 0.00731431)
(2.53843e-06 -2.60883e-07 0.0074315)
(3.83803e-06 -1.60424e-07 0.00750761)
(4.91962e-06 -1.68926e-07 0.00755085)
(3.23936e-07 1.46044e-06 0.0073362)
(2.01424e-06 1.23134e-06 0.00745628)
(3.36106e-06 9.83143e-07 0.00752814)
(4.39636e-06 6.76106e-07 0.00756443)
(2.87342e-07 2.55805e-06 0.00734534)
(1.61149e-06 2.00933e-06 0.00746673)
(2.80681e-06 1.4924e-06 0.00753614)
(3.75581e-06 1.01543e-06 0.00756899)
(1.7314e-06 -1.61297e-06 0.00728216)
(2.42027e-06 -1.43876e-06 0.00739179)
(2.9782e-06 -1.24818e-06 0.00746966)
(3.53084e-06 -1.13144e-06 0.00751957)
(7.73878e-07 -5.93023e-07 0.00731122)
(1.77275e-06 -5.49699e-07 0.00742866)
(2.59491e-06 -5.15786e-07 0.00750515)
(3.32163e-06 -5.26396e-07 0.00754888)
(3.27955e-07 4.45688e-07 0.00733337)
(1.39207e-06 2.83668e-07 0.00745373)
(2.27582e-06 1.25019e-07 0.00752605)
(3.01151e-06 -3.84307e-08 0.00756287)
(2.70562e-07 1.17351e-06 0.00734376)
(1.16567e-06 8.17647e-07 0.00746525)
(1.97634e-06 4.99909e-07 0.00753489)
(2.66282e-06 2.24953e-07 0.00756808)
(1.18704e-06 -1.15266e-06 0.00728031)
(1.62128e-06 -1.06031e-06 0.0073901)
(1.98481e-06 -9.52538e-07 0.00746816)
(2.36137e-06 -8.87689e-07 0.00751829)
(6.0397e-07 -5.98538e-07 0.00730934)
(1.24068e-06 -5.84141e-07 0.00742694)
(1.77487e-06 -5.73396e-07 0.00750366)
(2.27312e-06 -5.78189e-07 0.00754767)
(2.91514e-07 8.30279e-09 0.00733166)
(9.85235e-07 -1.04311e-07 0.00745218)
(1.57755e-06 -2.04409e-07 0.00752473)
(2.09732e-06 -2.88755e-07 0.00756185)
(2.21585e-07 4.87309e-07 0.00734259)
(8.38038e-07 2.55885e-07 0.00746415)
(1.40537e-06 5.73268e-08 0.00753395)
(1.90253e-06 -9.81848e-08 0.00756734)
(8.19289e-07 -8.17781e-07 0.00727923)
(1.09918e-06 -7.66326e-07 0.00738912)
(1.33824e-06 -7.03464e-07 0.00746728)
(1.59215e-06 -6.6459e-07 0.00751752)
(4.55444e-07 -5.15533e-07 0.00730817)
(8.68869e-07 -5.11672e-07 0.00742588)
(1.22333e-06 -5.07892e-07 0.00750274)
(1.56668e-06 -5.05268e-07 0.00754691)
(2.39731e-07 -1.54108e-07 0.00733059)
(7.01729e-07 -2.28706e-07 0.00745119)
(1.10489e-06 -2.90085e-07 0.00752388)
(1.47039e-06 -3.31013e-07 0.00756115)
(1.74039e-07 1.65061e-07 0.00734175)
(6.03723e-07 1.25551e-08 0.00746336)
(1.00354e-06 -1.11838e-07 0.00753326)
(1.36205e-06 -1.997e-07 0.00756678)
(5.5831e-07 -5.65812e-07 0.00727857)
(7.39592e-07 -5.35138e-07 0.00738852)
(8.9789e-07 -4.96656e-07 0.00746675)
(1.06664e-06 -4.71075e-07 0.00751705)
(3.30209e-07 -4.01032e-07 0.00730745)
(5.99842e-07 -3.995e-07 0.00742522)
(8.35113e-07 -3.95879e-07 0.00750215)
(1.06919e-06 -3.88953e-07 0.00754642)
(1.84488e-07 -1.84127e-07 0.00732989)
(4.93511e-07 -2.31639e-07 0.00745055)
(7.67063e-07 -2.67132e-07 0.00752331)
(1.01976e-06 -2.84352e-07 0.00756068)
(1.30276e-07 2.60927e-08 0.00734115)
(4.28408e-07 -7.28764e-08 0.0074628)
(7.08244e-07 -1.49968e-07 0.00753276)
(9.61291e-07 -1.98779e-07 0.00756635)
(3.61357e-07 -3.67293e-07 0.00727817)
(4.7731e-07 -3.46773e-07 0.00738815)
(5.81283e-07 -3.20915e-07 0.00746641)
(6.88979e-07 -3.02394e-07 0.00751675)
(2.22461e-07 -2.77141e-07 0.007307)
(3.94953e-07 -2.73805e-07 0.0074248)
(5.47517e-07 -2.68411e-07 0.00750178)
(7.01539e-07 -2.59819e-07 0.00754609)
(1.29455e-07 -1.47987e-07 0.00732944)
(3.30965e-07 -1.75188e-07 0.00745013)
(5.11029e-07 -1.93175e-07 0.00752293)
(6.78987e-07 -1.97264e-07 0.00756035)
(9.09867e-08 -1.39188e-08 0.00734075)
(2.90946e-07 -7.46338e-08 0.00746242)
(4.79416e-07 -1.19834e-07 0.0075324)
(6.50567e-07 -1.45186e-07 0.00756604)
(2.03262e-07 -1.9756e-07 0.00727793)
(2.77649e-07 -1.79544e-07 0.00738792)
(3.45437e-07 -1.58757e-07 0.00746621)
(4.12647e-07 -1.41436e-07 0.00751656)
(1.253e-07 -1.42676e-07 0.00730672)
(2.32923e-07 -1.34773e-07 0.00742454)
(3.28771e-07 -1.25544e-07 0.00750155)
(4.26269e-07 -1.1459e-07 0.00754588)
(7.44971e-08 -6.50082e-08 0.00732916)
(2.00502e-07 -7.55987e-08 0.00744987)
(3.13475e-07 -7.99868e-08 0.00752269)
(4.19996e-07 -7.6114e-08 0.00756013)
(5.59927e-08 1.65305e-08 0.00734048)
(1.82465e-07 -1.47767e-08 0.00746216)
(3.00855e-07 -3.6139e-08 0.00753216)
(4.10053e-07 -4.56996e-08 0.00756582)
(8.55719e-08 -6.83927e-08 0.0072777)
(1.37143e-07 -4.84757e-08 0.00738771)
(1.8864e-07 -2.46112e-08 0.007466)
(2.35904e-07 -2.22016e-09 0.00751637)
(4.54061e-08 -2.17367e-08 0.00730648)
(1.16951e-07 -7.82627e-09 0.00742432)
(1.86786e-07 9.65725e-09 0.00750134)
(2.53683e-07 2.7777e-08 0.00754569)
(2.40653e-08 3.88616e-08 0.00732893)
(1.06111e-07 4.20346e-08 0.00744965)
(1.86041e-07 5.03889e-08 0.00752249)
(2.59558e-07 6.23134e-08 0.00755995)
(2.65754e-08 9.71232e-08 0.00734028)
(1.07906e-07 8.79694e-08 0.00746197)
(1.88213e-07 8.50403e-08 0.00753198)
(2.62103e-07 8.76213e-08 0.00756565)
(-0.00209186 -0.00116969 0.014826)
(-0.000365918 0.00050386 0.00625787)
(-0.000500243 0.000667069 0.0123032)
(0.00026861 0.000409611 0.00554883)
(-0.000829383 -0.00150206 0.00934034)
(1.77211e-05 0.000244348 0.0186762)
(-0.00013943 0.000696726 0.010126)
(-8.84378e-05 0.000965565 0.00900069)
(-0.000132689 -0.000418531 0.0101512)
(0.000109834 -0.00125614 0.0108558)
(0.000116675 -0.00061073 0.0114229)
(-0.000105365 -0.000655036 0.0157677)
(-0.00029648 -0.00116402 0.0130647)
(-0.00034139 -0.000439198 0.0101295)
(0.000162889 -0.000630993 0.0109085)
(6.92341e-05 -0.000327667 0.00275834)
(0.00012284 0.000366558 0.0218204)