/*--------------------------------*- C++ -*----------------------------------*\
| =========                 |                                                 |
| \\      /  F ield         | OpenFOAM: The Open Source CFD Toolbox           |
|  \\    /   O peration     | Version:  2506                                  |
|   \\  /    A nd           | Website:  www.openfoam.com                      |
|    \\/     M anipulation  |                                                 |
\*---------------------------------------------------------------------------*/
FoamFile
{
    version     2.0;
    format      ascii;
    arch        "LSB;label=32;scalar=64";
    class       volScalarField;
    location    "0.03";
    object      voidfraction;
}
// * * * * * * * * * * * * * * * * * * * * * * * * * * * * * * * * * * * * * //

dimensions      [0 0 0 0 0 0 0];

internalField   nonuniform List<scalar> 
1152
(
0.39433
0.44963
0.45753
0.383796
0.42593
0.470697
0.381163
0.381163
0.444363
0.436463
0.46543
0.436463
0.41013
0.541797
0.47333
0.42593
0.39433
0.44963
0.475963
0.304796
0.42593
0.446997
0.354829
0.391696
0.38643
0.460163
0.470697
0.333763
0.42593
0.389063
0.41803
0.357463
0.357463
0.399596
0.344296
0.310062
0.349563
0.362729
0.446997
0.41803
0.391696
0.40223
0.370629
0.452263
0.367996
0.460163
0.346929
0.370629
0.399596
0.452263
0.354829
0.44173
0.48123
0.391696
0.420663
0.41803
0.349563
0.399596
0.396963
0.325862
0.367996
0.46543
0.428563
0.51283
0.362729
0.367996
0.354829
0.407496
0.391696
0.420663
0.423296
0.389063
0.404863
0.42593
0.344296
0.48123
0.47333
0.352196
0.344296
0.357463
0.370629
0.45753
0.444363
0.446997
0.415396
0.431196
0.40223
0.444363
0.444363
0.454897
0.375896
0.470697
0.444363
0.415396
0.412763
0.431196
0.734032
0.702431
0.686631
0.607631
0.784065
0.694531
0.604998
0.549697
0.736665
0.676098
0.612898
0.702431
0.749832
0.615531
0.547064
0.599731
1
1
1
1
1
1
1
1
1
1
1
1
1
1
1
1
1
1
1
1
1
1
1
1
1
1
1
1
1
1
1
1
1
1
1
1
1
1
1
1
1
1
1
1
1
1
1
1
1
1
1
1
1
1
1
1
1
1
1
1
1
1
1
1
1
1
1
1
1
1
1
1
1
1
1
1
1
1
1
1
1
1
1
1
1
1
1
1
1
1
1
1
1
1
1
1
1
1
1
1
1
1
1
1
1
1
1
1
1
1
1
1
1
1
1
1
1
1
1
1
1
1
1
1
1
1
1
1
1
1
1
1
1
1
1
1
1
1
1
1
1
1
1
1
1
1
1
1
1
1
1
1
1
1
1
1
1
1
1
1
1
1
1
1
1
1
1
1
1
1
1
1
1
1
1
1
1
1
1
1
1
1
1
1
1
1
1
1
1
1
1
1
1
1
1
1
1
1
1
1
1
1
1
1
1
1
1
1
1
1
1
1
1
1
1
1
1
1
1
1
1
1
1
1
1
1
1
1
1
1
1
1
1
1
1
1
1
1
1
1
1
1
1
1
1
1
1
1
1
1
1
1
1
1
1
1
1
1
1
1
1
1
1
1
1
1
1
1
1
1
1
1
0.468532
0.430693
0.463241
0.430467
0.384702
0.44212
0.451562
0.467211
0.443532
0.473537
0.41595
0.426138
0.416568
0.412498
0.473797
0.466251
0.473928
0.433788
0.394332
0.373514
0.378179
0.439684
0.396164
0.39981
0.422569
0.382621
0.373215
0.382827
0.387933
0.418432
0.418524
0.408616
0.468532
0.433788
0.379825
0.417324
0.460799
0.437248
0.401704
0.48005
0.409229
0.410107
0.427821
0.366586
0.386144
0.376891
0.33893
0.446204
0.406483
0.390471
0.405212
0.294655
0.345566
0.459173
0.404474
0.431906
0.434003
0.435479
0.434944
0.401776
0.455941
0.35711
0.367672
0.411122
0.479324
0.353342
0.4306
0.342847
0.397747
0.429939
0.382315
0.40623
0.45306
0.384736
0.425447
0.40719
0.411199
0.398651
0.425157
0.396087
0.409181
0.356436
0.423346
0.461134
0.391225
0.395833
0.421093
0.438325
0.401606
0.427022
0.363718
0.431552
0.436254
0.414476
0.440633
0.441193
0.678961
0.702971
0.786022
0.798473
0.64778
0.75882
0.831037
0.823474
0.771314
0.879484
0.819562
0.756379
0.672491
0.756691
0.831969
0.759437
1
1
1
1
1
1
1
1
1
1
1
1
1
1
1
1
1
1
1
1
1
1
1
1
1
1
1
1
1
1
1
1
1
1
1
1
1
1
1
1
1
1
1
1
1
1
1
1
1
1
1
1
1
1
1
1
1
1
1
1
1
1
1
1
1
1
1
1
1
1
1
1
1
1
1
1
1
1
1
1
1
1
1
1
1
1
1
1
1
1
1
1
1
1
1
1
1
1
1
1
1
1
1
1
1
1
1
1
1
1
1
1
1
1
1
1
1
1
1
1
1
1
1
1
1
1
1
1
1
1
1
1
1
1
1
1
1
1
1
1
1
1
1
1
1
1
1
1
1
1
1
1
1
1
1
1
1
1
1
1
1
1
1
1
1
1
1
1
1
1
1
1
1
1
1
1
1
1
1
1
1
1
1
1
1
1
1
1
1
1
1
1
1
1
1
1
1
1
1
1
1
1
1
1
1
1
1
1
1
1
1
1
1
1
1
1
1
1
1
1
1
1
1
1
1
1
1
1
1
1
1
1
1
1
1
1
1
1
1
1
1
1
1
1
1
1
1
1
1
1
1
1
1
1
1
1
1
1
1
1
1
1
1
1
1
1
1
1
1
1
1
1
0.500906
0.421663
0.468306
0.391513
0.412129
0.451865
0.424908
0.412498
0.412466
0.415554
0.439692
0.476008
0.434848
0.40623
0.41531
0.373534
0.457741
0.432534
0.38636
0.423727
0.356436
0.395833
0.435479
0.450082
0.390705
0.421093
0.453937
0.403047
0.439229
0.396601
0.401776
0.463745
0.417274
0.382528
0.407323
0.434465
0.393565
0.485971
0.422793
0.414476
0.506762
0.346306
0.411202
0.378727
0.382276
0.444744
0.412603
0.466251
0.463137
0.410792
0.3997
0.495313
0.368812
0.44212
0.418565
0.42041
0.394332
0.418323
0.38746
0.40968
0.430467
0.358086
0.390948
0.37604
0.463137
0.391225
0.41304
0.452361
0.381189
0.456737
0.407993
0.402607
0.408839
0.412784
0.385086
0.391992
0.369133
0.409439
0.423431
0.416134
0.433461
0.456451
0.432097
0.491734
0.436882
0.451865
0.418565
0.398651
0.394332
0.421093
0.375589
0.420735
0.334084
0.422277
0.41531
0.463745
0.568351
0.602122
0.595989
0.645646
0.637995
0.551747
0.591938
0.643938
0.669965
0.667613
0.719846
0.801016
0.719615
0.733606
0.718483
0.67925
1
1
0.998094
0.99821
1
1
1
1
1
1
1
1
1
1
1
1
1
1
1
1
1
1
1
1
1
1
1
1
1
1
1
1
1
1
1
1
1
1
1
1
1
1
1
1
1
1
1
1
1
1
1
1
1
1
1
1
1
1
1
1
1
1
1
1
1
1
1
1
1
1
1
1
1
1
1
1
1
1
1
1
1
1
1
1
1
1
1
1
1
1
1
1
1
1
1
1
1
1
1
1
1
1
1
1
1
1
1
1
1
1
1
1
1
1
1
1
1
1
1
1
1
1
1
1
1
1
1
1
1
1
1
1
1
1
1
1
1
1
1
1
1
1
1
1
1
1
1
1
1
1
1
1
1
1
1
1
1
1
1
1
1
1
1
1
1
1
1
1
1
1
1
1
1
1
1
1
1
1
1
1
1
1
1
1
1
1
1
1
1
1
1
1
1
1
1
1
1
1
1
1
1
1
1
1
1
1
1
1
1
1
1
1
1
1
1
1
1
1
1
1
1
1
1
1
1
1
1
1
1
1
1
1
1
1
1
1
1
1
1
1
1
1
1
1
1
1
1
1
1
1
1
1
1
1
1
1
1
1
1
1
1
1
1
1
1
1
1
1
1
1
1
1
)
;

boundaryField
{
    inlet
    {
        type            fixedValue;
        value           uniform 1;
    }
    outlet
    {
        type            fixedValue;
        value           uniform 1;
    }
    wall
    {
        type            zeroGradient;
    }
    procBoundary0to1
    {
        type            processor;
        value           nonuniform List<scalar> 
192
(
0.531264
0.444363
0.44963
0.404863
0.399596
0.396963
0.412763
0.41013
0.491764
0.357463
0.389063
0.40223
0.344296
0.367996
0.431196
0.352196
0.43383
0.42593
0.415396
0.45753
0.362729
0.47333
0.375896
0.346929
0.723498
0.662931
0.631331
0.515464
1
1
1
0.997367
1
1
1
1
1
1
1
1
1
1
1
1
1
1
1
1
1
1
1
1
1
1
1
1
1
1
1
1
1
1
1
1
1
1
1
1
1
1
1
1
1
1
1
1
1
1
1
1
1
1
1
1
1
1
1
1
1
1
1
1
1
1
1
1
0.538266
0.442169
0.48043
0.483792
0.418358
0.410519
0.427367
0.441193
0.361088
0.380848
0.389782
0.325923
0.344981
0.34722
0.447266
0.363511
0.395092
0.410519
0.427367
0.383558
0.339612
0.475798
0.391992
0.383558
0.695756
0.728997
0.750164
0.822084
1
1
1
1
1
1
1
1
1
1
1
1
1
1
1
1
1
1
1
1
1
1
1
1
1
1
1
1
1
1
1
1
1
1
1
1
1
1
1
1
1
1
1
1
1
1
1
1
1
1
1
1
1
1
1
1
1
1
1
1
1
1
1
1
1
1
1
1
)
;
    }
    procBoundary0to2
    {
        type            processor;
        value           nonuniform List<scalar> 
192
(
0.420663
0.381163
0.407496
0.360096
0.431196
0.367996
0.407496
0.310062
0.399596
0.40223
0.399596
0.491764
0.41803
0.367996
0.391696
0.407496
0.352196
0.399596
0.428563
0.436463
0.460163
0.39433
0.381163
0.349563
0.649764
0.615531
0.599731
0.604998
1
1
1
1
1
1
1
1
1
1
1
1
1
1
1
1
1
1
1
1
1
1
1
1
1
1
1
1
1
1
1
1
1
1
1
1
1
1
1
1
1
1
1
1
1
1
1
1
1
1
1
1
1
1
1
1
1
1
1
1
1
1
1
1
1
1
1
1
0.445203
0.461951
0.376516
0.458734
0.362878
0.410519
0.33893
0.361005
0.450572
0.521294
0.40968
0.456228
0.411199
0.461951
0.40968
0.436181
0.443413
0.386782
0.367672
0.423652
0.439834
0.507447
0.387571
0.436181
0.754815
0.86351
0.803227
0.794519
1
1
1
1
1
1
1
1
1
1
1
1
1
1
1
1
1
1
1
1
1
1
1
1
1
1
1
1
1
1
1
1
1
1
1
1
1
1
1
1
1
1
1
1
1
1
1
1
1
1
1
1
1
1
1
1
1
1
1
1
1
1
1
1
1
1
1
1
)
;
    }
}


// ************************************************************************* //
