FoamFile
{version 2.0; format ascii;class Cloud<passiveParticle>; location 0;object  positions;}
2511
(
( -0.00967801 0.00548236 0.000499549 ) 0 
( -0.00616431 0.0118418 0.0012509 ) 0 
( -0.0058883 0.00139816 0.00337442 ) 0 
( -0.00124079 0.00856376 0.00289122 ) 0 
( -0.00871418 0.0030627 0.00110387 ) 0 
( -0.000404191 0.00250599 0.00509123 ) 0 
( -0.00769605 0.00851503 0.00519975 ) 0 
( -0.00914568 0.0068442 0.00183591 ) 0 
( -0.00967609 0.00170679 0.00295017 ) 0 
( -0.00471006 0.00744509 0.00293936 ) 0 
( -0.00419709 0.00506735 0.00465913 ) 0 
( -0.00141356 0.00212424 0.00800437 ) 0 
( -0.00773972 0.00832414 0.00346752 ) 0 
( -0.000886554 0.00787847 0.000499656 ) 0 
( -0.0049021 0.011502 0.000499674 ) 0 
( -0.000286108 0.00874935 0.000499886 ) 0 
( -0.00828676 0.00239055 0.000499652 ) 0 
( -0.00869399 0.00209761 0.00136447 ) 0 
( -0.00649862 0.00937713 0.000499792 ) 0 
( -0.000873365 0.00168364 0.00721475 ) 0 
( -0.0034191 0.00475084 0.00741807 ) 0 
( -0.0129309 0.00328934 0.00175267 ) 0 
( -0.00489608 0.00109552 0.00353865 ) 0 
( -0.00753002 0.00545432 0.00141418 ) 0 
( -0.00141916 0.00501687 0.0049741 ) 0 
( -0.00755 0.00887664 0.00427899 ) 0 
( -0.00106109 0.0100853 0.00375779 ) 0 
( -0.00061708 0.00431703 0.00332727 ) 0 
( -0.00707162 0.00387037 0.000701316 ) 0 
( -0.00330311 0.000925016 0.00667916 ) 0 
( -0.0107598 0.00604254 0.00683587 ) 0 
( -0.00386371 0.00178759 0.00126947 ) 0 
( -0.0124 0.0038126 0.00567894 ) 0 
( -0.000194306 0.010643 0.00469053 ) 0 
( -0.00227465 0.0106232 0.000499825 ) 0 
( -0.00843752 0.0030817 0.00350057 ) 0 
( -0.00172582 0.00347562 0.00303031 ) 0 
( -0.00833139 0.000506889 0.00419173 ) 0 
( -0.00836614 0.00248388 0.00449865 ) 0 
( -0.00457005 0.00749652 0.00719062 ) 0 
( -0.00714537 0.00289381 0.000499634 ) 0 
( -0.00574428 0.00629365 0.00281642 ) 0 
( -0.00348313 0.00178977 0.00246999 ) 0 
( -0.011917 0.00363367 0.00450616 ) 0 
( -0.00449903 0.0092332 0.00281614 ) 0 
( -0.0050047 0.00626629 0.00205167 ) 0 
( -0.0118214 0.00177309 0.00260665 ) 0 
( -0.00266054 0.00304962 0.000499637 ) 0 
( -0.00220207 0.00855227 0.000499842 ) 0 
( -0.00280614 0.0063547 0.00256394 ) 0 
( -0.00766893 0.0097622 0.00375226 ) 0 
( -0.000105806 0.00835676 0.00284491 ) 0 
( -0.0115408 0.00671096 0.00178292 ) 0 
( -0.00513547 0.0106018 0.0040195 ) 0 
( -0.00986331 0.0089966 0.00342665 ) 0 
( -0.0107001 0.00186429 0.00402765 ) 0 
( -0.0130362 0.00286534 0.00384326 ) 0 
( -0.00993368 0.00644888 0.000499689 ) 0 
( -0.00308126 0.00280933 0.00740601 ) 0 
( -0.00216737 0.0123436 0.0066329 ) 0 
( -0.0054944 0.0100283 0.00671645 ) 0 
( -0.00462889 0.00219977 0.00724776 ) 0 
( -5.39822e-05 0.0133501 0.005719 ) 0 
( -0.00349185 0.00617719 0.00770511 ) 0 
( -0.00974257 0.00267687 0.00702042 ) 0 
( -0.0108225 3.92665e-05 0.00209262 ) 0 
( -0.00214873 0.00562394 0.0046252 ) 0 
( -0.0092444 0.000847869 0.00396866 ) 0 
( -0.00714906 0.00184997 0.00672589 ) 0 
( -0.00220682 0.00748781 0.00382462 ) 0 
( -0.00552841 9.87365e-05 0.00652576 ) 0 
( -0.00137532 0.0106286 0.00453613 ) 0 
( -0.00987664 0.00174555 0.00114875 ) 0 
( -0.00954099 0.00430319 0.0058536 ) 0 
( -0.00858364 0.00788036 0.00316507 ) 0 
( -0.0037038 0.00614047 0.000499857 ) 0 
( -7.55507e-05 0.0102312 0.00367269 ) 0 
( -0.0107527 0.00163465 0.0029645 ) 0 
( -0.00916487 0.00885623 0.00163331 ) 0 
( -9.35696e-05 0.00233955 0.00100874 ) 0 
( -0.00232141 0.000824175 0.000499624 ) 0 
( -0.00837815 0.00793213 0.000500019 ) 0 
( -0.00855893 0.00448142 0.00591114 ) 0 
( -0.010331 0.000774206 0.00437024 ) 0 
( -0.00778468 0.00791155 0.00440719 ) 0 
( -0.00631281 0.00423722 0.00677345 ) 0 
( -0.00363959 0.00193195 0.00718931 ) 0 
( -0.00214068 0.0124286 0.000499803 ) 0 
( -0.00979361 0.00558345 0.00417774 ) 0 
( -0.000722452 0.00494365 0.0078342 ) 0 
( -0.00897151 0.0087368 0.000499662 ) 0 
( -0.0063859 0.000182228 0.00361933 ) 0 
( -0.00221166 0.000849619 0.00321577 ) 0 
( -0.00139515 0.00632869 0.00137979 ) 0 
( -0.00776804 0.0107617 0.00341038 ) 0 
( -0.00226573 0.00591846 0.00367681 ) 0 
( -0.00364763 0.00324171 0.0017383 ) 0 
( -0.00981651 0.0075121 0.00215714 ) 0 
( -0.0100185 0.00765857 0.00591962 ) 0 
( -0.00397823 0.0116239 0.00488223 ) 0 
( -0.00471576 0.00628291 0.000499726 ) 0 
( -0.00522332 0.00551532 0.00629056 ) 0 
( -0.000656084 0.00203692 0.00330701 ) 0 
( -0.0091844 0.00964696 0.00493597 ) 0 
( -0.00756465 0.00171168 0.00441309 ) 0 
( -0.00397284 6.10867e-05 0.00134807 ) 0 
( -0.00966485 0.0022993 0.00807289 ) 0 
( -0.00990059 0.00256779 0.00529134 ) 0 
( -0.000430237 0.003988 0.00782147 ) 0 
( -0.00225507 0.00161479 0.00819394 ) 0 
( -0.00202286 0.00769895 0.00640278 ) 0 
( -0.00972147 0.00365597 0.00214982 ) 0 
( -0.00656988 0.00156401 0.00596301 ) 0 
( -0.00256096 0.00909037 0.00219559 ) 0 
( -0.00320581 0.00978152 0.00253456 ) 0 
( -0.0061518 0.00802118 0.00178993 ) 0 
( -0.0122132 0.00477003 0.00545964 ) 0 
( -0.00626977 0.00545087 0.0030558 ) 0 
( -0.0117657 0.00630795 0.00466741 ) 0 
( -0.00806269 0.00456221 0.00125131 ) 0 
( -0.00134539 0.0025508 0.00705833 ) 0 
( -0.00413393 0.00856392 0.00590236 ) 0 
( -0.00407915 0.00505614 0.00365569 ) 0 
( -0.0126659 0.0042188 0.0020089 ) 0 
( -0.00895862 0.000405751 0.00602398 ) 0 
( -0.00127964 0.00379638 0.0038657 ) 0 
( -0.000879757 0.00862327 0.00553709 ) 0 
( -0.00255633 0.00603972 0.00812075 ) 0 
( -0.00952615 0.00790484 0.000499688 ) 0 
( -0.00781875 0.0108209 0.00440701 ) 0 
( -0.00994905 0.00214789 0.00619749 ) 0 
( -0.00669403 0.00192254 0.00286291 ) 0 
( -0.00291106 0.00748196 0.00680676 ) 0 
( -0.00271846 0.00737815 0.00493342 ) 0 
( -0.00984122 0.00668899 0.00555619 ) 0 
( -0.0116586 0.00159632 0.000499787 ) 0 
( -0.0024716 0.00825407 0.00278744 ) 0 
( -0.0119847 0.000174202 0.00321954 ) 0 
( -0.0103223 0.00429212 0.0033055 ) 0 
( -0.011165 0.000740646 0.00381972 ) 0 
( -0.00433872 0.00428136 0.00307936 ) 0 
( -0.0114614 0.00252921 0.00397424 ) 0 
( -0.00268147 0.00427799 0.00125919 ) 0 
( -0.00350763 0.000320023 0.00469573 ) 0 
( -0.00286819 0.00240657 0.00327945 ) 0 
( -0.00636547 0.00230652 0.000714637 ) 0 
( -0.00908612 0.00790261 0.00618575 ) 0 
( -0.00918014 0.000542503 0.0069893 ) 0 
( -0.00158087 0.00564714 0.00696345 ) 0 
( -0.00402416 0.00587542 0.00307422 ) 0 
( -0.00285864 0.0116809 0.0021169 ) 0 
( -0.0104275 0.00833688 0.00049971 ) 0 
( -0.00449327 0.00335809 0.00225928 ) 0 
( -0.00213893 0.00954068 0.00409328 ) 0 
( -0.000285529 0.00120448 0.00656334 ) 0 
( -0.00746245 0.00658936 0.00656518 ) 0 
( -0.00535597 0.000366227 0.00303217 ) 0 
( -0.00183924 0.0112949 0.0012984 ) 0 
( -0.00885701 0.00131301 0.00561625 ) 0 
( -0.00476052 0.00162437 0.00168014 ) 0 
( -0.00816524 0.00821331 0.0064203 ) 0 
( -0.000676592 0.0113396 0.00611855 ) 0 
( -0.00865105 0.0062773 0.00365274 ) 0 
( -0.0115554 0.00162386 0.00356043 ) 0 
( -0.00361425 0.00423351 0.00161634 ) 0 
( -0.0095474 0.00124275 0.00633589 ) 0 
( -0.00303254 0.0101312 0.00376002 ) 0 
( -0.00343089 0.00884694 0.00280983 ) 0 
( -0.00467096 0.00534619 0.00225638 ) 0 
( -0.00494289 0.0115639 0.0019564 ) 0 
( -0.00570934 0.000938691 0.00703691 ) 0 
( -0.00598166 0.00142447 0.00516687 ) 0 
( -0.00383018 0.00053669 0.00743476 ) 0 
( -0.0095113 0.00546554 0.00205294 ) 0 
( -0.00295512 0.00721968 0.00200472 ) 0 
( -0.0114079 0.00542975 0.00520527 ) 0 
( -0.01073 0.00196822 0.000499687 ) 0 
( -0.00336908 0.00787451 0.00554816 ) 0 
( -0.00769473 0.00177292 0.0027578 ) 0 
( -0.00452128 0.0124914 0.00649338 ) 0 
( -0.00309142 0.00693095 0.000499613 ) 0 
( -0.00259674 0.00425617 0.00250028 ) 0 
( -0.0109512 0.00408862 0.00410005 ) 0 
( -0.0128196 0.000463162 0.00602335 ) 0 
( -0.0128185 0.000355432 0.00406043 ) 0 
( -0.0109206 0.00747744 0.0055282 ) 0 
( -0.010648 0.0050759 0.00224895 ) 0 
( -0.00566349 0.00549857 0.00212158 ) 0 
( -0.00310517 0.00999822 0.000499739 ) 0 
( -0.00537412 0.00312184 0.00378916 ) 0 
( -0.00539462 0.00752945 0.00656664 ) 0 
( -0.0131825 0.00210956 0.00148923 ) 0 
( -0.0113547 0.00333168 0.00221508 ) 0 
( -0.00165244 0.011827 0.00384004 ) 0 
( -0.00747474 0.00542344 0.00717767 ) 0 
( -0.00833226 0.00693274 0.00296815 ) 0 
( -0.00192955 0.000121513 0.00384774 ) 0 
( -0.00117937 0.000782059 0.00386649 ) 0 
( -0.0092389 0.00256737 0.00205878 ) 0 
( -0.00126076 0.011262 0.00311405 ) 0 
( -0.000631928 0.00975511 0.000499755 ) 0 
( -0.00697399 0.00628557 0.00111825 ) 0 
( -0.00661131 0.0108527 0.00125964 ) 0 
( -1.43865e-05 0.0133499 0.00349803 ) 0 
( -0.00633693 0.00731975 0.00259789 ) 0 
( -0.0022482 0.00343241 0.00703293 ) 0 
( -0.00755785 0.00452252 0.00432485 ) 0 
( -0.00190372 0.00378415 0.00186257 ) 0 
( -0.000517372 0.0073037 0.00122954 ) 0 
( -0.0115937 0.00120517 0.00176619 ) 0 
( -0.00729253 0.00859568 0.00611158 ) 0 
( -0.0104019 0.00685029 0.00636806 ) 0 
( -9.06137e-05 0.00442472 0.00089394 ) 0 
( -0.000738507 0.00863092 0.00454728 ) 0 
( -0.00895998 0.00714034 0.00541689 ) 0 
( -0.00426008 0.00238928 0.00210774 ) 0 
( -0.00136476 0.00513567 0.000499842 ) 0 
( -0.00977685 0.0090592 0.00548649 ) 0 
( -0.0102154 0.000416154 0.00529653 ) 0 
( -0.00325 0.00232589 0.00634187 ) 0 
( -0.00360833 0.00428197 0.00655396 ) 0 
( -0.000383107 0.00134243 0.00409322 ) 0 
( -0.00627123 0.00720871 0.00620896 ) 0 
( -0.0108421 0.00772129 0.00660391 ) 0 
( -0.0051499 0.0123168 0.00403515 ) 0 
( -0.007931 0.000359421 0.00672803 ) 0 
( -0.000981885 0.0040293 0.00592197 ) 0 
( -0.00910092 0.00976732 0.00694328 ) 0 
( -0.00735701 0.0074097 0.00359805 ) 0 
( -4.90104e-06 0.00220393 0.00691614 ) 0 
( -0.00722387 0.000145852 0.00508478 ) 0 
( -0.00257517 0.00602262 0.00599954 ) 0 
( -0.00163235 0.0098508 0.00049959 ) 0 
( -0.00211791 0.0121822 0.00166993 ) 0 
( -0.00103767 0.0133096 0.00319575 ) 0 
( -0.00375684 0.00809789 0.00110562 ) 0 
( -0.00398528 0.00285521 0.00586803 ) 0 
( -0.00398041 0.00118175 0.00488846 ) 0 
( -0.00795699 0.00069542 0.00127216 ) 0 
( -0.00730389 0.00555563 0.002999 ) 0 
( -0.00681648 0.00817815 0.00280139 ) 0 
( -0.00439273 0.00215514 0.000499857 ) 0 
( -0.000538608 0.00466066 0.00528602 ) 0 
( -0.00250497 0.00454732 0.00706883 ) 0 
( -0.00282437 0.000808133 0.00574163 ) 0 
( -0.00418626 0.00313575 0.000499695 ) 0 
( -0.0042858 0.00792357 0.00514986 ) 0 
( -0.00474196 0.000761902 0.00117474 ) 0 
( -0.000135771 0.00915364 0.00344819 ) 0 
( -0.00370126 0.0121887 0.00193821 ) 0 
( -0.00558726 0.00300651 0.00475927 ) 0 
( -0.0125526 0.00111983 0.00149664 ) 0 
( -0.00226975 0.0109308 0.00684411 ) 0 
( -0.0054926 0.000344991 0.00403827 ) 0 
( -0.00150343 0.00653811 0.00386321 ) 0 
( -0.000572361 0.00894764 0.00213588 ) 0 
( -0.0098896 0.00896694 0.00449728 ) 0 
( -0.00234852 0.0114456 0.00323214 ) 0 
( -0.00148262 0.00558101 0.00795607 ) 0 
( -0.00378583 0.00782678 0.00294066 ) 0 
( -0.00409014 0.0060282 0.00491458 ) 0 
( -0.00221658 0.00681242 0.000968698 ) 0 
( -0.0025842 0.0106455 0.00145033 ) 0 
( -0.00378491 0.0105919 0.00268903 ) 0 
( -0.00213296 0.0103667 0.00538559 ) 0 
( -0.000726985 0.000113512 0.00537023 ) 0 
( -0.00845667 0.0103297 0.00499999 ) 0 
( -0.00588226 0.0050129 0.00492148 ) 0 
( -0.00070549 0.00573015 0.0055109 ) 0 
( -0.00544275 0.00643952 0.00116977 ) 0 
( -0.00227527 0.00648887 0.00516734 ) 0 
( -0.0122512 0.00342386 0.000499722 ) 0 
( -0.00975102 0.00459718 0.00248723 ) 0 
( -0.0037812 0.00947638 0.00350327 ) 0 
( -0.00572301 0.00220835 0.00409621 ) 0 
( -0.0104904 0.00436802 0.000499702 ) 0 
( -0.00325479 0.0113611 0.00125638 ) 0 
( -0.00426112 0.00201413 0.00536614 ) 0 
( -0.0051618 0.00316306 0.00788978 ) 0 
( -0.00315238 0.00529446 0.00641078 ) 0 
( -0.0103604 0.00586939 0.00171285 ) 0 
( -0.00889407 0.00541753 0.00646089 ) 0 
( -0.0116878 0.00605121 0.00764131 ) 0 
( -0.0118888 0.00607282 0.00310218 ) 0 
( -0.00550053 0.00479821 0.00692976 ) 0 
( -0.00649731 0.0107458 0.00276063 ) 0 
( -0.000531437 0.000620519 0.00312191 ) 0 
( -0.00138674 0.00435264 0.00268992 ) 0 
( -0.00574084 0.00389843 0.00433404 ) 0 
( -0.0037041 0.00699756 0.00717487 ) 0 
( -0.00811904 0.00458758 0.00714787 ) 0 
( -0.00311055 0.00331077 0.00654146 ) 0 
( -0.00857123 0.0102353 0.00136117 ) 0 
( -0.00727383 0.00887362 0.00707185 ) 0 
( -0.00394199 0.0116734 0.00640829 ) 0 
( -0.0104285 0.00319483 0.00270823 ) 0 
( -0.00982074 0.0031473 0.00610217 ) 0 
( -0.00773896 0.00854884 0.00249314 ) 0 
( -0.00817546 0.00199417 0.00534925 ) 0 
( -0.00820596 0.00136607 0.000499847 ) 0 
( -0.00507864 0.00533146 0.00345089 ) 0 
( -0.0132931 0.00123547 0.00404938 ) 0 
( -0.00697942 0.0104198 0.00588526 ) 0 
( -0.00997745 0.00647749 0.00458797 ) 0 
( -0.0126439 0.00428457 0.000823118 ) 0 
( -0.00284152 0.0110705 0.00533899 ) 0 
( -0.0111386 0.000935644 0.00604241 ) 0 
( -0.0112365 0.00264751 0.00677808 ) 0 
( -0.00331698 0.0106989 0.00454196 ) 0 
( -0.00220688 0.012451 0.00444965 ) 0 
( -0.00740257 0.00627182 0.00202153 ) 0 
( -0.00295524 0.0130189 0.00196336 ) 0 
( -0.0133207 0.000887409 0.00498747 ) 0 
( -0.0100573 0.00339757 0.00366648 ) 0 
( -0.00508908 0.00663641 0.00623798 ) 0 
( -0.00114519 0.000982494 0.000791978 ) 0 
( -0.00619389 0.00532423 0.00643824 ) 0 
( -8.03089e-05 0.00658266 0.00217383 ) 0 
( -0.00223077 0.00177524 0.00283795 ) 0 
( -0.000922673 0.00133138 0.00580335 ) 0 
( -0.00839747 0.00725126 0.00662124 ) 0 
( -0.00664961 9.66079e-06 0.00650783 ) 0 
( -5.92123e-06 0.0112296 0.00160474 ) 0 
( -0.0113474 0.00240767 0.00183278 ) 0 
( -0.00198246 0.00512632 0.00290561 ) 0 
( -0.0090538 0.00895159 0.00268822 ) 0 
( -0.00262368 0.00516872 0.0020522 ) 0 
( -0.00476481 0.0105985 0.00308964 ) 0 
( -0.00995537 0.00797823 0.00699179 ) 0 
( -0.00632493 0.00325501 0.00350918 ) 0 
( -0.00581908 0.00582475 0.00723693 ) 0 
( -0.00587882 0.0112472 0.000499626 ) 0 
( -0.00198114 0.00866148 0.00355768 ) 0 
( -0.00578743 0.00832056 0.00703432 ) 0 
( -0.00359356 0.00680726 0.0013551 ) 0 
( -0.0013415 0.0120588 0.0047615 ) 0 
( -0.00123344 1.58631e-05 0.00135825 ) 0 
( -0.011079 0.00593256 0.00253222 ) 0 
( -0.00441931 0.00368793 0.00621117 ) 0 
( -0.00748559 0.0110539 0.00249605 ) 0 
( -0.00428358 0.00430049 0.00543258 ) 0 
( -0.00423476 0.0114761 0.00281445 ) 0 
( -0.00968831 0.00308917 0.00132677 ) 0 
( -0.00572328 0.000159653 0.00197536 ) 0 
( -0.0017076 0.00449174 0.00118375 ) 0 
( -0.00593419 0.00238009 0.00545709 ) 0 
( -0.012371 0.00501837 0.00148604 ) 0 
( -0.00222506 0.0123144 0.00275293 ) 0 
( -0.00770274 0.00617155 0.00398819 ) 0 
( -0.00611613 0.000649722 0.00119731 ) 0 
( -0.00550745 0.0121575 0.00636244 ) 0 
( -0.011876 0.00422663 0.00369602 ) 0 
( -0.00450138 6.47878e-05 0.000499597 ) 0 
( -0.000863472 0.00596141 0.00215735 ) 0 
( -0.00687629 0.00471967 0.00265556 ) 0 
( -0.00293277 0.00113141 0.00480064 ) 0 
( -0.00277109 0.00145892 0.00733604 ) 0 
( -0.00486926 0.00551219 0.00723116 ) 0 
( -0.00127632 0.00753604 0.00343295 ) 0 
( -0.0120246 0.0038518 0.00275214 ) 0 
( -0.000425634 0.0103276 0.00612188 ) 0 
( -0.00490529 0.00983078 0.00461761 ) 0 
( -0.001511 0.000510683 0.00707863 ) 0 
( -0.000725015 0.00317015 0.00441352 ) 0 
( -0.00509206 0.00781768 0.00388765 ) 0 
( -0.0101335 0.00348209 0.00495953 ) 0 
( -0.0113699 0.00497178 0.00326179 ) 0 
( -0.00710907 0.00569667 0.00628721 ) 0 
( -0.00431859 0.00445044 0.00810027 ) 0 
( -0.00616251 0.00434783 0.00328732 ) 0 
( -0.0125041 0.00260892 0.00466988 ) 0 
( -0.000895108 0.00045962 0.00629292 ) 0 
( -0.00904473 0.00448365 0.00678517 ) 0 
( -0.00723825 0.00455829 0.00762001 ) 0 
( -0.0022837 0.0100511 0.00219598 ) 0 
( -0.0050106 0.00977649 0.000993772 ) 0 
( -0.00889282 0.00869622 0.00465114 ) 0 
( -0.00195962 0.00594241 0.00210916 ) 0 
( -0.00426162 0.0060635 0.00136283 ) 0 
( -0.00127166 0.00891835 0.000499858 ) 0 
( -0.00463269 0.0103023 0.00545597 ) 0 
( -0.0123729 0.00153412 0.00646588 ) 0 
( -0.00828974 0.00573361 0.0027809 ) 0 
( -0.00926469 0.00961187 0.00393984 ) 0 
( -0.0109671 0.0033935 0.00129553 ) 0 
( -0.00893178 0.00410478 0.00144277 ) 0 
( -0.00221888 0.00337163 0.00493533 ) 0 
( -0.00537403 0.00365744 0.00169586 ) 0 
( -0.00715163 0.00805177 0.00175422 ) 0 
( -0.00785968 0.00489251 0.00217281 ) 0 
( -0.00875621 0.00770938 0.00456514 ) 0 
( -0.012521 0.00147312 0.00511751 ) 0 
( -0.000424563 0.0095524 0.00431901 ) 0 
( -0.000753962 0.00621988 0.00820219 ) 0 
( -0.00687235 0.0031651 0.00142238 ) 0 
( -0.000990407 0.0131435 0.00207829 ) 0 
( -0.00499469 0.00685426 0.00414564 ) 0 
( -0.000163613 0.00636915 0.0011962 ) 0 
( -0.00689649 0.0010959 0.0034325 ) 0 
( -0.00171425 0.00875229 0.00500161 ) 0 
( -0.00367462 0.00382396 0.00367069 ) 0 
( -0.00393969 0.0110035 0.00566617 ) 0 
( -0.00647569 0.00150909 0.00759892 ) 0 
( -0.00712789 0.00608758 0.00491899 ) 0 
( -0.00695553 0.0113552 0.00381541 ) 0 
( -0.00313384 0.000477064 0.00814935 ) 0 
( -0.00863738 0.00873483 0.00368194 ) 0 
( -0.00420423 0.00891229 0.00441666 ) 0 
( -0.00669635 0.00217362 0.00484054 ) 0 
( -0.00554747 0.00721697 0.0017896 ) 0 
( -0.010713 0.00796592 0.00436295 ) 0 
( -0.0081101 0.00646662 0.00485261 ) 0 
( -0.00604917 0.00324778 0.000499641 ) 0 
( -0.00064515 0.00980954 0.00289128 ) 0 
( -0.00323941 0.0129305 0.00629318 ) 0 
( -0.00449215 0.00175337 0.00422672 ) 0 
( -0.00638099 0.00783751 0.000499756 ) 0 
( -0.00784001 0.00543812 0.00465363 ) 0 
( -0.0051051 0.00142393 0.000499855 ) 0 
( -0.00813767 8.33287e-05 0.000499775 ) 0 
( -0.00189773 0.0025935 0.00346886 ) 0 
( -0.00228881 0.00997952 0.00715168 ) 0 
( -0.0053816 0.00736775 0.00558004 ) 0 
( -0.00362546 0.0028288 0.00385075 ) 0 
( -0.00735272 0.00710249 0.00514152 ) 0 
( -0.00394687 0.00690639 0.00329654 ) 0 
( -0.00743881 0.00477823 0.000499838 ) 0 
( -0.0127946 0.00159736 0.00244037 ) 0 
( -0.000984523 0.00947325 0.0013918 ) 0 
( -6.82504e-05 0.00263175 0.00388176 ) 0 
( -0.00739943 0.0081373 0.000499862 ) 0 
( -0.006717 0.00399935 0.00404951 ) 0 
( -0.00283334 0.0121755 0.00372073 ) 0 
( -0.00470468 0.00889395 0.00135007 ) 0 
( -0.00661306 0.00459961 0.00589133 ) 0 
( -0.00522733 0.0107493 0.00107152 ) 0 
( -0.00413512 0.00118149 0.000499774 ) 0 
( -0.00898559 0.00301123 0.00508025 ) 0 
( -0.000763197 0.00636979 0.00720205 ) 0 
( -0.00209872 0.0110409 0.00222998 ) 0 
( -0.00679293 0.0102399 0.00358191 ) 0 
( -0.00959271 0.000128388 0.00456924 ) 0 
( -0.00126803 0.00815039 0.00689896 ) 0 
( -0.00303894 0.0091216 0.00421266 ) 0 
( -0.00999853 0.00395109 0.00666955 ) 0 
( -0.00727631 0.00445814 0.00662615 ) 0 
( -0.000766431 0.00598011 0.000499812 ) 0 
( -0.0113884 0.00696288 0.00624941 ) 0 
( -0.000825877 0.00716613 0.00424553 ) 0 
( -0.00986644 0.00250606 0.000499777 ) 0 
( -0.00617173 0.0118379 0.00568577 ) 0 
( -0.00238124 0.00485458 0.00049962 ) 0 
( -0.0080389 0.00138479 0.00809284 ) 0 
( -0.0119327 0.00319746 0.00631534 ) 0 
( -0.00268429 0.0070876 0.00588947 ) 0 
( -0.00320573 0.00740858 0.00406087 ) 0 
( -0.000541601 0.0133391 0.0012065 ) 0 
( -0.00676785 0.00585763 0.00382165 ) 0 
( -0.0028045 0.00415709 0.00513469 ) 0 
( -0.00416052 0.00907916 0.00675861 ) 0 
( -0.0011201 0.00621439 0.00628113 ) 0 
( -0.00665331 0.00870411 0.00469939 ) 0 
( -0.00288986 0.00969366 0.00146797 ) 0 
( -0.00377464 0.0109647 0.000499811 ) 0 
( -0.00611142 0.00975971 0.00134152 ) 0 
( -0.00222801 0.00229053 0.00744925 ) 0 
( -0.00435962 0.00466371 0.00709185 ) 0 
( -0.000440558 0.00628685 0.0038954 ) 0 
( -0.00565508 0.00439778 0.00567628 ) 0 
( -0.00188513 0.0106103 0.00354446 ) 0 
( -0.00825289 0.00728699 0.00191546 ) 0 
( -0.000284171 0.0106193 0.000863095 ) 0 
( -0.00858352 0.00614236 0.000499708 ) 0 
( -0.00822601 0.0037163 0.00536058 ) 0 
( -0.00413413 0.00778084 0.00417196 ) 0 
( -0.00590099 0.00127817 0.00194461 ) 0 
( -0.00351149 0.00387028 0.00268522 ) 0 
( -0.00646999 0.00636 0.00669875 ) 0 
( -0.00450234 0.00641705 0.0070171 ) 0 
( -0.00283323 0.00831963 0.00626663 ) 0 
( -0.0046085 0.00698164 0.00505905 ) 0 
( -0.00342743 0.00479225 0.00559109 ) 0 
( -0.0033788 0.0119277 0.00562248 ) 0 
( -0.0124745 0.000365028 0.00509021 ) 0 
( -0.0113517 0.00386041 0.00049962 ) 0 
( -0.00619224 0.0045826 0.000499811 ) 0 
( -0.00253163 0.000301634 0.00655252 ) 0 
( -0.00811019 0.00673143 0.00581686 ) 0 
( -0.000352997 0.0117095 0.0025195 ) 0 
( -0.000722965 0.012934 0.00406736 ) 0 
( -0.00814331 0.00769817 0.00556361 ) 0 
( -0.00512706 0.00364011 0.000499868 ) 0 
( -0.00419976 0.00201433 0.00636416 ) 0 
( -0.00795495 0.0037341 0.00764184 ) 0 
( -0.00220543 0.000686648 0.001483 ) 0 
( -0.00617767 0.00414965 0.00220105 ) 0 
( -0.00915061 0.0097206 0.000499864 ) 0 
( -0.00668748 0.00212617 0.00384184 ) 0 
( -0.011534 0.00172164 0.0045604 ) 0 
( -0.00861432 0.00420183 0.000499635 ) 0 
( -0.00170863 0.00190852 0.00606553 ) 0 
( -0.0063702 0.00500824 0.00740874 ) 0 
( -0.00742102 0.00654301 0.00310371 ) 0 
( -0.00968426 0.00100988 0.000499638 ) 0 
( -0.00747787 0.0101365 0.00506624 ) 0 
( -0.00373912 0.00418023 0.00460271 ) 0 
( -0.00349449 0.00574462 0.00408454 ) 0 
( -0.00695887 0.011393 0.00611257 ) 0 
( -0.00580642 0.0120215 0.00216703 ) 0 
( -0.00608153 0.00818515 0.0060886 ) 0 
( -0.00274656 0.0057945 0.000499792 ) 0 
( -0.00802295 0.00699757 0.000499649 ) 0 
( -0.00316608 0.00336093 0.00461531 ) 0 
( -0.00553163 0.00570318 0.000499526 ) 0 
( -0.00715785 0.00116638 0.00207489 ) 0 
( -0.00388904 0.00554714 0.00703795 ) 0 
( -0.00280019 0.00997175 0.00601687 ) 0 
( -0.00334619 0.00457224 0.000499798 ) 0 
( -0.00179286 0.0132294 0.00690503 ) 0 
( -0.00273225 0.0024488 0.00426913 ) 0 
( -0.0050264 0.00841295 0.00468956 ) 0 
( -0.00420741 0.00532294 0.00592321 ) 0 
( -0.00692708 0.00488704 0.00364006 ) 0 
( -0.000146617 0.00293839 0.00763363 ) 0 
( -0.00271116 0.00432969 0.0061151 ) 0 
( -0.00504756 0.00544598 0.00133554 ) 0 
( -0.00260157 0.00156471 0.00635641 ) 0 
( -0.00261671 0.0115808 0.00616865 ) 0 
( -0.00268865 0.00931543 0.00328896 ) 0 
( -0.00307114 0.00558167 0.00314792 ) 0 
( -0.00311517 0.0121119 0.00685376 ) 0 
( -0.0100384 0.00475433 0.0051128 ) 0 
( -0.00818617 0.00706694 0.00405309 ) 0 
( -0.000822512 0.00188257 0.000499636 ) 0 
( -0.00115604 0.00390024 0.00494568 ) 0 
( -0.0126267 0.000122802 0.00149445 ) 0 
( -0.0100499 0.0087879 0.00209363 ) 0 
( -0.0101901 0.0023176 0.00223957 ) 0 
( -0.00473264 0.00975639 0.00363559 ) 0 
( -0.0122188 0.00242452 0.000499861 ) 0 
( -0.0102023 0.00267391 0.00434117 ) 0 
( -0.00402095 0.000342827 0.00555342 ) 0 
( -0.00320526 0.0111646 0.0036643 ) 0 
( -0.000417773 7.1044e-05 0.00442043 ) 0 
( -0.00139427 0.00348191 0.00105699 ) 0 
( -0.00743081 0.0027104 0.00422766 ) 0 
( -0.00721057 0.00255719 0.00214079 ) 0 
( -0.00754814 0.00110979 0.00726641 ) 0 
( -0.00431556 0.01068 0.00458634 ) 0 
( -0.010913 2.26716e-05 0.00469834 ) 0 
( -0.0126108 0.00116369 0.000499645 ) 0 
( -0.00314585 0.00204845 0.00805085 ) 0 
( -0.00566475 0.00918072 0.0046365 ) 0 
( -0.00657382 0.0116193 0.00478605 ) 0 
( -0.00473222 0.000340275 0.0020813 ) 0 
( -0.00212151 0.0054713 0.00124223 ) 0 
( -0.00957526 0.00110308 0.00495295 ) 0 
( -0.00415475 0.00337703 0.00503206 ) 0 
( -0.00511011 0.00956795 0.00196725 ) 0 
( -0.00587382 0.0102442 0.000499802 ) 0 
( -0.0105019 0.00250883 0.00130912 ) 0 
( -0.00161653 0.00256406 0.00148271 ) 0 
( -0.00911981 0.00505938 0.00121282 ) 0 
( -0.00229862 0.00258982 0.00649753 ) 0 
( -0.00234722 0.0050775 0.00790127 ) 0 
( -0.00387832 0.0127745 0.00094656 ) 0 
( -0.0031437 0.00459206 0.00327147 ) 0 
( -0.00233909 0.00666581 0.00672766 ) 0 
( -0.00219677 0.00288073 0.00223296 ) 0 
( -0.00443289 0.000452127 0.0064599 ) 0 
( -0.0133331 0.00067555 0.00193609 ) 0 
( -0.0133369 0.000596642 0.000888171 ) 0 
( -1.4823e-05 0.00341372 0.00307414 ) 0 
( -0.0121868 0.00204767 0.00142669 ) 0 
( -0.0108238 0.00433423 0.00160189 ) 0 
( -0.0060315 0.0092517 0.00370901 ) 0 
( -0.00991303 0.00406087 0.00125587 ) 0 
( -0.00919 0.00483848 0.00446172 ) 0 
( -0.00491553 0.00601036 0.00547836 ) 0 
( -0.000685394 0.00690533 0.00570389 ) 0 
( -0.0114519 0.00571377 0.00392703 ) 0 
( -0.00476516 0.00961611 0.00617093 ) 0 
( -0.00419441 0.00849532 0.0021118 ) 0 
( -0.00798673 0.0106662 0.005816 ) 0 
( -0.00334296 0.00423045 0.00829567 ) 0 
( -0.00567188 0.00826066 0.00317435 ) 0 
( -0.0118197 0.00070701 0.00092741 ) 0 
( -0.00232323 0.0034274 0.0059281 ) 0 
( -0.00756959 0.000226815 0.00347813 ) 0 
( -0.0117355 0.00532072 0.00614376 ) 0 
( -0.0025337 0.0115031 0.0043974 ) 0 
( -0.000663351 0.0027518 0.00171948 ) 0 
( -0.01054 0.00813935 0.00339343 ) 0 
( -0.00702275 0.00706936 0.000499536 ) 0 
( -0.00187905 0.011298 0.00512485 ) 0 
( -0.000304638 0.00544221 0.00464142 ) 0 
( -0.0044439 0.00322852 0.00343814 ) 0 
( -0.00135014 0.00963362 0.00470063 ) 0 
( -0.00630333 0.000663635 0.00274679 ) 0 
( -0.00610325 0.00136593 0.000499804 ) 0 
( -0.00488965 0.000363787 0.0083332 ) 0 
( -0.00131353 0.00580421 0.00321054 ) 0 
( -0.00942027 0.00355197 0.00738077 ) 0 
( -0.00337189 0.00917435 0.00515392 ) 0 
( -0.00332167 0.0011864 0.00325085 ) 0 
( -0.0121248 0.00271981 0.00242865 ) 0 
( -0.00408061 0.0110998 0.00175544 ) 0 
( -0.00159021 0.0127156 0.00547299 ) 0 
( -0.00680139 0.00774164 0.00447251 ) 0 
( -0.00648626 0.0020464 0.00167248 ) 0 
( -0.00100671 0.0133115 0.00602453 ) 0 
( -0.00255576 0.00572756 0.00717078 ) 0 
( -0.00391625 0.0101299 0.00629586 ) 0 
( -0.00527918 0.00157462 0.00767846 ) 0 
( -0.0060516 0.0118784 0.00395364 ) 0 
( -0.00982826 0.00171045 0.007282 ) 0 
( -0.00570282 0.00471066 0.00150713 ) 0 
( -0.00304705 0.00286907 0.00552322 ) 0 
( -0.00778588 0.0108446 0.00149521 ) 0 
( -0.0106832 0.00575899 0.00459934 ) 0 
( -0.00448565 0.00841632 0.000499648 ) 0 
( -0.0116382 0.00164972 0.00555217 ) 0 
( -0.00640012 0.00997558 0.00516014 ) 0 
( -0.00190815 0.00435252 0.00440916 ) 0 
( -0.00147556 0.0115835 0.00703314 ) 0 
( -0.0024775 0.00220947 0.00100965 ) 0 
( -0.00912194 0.00183669 0.000499558 ) 0 
( -0.00221584 0.00839163 0.00710644 ) 0 
( -0.00305648 0.00650988 0.00351946 ) 0 
( -0.00983454 0.00902848 0.000911287 ) 0 
( -0.000756305 0.00938536 0.00617244 ) 0 
( -0.0047671 0.0106644 0.00637794 ) 0 
( -0.00374708 0.00980102 0.00444832 ) 0 
( -0.00117004 0.0106028 0.00551415 ) 0 
( -0.00843779 0.0012169 0.00681333 ) 0 
( -0.00857586 0.00568258 0.00177432 ) 0 
( -0.00216758 0.00514012 0.00633259 ) 0 
( -0.0119965 0.000857193 0.00436279 ) 0 
( -0.00688887 0.00962214 0.00436234 ) 0 
( -0.0105294 0.00119332 0.0067921 ) 0 
( -0.00247165 0.00247698 0.00865178 ) 0 
( -0.00547439 0.000562967 0.00516026 ) 0 
( -0.00809834 0.00576319 0.0055632 ) 0 
( -0.00591509 0.00286307 0.00141265 ) 0 
( -0.0074512 0.00484411 0.00540384 ) 0 
( -0.00970963 0.00173245 0.00399383 ) 0 
( -0.00819833 0.003464 0.0043933 ) 0 
( -0.00682174 0.0100067 0.00200333 ) 0 
( -0.00134844 0.011689 0.0020754 ) 0 
( -0.00396446 0.00202811 0.00333199 ) 0 
( -0.0080154 0.00218089 0.00361257 ) 0 
( -0.00325533 0.00817331 0.00199291 ) 0 
( -0.00863095 0.00293574 0.00695018 ) 0 
( -0.00137859 0.00113059 0.0078999 ) 0 
( -0.000985762 0.00421033 0.000499843 ) 0 
( -0.00155042 0.00465917 0.00833669 ) 0 
( -0.0118106 0.00622243 0.00566253 ) 0 
( -0.00211482 0.00138366 0.00531767 ) 0 
( -0.00395621 0.0105035 0.00367014 ) 0 
( -0.0094969 0.0071322 0.00669026 ) 0 
( -0.00667509 0.000971248 0.00678018 ) 0 
( -0.00593888 0.00508551 0.00392579 ) 0 
( -0.00905104 0.00201493 0.00673206 ) 0 
( -0.0113324 0.000829468 0.00283779 ) 0 
( -0.000118638 0.00616468 0.00619385 ) 0 
( -0.00917263 0.00360146 0.00408579 ) 0 
( -0.00407042 0.0065874 0.00220595 ) 0 
( -0.00131202 0.00632747 0.00495279 ) 0 
( -0.0122554 0.00230162 0.00333606 ) 0 
( -0.00895014 0.00361853 0.00629291 ) 0 
( -0.00514865 0.00920851 0.00720454 ) 0 
( -0.00127485 0.0121434 0.00622971 ) 0 
( -0.0107297 0.00656223 0.00109407 ) 0 
( -0.00642232 0.00645449 0.00193481 ) 0 
( -0.00813232 0.00998129 0.000499616 ) 0 
( -0.00878387 0.00575171 0.00449293 ) 0 
( -0.00084938 0.00848325 0.00129482 ) 0 
( -0.00820046 0.00527321 0.00367033 ) 0 
( -0.00767802 0.00285386 0.00725727 ) 0 
( -0.00429706 0.0118996 0.00118913 ) 0 
( -0.0011141 0.00776202 0.00599048 ) 0 
( -0.0122394 0.00533177 0.00716235 ) 0 
( -0.0123089 0.00516944 0.00049976 ) 0 
( -0.0101658 0.00643913 0.00266358 ) 0 
( -0.0123003 0.00518653 0.0038632 ) 0 
( -0.00771034 0.0108985 0.000499735 ) 0 
( -0.0112628 0.00536623 0.00136267 ) 0 
( -0.00300497 0.00242571 0.00183118 ) 0 
( -0.00997658 0.00425751 0.00424722 ) 0 
( -0.0106169 0.00592484 0.00341898 ) 0 
( -0.000379998 0.0085264 0.00653752 ) 0 
( -0.00176727 0.00383813 0.00780967 ) 0 
( -0.00762525 0.00584684 0.000499675 ) 0 
( -0.00587634 0.00810103 0.00511386 ) 0 
( -0.00249011 0.00507567 0.00538849 ) 0 
( -0.00174539 6.96576e-06 0.000499684 ) 0 
( -0.00680567 0.00798407 0.00674807 ) 0 
( -0.0112602 0.00286387 0.000499782 ) 0 
( -0.000103721 0.0125561 0.00164817 ) 0 
( -0.00521254 0.00715059 0.000499787 ) 0 
( -0.00543004 0.00811049 0.000675747 ) 0 
( -0.0102057 0.00244531 0.00336737 ) 0 
( -0.00015347 0.00381149 0.00492521 ) 0 
( -0.00815428 0.00929698 0.00301066 ) 0 
( -0.00683497 0.0051619 0.00459698 ) 0 
( -0.0089463 0.00765645 0.00127541 ) 0 
( -0.00638263 0.0117033 0.00302629 ) 0 
( -0.00322589 0.00178596 0.000499618 ) 0 
( -0.00567241 0.012085 0.00485558 ) 0 
( -1.57007e-06 0.00193441 0.00594179 ) 0 
( -0.00176106 0.00857888 0.00600723 ) 0 
( -0.00221896 0.00341686 0.00393653 ) 0 
( -0.000361791 0.00326713 0.00573772 ) 0 
( -0.00749793 0.0100199 0.00279472 ) 0 
( -0.00692718 0.00374583 0.00287633 ) 0 
( -0.00518049 0.00857165 0.00225895 ) 0 
( -0.0117788 0.0042292 0.00132496 ) 0 
( -0.000145376 0.00736542 0.00296978 ) 0 
( -0.006857 0.0114545 0.000499838 ) 0 
( -0.00196342 0.00164181 0.00165255 ) 0 
( -0.00432762 0.00535894 0.000499866 ) 0 
( -0.0118386 0.0061704 0.00666042 ) 0 
( -0.00139213 0.00483097 0.00369634 ) 0 
( -0.00136097 0.00704923 0.00677575 ) 0 
( -0.0045946 0.00381707 0.00423381 ) 0 
( -0.000514468 0.00448547 0.00667915 ) 0 
( -0.00681706 0.00933433 0.0030524 ) 0 
( -0.00913764 0.00624637 0.00263744 ) 0 
( -0.00482501 0.000608616 0.00736619 ) 0 
( -0.00489283 0.00793098 0.00154198 ) 0 
( -0.000638947 0.00525494 0.00118698 ) 0 
( -0.000162432 0.00795827 0.00574421 ) 0 
( -0.00787072 0.00333785 0.00271664 ) 0 
( -0.00771442 0.00263859 0.00128101 ) 0 