FoamFile
{version 2.0; format ascii;class vectorField; location 0;object  v;}
2511
(
( -0.00122633 -0.000145094 5.36682e-05 )  
( -0.000563897 -0.000302913 -0.000196602 )  
( 0.00284508 0.000958276 0.0110437 )  
( 0.000423525 0.00274161 0.0110617 )  
( -0.000242312 0.00064974 -0.000303172 )  
( 0.00134592 0.00023284 0.0101666 )  
( 0.00166722 0.00150589 0.00945667 )  
( -0.000521651 -0.00146485 0.00103136 )  
( -0.00124893 0.00228797 0.0116838 )  
( 0.000130163 0.00265972 0.013724 )  
( -0.000338655 -0.000847431 0.0154033 )  
( -0.000142235 0.000352243 0.011712 )  
( -0.00221663 -0.000902282 0.00931312 )  
( -0.000137234 0.000401189 1.02859e-05 )  
( 0.000116904 3.96907e-05 2.63714e-05 )  
( -0.000560379 0.000769661 5.40271e-05 )  
( 7.76271e-05 0.000446844 3.04274e-06 )  
( 0.000437693 0.000569838 -0.000207129 )  
( -5.11719e-05 -9.25383e-05 2.76882e-05 )  
( 0.000288999 8.22493e-05 0.011024 )  
( 0.000768691 -0.000382102 0.00950536 )  
( -0.000147734 -0.000363066 -0.0016531 )  
( 0.00108075 0.00238439 0.00792026 )  
( -0.00100272 -0.00205755 7.637e-05 )  
( 0.000484946 -0.000441423 0.00969866 )  
( -0.000135006 3.87794e-05 0.00841642 )  
( 0.000417721 -0.000240378 0.0105671 )  
( -0.000720368 -0.000111979 0.00925499 )  
( -0.000854423 9.60337e-05 -0.000914995 )  
( 0.000877091 -0.00043873 0.0104411 )  
( 0.000230061 -0.000422925 0.00689414 )  
( -0.000245925 -0.000143141 -0.000661049 )  
( -0.000673075 -0.000631377 0.0125231 )  
( -0.00147414 -0.00287479 0.0100384 )  
( 7.02098e-05 2.35824e-05 -2.93153e-05 )  
( -0.00157807 -0.00166427 0.00796168 )  
( -0.00171299 -0.00163793 0.0126065 )  
( 0.00166677 -0.000800759 0.010361 )  
( 0.00107138 -0.000392248 0.00894393 )  
( 0.00197794 0.00188611 0.0100127 )  
( 0.000159992 7.83711e-05 2.44052e-05 )  
( 0.000936637 0.000666663 0.0112957 )  
( 0.00374257 0.0031872 0.0109576 )  
( -0.00356221 -0.00123396 0.00787541 )  
( 0.000995948 0.00061449 0.00787568 )  
( -0.000362701 -0.000427956 -0.00111985 )  
( 0.000132674 -0.00505698 0.0101674 )  
( -0.000342089 0.000348617 5.57036e-05 )  
( -0.000259388 -9.94291e-05 -2.8511e-05 )  
( -0.00117739 6.4988e-05 0.00932695 )  
( 0.000418262 9.5617e-05 0.00719574 )  
( -0.000182087 0.00271502 0.00822151 )  
( 0.000196222 0.000271527 -0.000402605 )  
( 0.000722917 -0.000950031 0.00844461 )  
( -0.000130542 -1.6591e-05 0.0103265 )  
( -0.000596178 -0.00105249 0.0120613 )  
( -3.5137e-05 -0.00171067 0.00832969 )  
( -0.000221772 0.000134621 2.50676e-05 )  
( 0.000372134 -0.000364197 0.0103116 )  
( 0.0014961 -0.000771513 0.0078113 )  
( -0.000719684 0.000700873 0.00741902 )  
( 0.000808444 -0.000292955 0.00983435 )  
( 0.000444073 4.8148e-05 0.00864454 )  
( -0.000435127 -0.00050771 0.0103463 )  
( 0.00130956 -0.00187769 0.0106472 )  
( 0.00127321 0.000440197 0.000100591 )  
( 0.00126799 0.00734375 0.015425 )  
( 0.00202007 -0.000496614 0.00920044 )  
( 0.00172218 -0.000831502 0.00918563 )  
( -9.72689e-05 -0.000172245 0.00978995 )  
( -0.000725305 -0.00122139 0.010554 )  
( -0.000521502 0.000889666 0.00949806 )  
( 0.000676935 0.000352006 0.000410271 )  
( 0.0013046 0.000349365 0.00799844 )  
( -0.00282648 0.0011195 0.00730364 )  
( 0.000133528 -0.000237001 -7.49647e-06 )  
( 0.000747957 -0.00156411 0.0107331 )  
( -0.00275747 -0.00188328 0.01267 )  
( 2.03619e-05 -6.06279e-05 0.000107503 )  
( 7.55995e-05 -0.00010773 7.92224e-05 )  
( 0.000169991 8.37316e-05 -5.63254e-05 )  
( -0.000550892 -0.000308323 -0.000145578 )  
( 0.0013814 -0.00191799 0.00851192 )  
( 0.000999732 0.000463135 0.0089683 )  
( -0.000613419 -0.000973203 0.0113442 )  
( 0.000766589 -0.000588354 0.00960544 )  
( 0.00101718 -0.000364957 0.00990467 )  
( 8.95307e-05 5.23409e-05 1.35733e-05 )  
( -0.00269372 -0.00286669 0.00872958 )  
( 0.000456005 -0.000210072 0.0112078 )  
( -6.53037e-05 -0.00011741 2.23145e-05 )  
( -0.000159021 -0.00061384 0.00977935 )  
( -1.98844e-05 8.85408e-06 0.0113302 )  
( 0.000781769 0.00121313 -0.00047486 )  
( 0.000178103 -0.000786872 0.00614891 )  
( -6.48279e-05 0.00145273 0.013628 )  
( -0.00133462 0.000852181 -0.00169343 )  
( 0.00292513 0.00411382 -0.00307512 )  
( 0.0023785 -0.00180205 0.00946653 )  
( 0.00275112 -0.00103735 0.00897906 )  
( -0.00381605 -0.000791044 5.47061e-06 )  
( 0.00128449 7.35699e-05 0.0110604 )  
( 0.00140654 -0.00025275 0.0102658 )  
( 0.00207682 0.00229725 0.0100958 )  
( 0.000922765 0.000494414 0.0109818 )  
( -6.18584e-05 -0.000141586 -0.000115226 )  
( 0.00117354 -0.00122888 0.00819009 )  
( -0.00115876 -0.00180866 0.0101503 )  
( 0.000164723 -0.000263215 0.0112976 )  
( 0.000887298 -0.000238316 0.010921 )  
( 0.000597142 -0.000805978 0.0100601 )  
( -0.00112474 0.00153276 0.000452973 )  
( 0.00150858 -0.000756268 0.0090635 )  
( -0.00112892 -0.000437528 7.10111e-05 )  
( 0.00181025 -0.000683377 0.0105032 )  
( -0.000391375 -0.000647011 -0.000656405 )  
( -0.00495074 -2.69552e-05 0.0100125 )  
( 0.000709891 0.00325401 0.0103164 )  
( -0.00167962 -0.00292638 0.00750645 )  
( -0.00245951 0.00281984 0.000736519 )  
( 0.000151016 -6.63039e-05 0.0111743 )  
( 0.0031719 0.000369558 0.00895234 )  
( -0.00169817 0.000687818 0.0118236 )  
( -0.00030716 -0.000383956 -0.0016783 )  
( 0.00157652 -0.000444692 0.00887377 )  
( 0.00128238 -0.000320037 0.0104674 )  
( 0.00115425 -0.000723902 0.0134193 )  
( 0.000550232 -0.000741928 0.0101299 )  
( -6.37905e-05 -6.683e-05 -2.73562e-05 )  
( 0.000714081 0.000807948 0.00705319 )  
( 0.00112841 -0.00127618 0.0103514 )  
( -0.00219908 0.00189865 0.00898654 )  
( 0.000778943 -0.000801469 0.0100718 )  
( 0.000911508 -0.000558146 0.00903008 )  
( 0.00503645 -0.00308355 0.00981757 )  
( 0.000710647 8.68465e-05 -1.75434e-05 )  
( 0.00012881 0.00265908 0.0104651 )  
( -0.000504083 0.00177518 0.00646607 )  
( -0.00312301 0.00115508 0.00886305 )  
( -0.000706402 -0.00165406 0.0114843 )  
( 0.00045505 0.000949193 0.0105465 )  
( -0.00217709 0.00107684 0.00882118 )  
( -0.000828965 -0.000371188 0.000227943 )  
( 0.000181676 -0.00249804 0.0122328 )  
( -0.00176456 -0.000441503 0.0125401 )  
( 0.000978695 0.000848472 -0.00105214 )  
( 0.00208467 -0.00213229 0.0112304 )  
( 0.00326927 0.000667467 0.00933956 )  
( 0.000589991 -0.000392029 0.0101433 )  
( -0.000263875 0.00137216 0.0121151 )  
( 0.000753536 0.00032127 -0.000502077 )  
( 1.70562e-05 -1.74497e-05 -1.09433e-05 )  
( -0.00205577 -0.00234359 -0.00215915 )  
( 0.000613095 -0.000498679 0.0110015 )  
( 0.000135867 0.000103499 0.011012 )  
( 0.00118065 -0.00168779 0.008724 )  
( -7.62361e-05 0.00076166 0.0113382 )  
( -0.000386499 -0.000339362 -0.00041825 )  
( 0.00174259 -7.05774e-05 0.0098352 )  
( -0.000119101 7.91711e-05 -0.000320848 )  
( 0.00241718 -0.000351546 0.00836776 )  
( 0.00200252 -0.00277243 0.0092687 )  
( -0.00181515 0.00100204 0.00954232 )  
( -0.00271296 -0.00134873 0.0135031 )  
( -0.00173083 0.000827643 -0.00168701 )  
( 0.00201467 -0.00044124 0.00915947 )  
( 0.000676684 -0.0007436 0.00931805 )  
( 0.00162909 -0.000789383 0.0102173 )  
( 0.00137558 0.000278709 -0.00106698 )  
( 2.74086e-05 -7.4586e-05 -0.00115784 )  
( 0.00144606 -0.000348562 0.00982034 )  
( 0.00166849 -0.000432966 0.00903476 )  
( 0.000978457 -0.000196345 0.010509 )  
( -0.000460659 -0.00586663 -0.00605487 )  
( -0.00041068 -0.0010975 -0.00035716 )  
( 0.000503512 -0.00422382 0.0102606 )  
( 0.00104512 0.000387082 7.87377e-05 )  
( 0.000864157 0.00045872 0.010857 )  
( -0.00227005 0.000187135 0.00713042 )  
( 0.00212539 -0.00201556 0.0226385 )  
( 0.000151117 -0.000261265 1.16936e-05 )  
( 0.000108359 0.00204324 0.0111448 )  
( -0.00080717 -0.00327728 0.00910087 )  
( -0.0023225 -0.000907687 0.00919377 )  
( 0.00120293 0.00106529 0.00684668 )  
( 0.00125888 -0.000436916 0.0113209 )  
( -0.00328032 0.00112374 -2.52512e-05 )  
( -0.000841984 0.000902168 -6.90451e-05 )  
( 0.00296409 -1.10266e-05 -3.02256e-05 )  
( 0.00020968 0.00227584 0.0106509 )  
( -0.000251563 -0.000745945 0.00923632 )  
( -0.000145146 -0.000369678 0.000122691 )  
( -0.00343602 0.0003179 -0.000821633 )  
( -0.000762955 -0.000692274 0.012408 )  
( 0.00269261 0.000458018 0.0104231 )  
( -0.000283224 0.00114476 0.0104086 )  
( 0.00103733 -0.000244626 0.0116521 )  
( 0.00166476 -0.000951019 0.0112253 )  
( -0.00158645 -0.000865154 -0.00141232 )  
( 0.000817028 0.000981357 0.0119133 )  
( -0.00031652 6.80571e-05 6.58617e-05 )  
( -0.0010326 -1.57865e-05 0.000368417 )  
( -0.000385236 -0.000160642 0.000179853 )  
( -0.000746428 -0.000789712 0.00847565 )  
( -0.000250479 -0.00131314 0.0087011 )  
( 0.000756526 -0.000163579 0.00994539 )  
( -0.000275279 -0.000313469 0.00810962 )  
( -0.00214195 0.000572638 -0.000285339 )  
( -0.000513841 -0.000190324 -0.000321156 )  
( -9.1372e-05 -0.00063466 -0.000635222 )  
( 0.00187988 -5.96683e-05 0.00721488 )  
( 0.000940349 -0.00116187 0.00624323 )  
( -0.000768041 0.000113495 -0.00249385 )  
( 0.000545348 -0.000202768 0.0133399 )  
( 0.00432896 -0.00149731 0.0113773 )  
( 0.0104421 -0.00038305 -0.00775195 )  
( 0.00020029 2.29719e-05 3.36321e-05 )  
( 0.001977 0.000181173 0.00726507 )  
( 0.000427365 -0.00214109 0.00802767 )  
( 0.000990845 2.98479e-05 0.00985913 )  
( 0.000976128 -0.000244874 0.00980561 )  
( 0.00115903 0.000225078 0.0104249 )  
( -0.000260467 -0.00134473 0.0102042 )  
( 4.18078e-05 -0.000900546 0.00885224 )  
( 0.00252558 0.00114282 0.00816908 )  
( 0.00226898 0.000281996 0.00907213 )  
( 0.00105469 -0.000147508 0.00987486 )  
( -0.000391242 -9.98672e-05 0.00617401 )  
( 0.000845943 0.000570801 0.0110187 )  
( 0.00110644 0.000320279 0.0105411 )  
( 0.000548709 0.00112914 0.00826852 )  
( 0.000894994 -0.00102276 0.0103525 )  
( -0.000302865 1.90256e-05 -1.93282e-05 )  
( 0.0013262 0.000443375 0.000583542 )  
( 0.000942863 -0.000141175 0.010668 )  
( 5.60531e-06 0.00131639 0.000322776 )  
( 0.000230682 -0.000156698 0.00954151 )  
( 0.00114896 -0.000521784 0.0103727 )  
( -0.000763683 -0.000198134 2.61563e-05 )  
( -0.00188333 0.00108573 0.00866364 )  
( 0.000198834 0.000693595 0.00745803 )  
( 0.00093433 -0.000454227 8.8107e-05 )  
( 0.000660624 7.48767e-05 0.00984298 )  
( 0.000879612 -0.000431722 0.00972636 )  
( -0.00273989 0.00017463 0.0118939 )  
( -0.00117423 -0.000397603 4.55798e-06 )  
( 0.000767868 -0.00111831 0.010631 )  
( -8.41142e-06 -0.000222868 0.000214185 )  
( -0.000130411 0.0014069 0.00992061 )  
( 0.00102711 0.000666665 -0.000989051 )  
( -0.000549405 0.000601641 0.0102197 )  
( -0.000289672 2.88511e-05 6.59445e-05 )  
( 0.000243902 -0.00111082 0.00878451 )  
( 4.93957e-06 -0.00107334 0.00966689 )  
( 0.00100149 0.000889672 0.0102257 )  
( 0.00240278 0.00118978 -0.00144967 )  
( 0.000249498 -0.000329166 0.00774784 )  
( 0.000819548 -0.000186815 0.0104434 )  
( 0.000299142 -0.000475546 0.0102079 )  
( 0.00106093 0.0010891 0.00794306 )  
( 0.000457764 0.000362043 0.00987452 )  
( 0.000147454 3.20398e-05 -7.89155e-06 )  
( -0.000214793 -0.000394437 -0.000164164 )  
( 0.00196541 -0.000824721 0.00947957 )  
( 0.0003039 4.53507e-05 0.010065 )  
( 0.00079076 -0.000131007 0.00999485 )  
( 0.0020722 0.00221681 0.00918189 )  
( 0.00117111 -0.000929299 0.0089564 )  
( 0.00105133 -0.000281239 0.0105122 )  
( -0.000834391 -0.000402341 -0.000840902 )  
( 0.000733662 -0.00098789 0.0104944 )  
( -1.83602e-05 4.4811e-05 -2.04954e-05 )  
( -0.00417481 -0.000887612 0.00202414 )  
( 0.00242955 0.00122021 0.00851829 )  
( -0.00247247 0.00224709 0.0122413 )  
( -0.00011731 -9.94458e-05 -9.13218e-05 )  
( 0.000103595 -8.38392e-05 -3.97423e-05 )  
( 0.000810593 -0.00050171 0.00998373 )  
( 0.000809282 -0.000650907 0.00983203 )  
( 0.000604839 -0.00105479 0.0104682 )  
( -0.000178388 0.000126192 0.000209735 )  
( 0.00073387 0.000432263 0.00799439 )  
( 0.00101778 -0.00166768 0.00722039 )  
( -0.00179387 -0.00352046 0.0083292 )  
( 0.000568196 -0.000595045 0.0102908 )  
( 0.00429925 -0.000542137 0.010439 )  
( -6.10973e-06 -0.00162787 0.0103062 )  
( -0.00530849 0.000682626 0.0147814 )  
( 0.00100121 0.000651295 0.00967675 )  
( 0.000538164 -0.000528785 0.0096249 )  
( 0.000519319 -0.00114308 0.00927561 )  
( -0.000675338 0.00225627 0.0119472 )  
( -0.00023005 -7.83304e-05 -7.83863e-05 )  
( 0.00245047 -0.00140215 0.00779255 )  
( -0.000584502 -0.00319717 0.00696939 )  
( -0.00044494 -0.000685942 0.00610772 )  
( -0.000297558 0.000147903 0.00856213 )  
( -0.000853185 -0.00181089 0.00903902 )  
( 0.00174271 -0.000959198 0.00834922 )  
( -0.000359368 4.17997e-05 3.80542e-05 )  
( -0.000307342 0.00147503 0.0164082 )  
( 0.000166209 0.000406365 0.00579715 )  
( -0.000168575 -0.000690403 0.00745993 )  
( -0.00185109 -0.00263766 0.00999694 )  
( 4.65788e-05 0.000223949 -0.00039119 )  
( -0.000787081 -0.00105855 0.00927877 )  
( 0.000946132 0.00018648 0.00733949 )  
( -0.00218199 -0.00279574 0.00944402 )  
( -7.68276e-05 0.000291032 0.00860132 )  
( 0.000846331 0.00203072 0.0106296 )  
( -0.00219002 -0.00299601 -5.2125e-06 )  
( 0.000736503 0.000184187 -0.00162007 )  
( -5.0942e-05 -0.000992477 0.00535085 )  
( -0.00209245 0.000840126 0.0105472 )  
( -5.43974e-05 -0.00122272 0.0107384 )  
( -2.91633e-05 -4.85158e-05 2.29932e-05 )  
( 0.000973025 -0.00109534 0.00890639 )  
( 0.000799361 -0.000857109 -0.000292697 )  
( 0.00057365 0.00106528 0.0137236 )  
( 0.000176038 0.00086663 0.0108805 )  
( 0.00272187 -0.00142305 0.0109332 )  
( 0.00122355 -0.00057421 0.00938631 )  
( -0.000394247 -0.000136593 0.000217373 )  
( 0.000309005 0.000117638 0.000292056 )  
( -0.00154507 0.00362196 0.0143589 )  
( -0.00138573 0.000277297 0.00640678 )  
( 0.00230893 -0.00365995 -0.0014144 )  
( 0.000896506 -0.000740625 0.00885099 )  
( -7.02508e-05 -0.000927049 0.00533822 )  
( 0.000972322 0.00124962 0.00839772 )  
( 0.000629313 -6.93319e-05 0.0113426 )  
( -7.53928e-05 -0.000262768 -5.37656e-05 )  
( 0.00106947 -9.47231e-05 0.0112715 )  
( 0.00147016 0.00142989 0.00682467 )  
( -0.00141687 0.00109609 -0.000748306 )  
( 0.000613756 0.000481773 0.0115598 )  
( -3.22846e-05 0.000192491 2.04177e-05 )  
( -0.00177697 -0.000896114 0.00832807 )  
( 0.000403179 -0.000250835 0.00972156 )  
( 0.00133414 0.00085306 0.00757639 )  
( 0.000455934 -0.00019986 0.00984003 )  
( 0.00170516 -0.000814763 0.00926168 )  
( 3.45382e-05 0.000843293 0.000801763 )  
( -0.00012149 0.00047164 -0.000173018 )  
( -0.000801406 0.000405862 4.33058e-05 )  
( 0.000621517 -0.000661703 0.00951392 )  
( 9.05919e-05 0.000511953 6.72247e-05 )  
( 0.000159996 -0.00152988 0.00793178 )  
( -0.00101543 -0.00040357 0.00967574 )  
( -0.000476626 1.70407e-05 -0.000299953 )  
( 0.000912609 0.000536378 0.00653959 )  
( -0.00024853 -0.000715793 0.00778177 )  
( -6.27959e-05 -0.000102172 -1.75763e-05 )  
( -0.000421898 0.000578631 -0.000406377 )  
( -0.000407367 0.00204455 0.00789829 )  
( 0.000425179 -0.00253797 0.0114076 )  
( 0.000641221 -0.000712106 0.010639 )  
( 0.000489327 -0.000454883 0.0105632 )  
( -0.00196428 0.00219255 0.0104755 )  
( -0.00104146 -0.000943854 0.00550616 )  
( 0.000585365 -1.62927e-05 0.00959179 )  
( 8.33562e-05 -0.000713692 0.00849698 )  
( 0.000247591 -0.000395558 0.00980154 )  
( 0.00188473 0.000405787 0.0105412 )  
( 0.0010878 0.000685792 0.0088699 )  
( -0.00693105 -0.00168088 0.0141332 )  
( -0.000850226 -0.00104806 0.00601837 )  
( 0.000554802 -0.00195049 0.00839396 )  
( -0.000166007 -0.000480067 0.0105999 )  
( -0.000290521 0.00159169 0.00778515 )  
( 0.00117341 0.00184265 0.00802247 )  
( 0.000564862 0.000219296 0.00985807 )  
( 0.000973584 0.000213277 0.00807491 )  
( 0.00028125 -0.00100188 0.010015 )  
( -0.000468278 -0.000620957 -0.000212253 )  
( -7.67645e-05 0.000109846 -2.48166e-05 )  
( 0.00328792 0.000544397 0.0110056 )  
( -0.000368017 0.00128403 -0.00135936 )  
( -0.00205376 0.00173918 -0.000276799 )  
( -0.000401204 5.92329e-06 6.81275e-06 )  
( -0.00025909 -0.00105459 0.00897796 )  
( -0.00193092 -0.00142051 0.019719 )  
( -0.0033486 -0.000580461 0.00177942 )  
( -0.000188084 -0.000221568 0.010946 )  
( -0.0005926 -0.0002053 0.000390206 )  
( -0.000782288 -0.00175781 0.000174033 )  
( 0.00074601 -7.32167e-05 0.00979477 )  
( 0.000341002 -0.000887968 -0.00495089 )  
( -0.00121795 -0.000157465 -0.000401401 )  
( -0.00387271 0.00145401 0.00174387 )  
( -0.00202923 5.02069e-05 0.0083322 )  
( -0.000996142 -0.000549177 0.00989903 )  
( -0.000211223 -0.000748132 0.0103171 )  
( 0.000318047 -0.000673124 0.0106868 )  
( -0.000155118 -0.000262831 0.000312325 )  
( 0.000607762 0.00139436 -1.53364e-05 )  
( 0.000457266 0.00053927 0.0106108 )  
( 2.15319e-05 9.29778e-06 -0.000182245 )  
( -0.00100562 -3.54207e-05 0.00940915 )  
( 0.00117156 -0.000112018 0.0137732 )  
( 0.00111215 0.000568519 0.00963585 )  
( -0.000117668 -0.0017892 0.00660829 )  
( 0.00123151 -0.000350421 0.00936283 )  
( 0.000896402 -0.0012472 0.00876774 )  
( 0.0031771 0.000527135 0.0101929 )  
( 0.000895734 -0.000226337 0.010668 )  
( 0.000153521 0.000479942 0.00805779 )  
( 0.00197766 0.000901411 0.00880109 )  
( 0.00226506 -0.00056358 0.00888977 )  
( 6.16241e-05 3.72576e-05 -0.00122921 )  
( -0.000815857 -0.00114746 0.0168672 )  
( -0.00192413 -0.00069206 0.0096938 )  
( -0.000566402 0.00110196 0.000149784 )  
( -0.000448257 0.00142101 0.010388 )  
( -0.00173598 0.0026712 0.0122857 )  
( 0.000493601 0.000355134 0.00843851 )  
( -0.00100478 -0.000346289 -1.15879e-05 )  
( 9.10595e-05 -0.000852076 0.00964664 )  
( 0.000102446 -9.82526e-05 -0.000102742 )  
( -0.00010681 0.000145411 -2.55463e-05 )  
( -0.00104856 -0.00218546 0.0117285 )  
( 0.00096362 -0.000472072 0.0111999 )  
( 0.00266815 -0.000267919 0.0092168 )  
( 0.000558945 0.000112002 0.00959571 )  
( 0.00272031 -0.0011831 0.00815137 )  
( 0.000949471 0.0018023 0.00986151 )  
( -0.000494873 0.000245957 1.97854e-05 )  
( -0.000877085 -0.000495053 0.00756373 )  
( -0.0011315 0.000266027 -0.000124026 )  
( 0.00143308 6.06459e-05 0.00949946 )  
( -0.000817582 0.000577164 5.7531e-07 )  
( -0.000613837 0.000553468 0.00819032 )  
( 0.00222601 -1.20158e-05 0.0101697 )  
( -1.51396e-05 0.000123714 -5.68162e-05 )  
( 9.78819e-05 -0.000931715 0.00957394 )  
( 3.08736e-05 8.52986e-05 1.21683e-05 )  
( -9.31796e-05 -0.00020774 -1.26728e-05 )  
( 0.000293371 -0.00157136 0.00907283 )  
( 0.000238571 -0.000883115 0.010506 )  
( 9.51835e-05 -0.000464985 -0.000341212 )  
( 0.000990916 0.00249146 0.00963392 )  
( 0.000236679 -0.000943235 0.00745539 )  
( 0.000774194 -0.000959697 0.01203 )  
( 0.000736455 -0.000716695 0.00988329 )  
( 0.00168388 0.000776608 0.00819905 )  
( 0.000695225 -0.000855467 0.00986072 )  
( 0.000246503 -0.000714564 1.06934e-05 )  
( -0.000508131 -0.000771955 0.0100047 )  
( -0.000863232 0.00297934 0.00978658 )  
( 0.000222414 0.000448609 0.000159589 )  
( 0.00114985 0.000462831 0.00745405 )  
( -0.000811693 -0.000848583 6.60618e-05 )  
( 0.000959013 -0.00052732 0.00959341 )  
( -0.00485098 0.000519074 0.0152263 )  
( 0.00173626 -0.000360483 0.00909539 )  
( 0.000169552 -0.00125271 0.00948513 )  
( 0.00035966 4.96447e-05 -0.000434314 )  
( 0.000441412 0.000221325 0.0118777 )  
( 0.000986089 -5.46979e-05 0.00980965 )  
( 3.00956e-05 -0.000450474 0.00936989 )  
( 0.000352908 -0.000105815 0.0102095 )  
( -0.00062461 0.000195384 0.00770108 )  
( 0.000430665 -0.000549766 -0.000443553 )  
( 7.43756e-05 -2.21215e-05 -1.38723e-05 )  
( -0.00180571 -0.00127918 -0.00132822 )  
( 0.000175276 -0.000461691 0.0109803 )  
( 0.000764165 -9.54651e-05 0.00965376 )  
( 0.00133293 0.00398533 0.00871103 )  
( 0.00120242 -0.000307259 0.00934174 )  
( 0.000505083 0.000554746 0.0107913 )  
( -0.00111191 -9.42277e-05 0.000468855 )  
( -0.00039019 -1.73502e-05 5.5942e-05 )  
( -0.000229186 -0.000203229 -4.59135e-05 )  
( 0.00123679 -0.00157164 0.00778404 )  
( 0.000688885 0.000219446 0.0104079 )  
( -0.000337716 5.9107e-05 -0.000421246 )  
( -2.85037e-05 0.00158335 0.00966518 )  
( -0.000346389 0.00106938 0.0141038 )  
( 0.000367118 -0.000376262 0.0105351 )  
( -0.000379002 -0.000546719 0.0104367 )  
( -4.80931e-05 -0.000944687 0.0117522 )  
( 0.000768666 -0.000767213 0.0102647 )  
( 0.000796891 0.000619966 0.00957395 )  
( -0.000114347 -0.000147896 0.00982043 )  
( 5.35021e-06 0.000158323 6.75123e-05 )  
( -0.00132789 0.00141842 0.000109903 )  
( 0.000986613 -0.00016195 0.010233 )  
( 0.000190708 -0.00045969 0.00949466 )  
( 0.000635715 -0.00160709 0.0104778 )  
( 0.000547511 -0.000492027 0.0106175 )  
( 0.00376712 -0.000189287 0.00878098 )  
( 0.00039609 0.00112668 -9.53216e-07 )  
( 0.00122798 -0.000155941 0.00996302 )  
( 0.00080287 -0.00138212 0.00867703 )  
( 4.66025e-05 0.00010904 -0.000151294 )  
( -0.00197351 0.00605945 -0.0012379 )  
( 6.10503e-05 5.25756e-06 -1.5889e-05 )  
( 0.000218318 0.00282535 0.0087836 )  
( -0.00163801 0.00309832 0.0116921 )  
( -0.000552577 -0.000298116 0.000196472 )  
( 0.001632 -0.000415575 0.0112763 )  
( 0.00142691 -0.000865744 0.010061 )  
( -0.000474775 0.00109488 0.0103179 )  
( -0.000308655 0.000290339 6.62942e-05 )  
( 0.0019243 0.00123546 0.00544343 )  
( 0.000413048 0.000125579 0.00980094 )  
( -0.000169522 1.60454e-05 0.0109447 )  
( 0.000727341 -0.000110987 0.00574849 )  
( 0.000277389 0.000160446 -0.000625409 )  
( 0.00344717 -0.00307213 0.00693582 )  
( 0.000596308 0.000169645 3.48818e-06 )  
( -0.00187634 -0.000685754 -1.0573e-05 )  
( 0.000569291 0.000305518 0.00997809 )  
( -0.00158523 -0.000955354 -9.61481e-05 )  
( -0.00386498 0.000570854 -0.0016895 )  
( 0.000299012 -0.000642486 0.00979244 )  
( 0.00195065 -0.000842986 0.0110923 )  
( -3.57865e-05 -0.00033022 -6.4416e-05 )  
( 0.00139877 0.000138676 0.00539126 )  
( 0.00149181 0.00031233 0.0122194 )  
( 0.00240232 0.000240289 0.00951463 )  
( 0.00205872 -8.73075e-05 0.0126189 )  
( -0.000815867 0.000638492 0.00805716 )  
( 2.88664e-05 0.000194104 0.0113207 )  
( 0.000934451 -0.000319489 0.00969838 )  
( -0.000829005 0.000129587 -0.000140735 )  
( 0.00167115 -0.000126225 0.0109386 )  
( 0.000635591 -0.00101156 0.00884748 )  
( 0.00134961 -0.000847018 0.0106648 )  
( -0.000319899 0.00125428 0.0112267 )  
( 0.000738385 0.000154222 0.00830848 )  
( -0.000587275 -0.00229498 0.00748833 )  
( 0.000134648 -0.0022789 0.0136933 )  
( 0.000184248 -0.00028968 1.90794e-06 )  
( 0.00100605 0.000337951 0.00953477 )  
( 1.29264e-05 4.99614e-05 -5.4833e-05 )  
( -4.16085e-05 3.1984e-05 -6.47673e-05 )  
( -0.00118661 -0.000924953 0.000706069 )  
( 0.00152301 0.000127228 0.00846711 )  
( 0.000776945 7.10586e-05 3.03319e-05 )  
( -0.00228595 0.000261824 0.00978605 )  
( 0.000311341 -0.000638399 0.0122558 )  
( -0.000214097 5.09529e-05 0.00836092 )  
( 0.000132883 -0.0014899 0.00974524 )  
( -0.00129499 -0.000855927 0.000725283 )  
( 0.000526399 -0.000323945 0.00704985 )  
( -0.000488059 0.000403229 0.000198137 )  
( 0.00187436 -0.000333577 0.0100693 )  
( -6.5152e-05 -0.00143708 0.00882016 )  
( 0.000343003 -0.00055063 0.00714351 )  
( 1.56537e-05 -2.83238e-05 2.19394e-05 )  
( 0.000433141 -0.000351045 0.0102759 )  
( 0.000626745 -0.00127235 0.00876054 )  
( 0.00135051 0.000757715 0.00865437 )  
( -0.000250974 -0.00997044 -0.00423443 )  
( 4.40273e-05 0.000757485 -0.00129632 )  
( 0.00131118 -0.00171156 0.0108111 )  
( 1.24121e-05 0.000483224 0.00999819 )  
( 2.8253e-05 0.000104344 4.41421e-05 )  
( 0.000154144 4.40232e-05 -2.00278e-05 )  
( 0.00053363 0.000291763 0.00037549 )  
( -0.000717449 0.000183848 -0.000125828 )  
( -0.000789843 -0.00185444 -0.00111206 )  
( 0.00101905 -0.00060684 0.0106283 )  
( 0.000597262 -0.000172388 0.00954773 )  
( 0.000167303 9.66261e-06 5.23383e-07 )  
( -0.000549561 0.0012496 0.0105705 )  
( 0.000807869 -0.000430034 0.00955933 )  
( -0.000849813 -0.000184208 -0.000113899 )  
( 0.00121788 -0.00119526 0.0104132 )  
( -0.000109944 -0.000124777 -4.63008e-05 )  
( -4.58866e-06 0.000115753 -8.31355e-06 )  
( 0.00199268 -0.00121572 0.0106216 )  
( -6.22337e-05 -5.63266e-05 0.000944132 )  
( -0.000128981 -0.000296227 0.000738828 )  
( 0.000851722 -0.000919266 0.00861985 )  
( -0.000315669 0.000523512 1.05177e-05 )  
( -0.00126018 -0.00276074 0.00579899 )  
( 0.000837883 -0.000269355 0.0104232 )  
( 0.000378518 -0.000128637 0.0102733 )  
( -0.000543981 -0.00179904 0.00695742 )  
( -0.000251629 -0.00103046 0.00913356 )  
( 8.60737e-05 0.000755172 0.000153994 )  
( 0.00413966 -0.00193183 0.0097415 )  
( -0.000398217 -0.00170234 0.0102478 )  
( 0.00129865 -0.000159282 0.00755665 )  
( 0.000147064 0.000252146 -3.10713e-06 )  
( 0.000708111 -0.00063932 0.00994222 )  
( -0.000962191 0.00072996 0.00805237 )  
( -0.00209583 -0.00239022 0.00979084 )  
( -0.00194553 0.00125772 0.0129505 )  
( -0.000870497 0.00691659 -0.00480779 )  
( 0.00028491 -0.00181796 0.0168421 )  
( -0.00090328 -0.000331452 4.24356e-05 )  
( 0.000534624 -5.44587e-05 0.0102326 )  
( 0.0016679 4.33864e-05 0.0106105 )  
( 0.000339287 0.000794637 0.0107703 )  
( -0.000160047 -0.000316207 0.0117992 )  
( 0.00166653 0.00185522 0.0112463 )  
( 0.000180476 0.000365442 -7.81665e-06 )  
( 0.00108207 0.000163267 0.010556 )  
( 0.00222529 0.00249837 0.00871875 )  
( 0.00203215 -0.000608063 0.00730708 )  
( 0.00108628 -0.000765643 0.00996832 )  
( 0.00158401 0.00204948 0.0104549 )  
( 0.000419983 -0.00194692 0.00836805 )  
( -0.0001571 -0.00056715 -0.000803949 )  
( 0.000928194 -7.25389e-05 0.0120329 )  
( -0.000297959 -0.000173669 0.0087948 )  
( -0.000888841 1.70179e-05 -0.00149311 )  
( 0.000622048 0.00159437 0.0106163 )  
( 0.000514306 5.12027e-05 0.00982966 )  
( 0.000253456 -0.0011434 0.00895073 )  
( 0.000169234 0.000347671 0.00985243 )  
( 0.00314328 0.000444091 0.008294 )  
( 0.00160068 -0.00108538 0.00779808 )  
( -0.000500484 6.4597e-05 0.000738739 )  
( 0.000435364 -0.000423258 0.0102723 )  
( -4.48195e-05 1.49078e-05 1.7651e-05 )  
( -0.00236306 -0.00147691 0.00858272 )  
( -0.000614406 -0.00034363 2.32956e-05 )  
( -0.00176519 0.000797734 0.0112152 )  
( -0.000754334 -2.4918e-05 0.00683633 )  
( 0.000625193 -0.000642799 0.0098904 )  
( -0.00014533 -0.00154591 0.00919609 )  
( 0.000421141 0.000603629 2.75106e-05 )  
( 0.000308569 4.14059e-05 -2.24399e-05 )  
( 0.00090569 0.000739994 0.0102812 )  
( 0.00100284 0.00182183 0.00959661 )  
( 1.02579e-05 4.93911e-05 4.72148e-05 )  
( 0.00161221 -0.000167436 0.0127899 )  
( -0.00112794 -0.002158 0.00927408 )  
( 0.00349118 0.000564711 0.0085829 )  
( 0.000630841 3.41488e-05 0.00928717 )  
( 0.00195167 8.20025e-05 0.0088785 )  
( 9.07481e-05 -0.00210587 -0.00110716 )  
( 0.000695559 -0.00024354 0.00998324 )  
( 6.85674e-05 0.00182412 0.0114897 )  
( 0.000805695 -0.000427376 0.00743227 )  
( 0.00150405 -0.000613208 0.00734193 )  
( 1.16876e-05 -0.00034733 0.0107695 )  
( 0.00124269 -0.000614467 0.00965444 )  
( 0.000543114 -0.000449824 0.00978796 )  
( -1.97795e-05 0.000432956 -9.08886e-05 )  
( -0.00228077 0.00265001 0.0153777 )  
( -0.000599897 -0.00193768 0.0124722 )  
( -0.00107662 1.67805e-05 0.00744205 )  
( -0.000131651 0.00114771 -0.000336186 )  
( 0.000166445 -0.00187858 -5.93841e-05 )  
( -0.0011604 -0.00085413 0.0105371 )  
( -0.000451853 -0.000199963 0.00805619 )  
( -0.000717189 -0.00130057 -0.000341418 )  
( 0.00319541 0.00295929 0.0132628 )  
( 0.000262097 0.000527001 0.011713 )  
( -0.000742817 -0.000420886 2.01284e-07 )  
( -0.000105986 -0.000246952 0.0107109 )  
( -0.00114196 -0.00368599 0.00753804 )  
( -0.00120097 0.000127587 0.012481 )  
( 0.000587252 -0.00118746 0.00930731 )  
( -0.00263624 -0.00098531 0.00991707 )  
( 0.0014805 -0.000773313 0.00964204 )  
( 0.00146414 0.00102356 0.00906569 )  
( 0.00216217 -0.000563083 0.0091994 )  
( -0.00783157 0.000983314 0.0127261 )  
( 0.000875438 0.000753724 0.0103676 )  
( -0.00267503 -0.000877504 0.00830734 )  
( -0.000737605 0.000336758 -0.000545987 )  
( 0.00073146 0.000525081 0.0104212 )  
( 0.000120249 -0.00100471 0.00747143 )  
( 0.00128255 -0.00113401 0.0102209 )  
( 0.00154753 -0.00102146 0.00720616 )  
( 0.0027787 -0.000710489 0.0107313 )  
( 0.000125489 0.000176389 0.000162017 )  
( -0.00132662 -9.45089e-06 0.000507889 )  
( -0.000192648 -0.00011386 -9.24187e-06 )  
( -0.00294914 -0.0020868 0.00738995 )  
( -0.000899259 0.000129972 0.000277202 )  
( -0.0051683 0.00286499 0.00451546 )  
( 0.00326924 -0.000815285 0.00929989 )  
( 0.00154056 -0.000875088 -0.000769091 )  
( 0.00145897 8.03711e-05 0.0117411 )  
( -0.00030191 -0.000747743 0.00754305 )  
( 0.000200747 0.000458534 6.62919e-05 )  
( -0.00559708 -0.00236842 0.0128333 )  
( 0.000676192 -0.00102445 0.00737341 )  
( -0.000333302 -0.000246497 -2.1563e-06 )  
( 0.000362919 -2.81142e-05 2.1754e-05 )  
( -0.00136415 -0.000852331 -0.000647063 )  
( -0.000357801 -0.00297684 0.00769319 )  
( -9.63963e-05 -0.00222028 0.00736079 )  
( 0.00281718 -0.00110737 0.0116562 )  
( 0.000254919 -0.000209205 0.0104268 )  
( -0.000172845 -0.0010653 0.000206489 )  
( 0.00195208 -0.00261919 0.0065682 )  
( 0.000802104 -0.000247304 0.00998141 )  
( -1.87455e-05 0.000110013 -6.41964e-05 )  
( 0.00438535 -0.00275104 0.00794386 )  
( 0.00139248 -0.000609944 -0.000145177 )  
( 0.000388051 -0.000401924 -0.0012154 )  
( -0.00421129 -0.00100435 -2.56391e-06 )  
( -0.000796988 -0.000147876 -0.000382892 )  
( -0.0044107 0.000965966 0.00999137 )  
( 0.00164538 0.000479901 0.010388 )  
( -0.000237266 -0.000160162 0.00727738 )  
( 0.00056364 -0.000955083 0.00842537 )  
( -0.000543371 -0.000305789 0.00018566 )  
( 0.00286361 0.000262703 0.00854394 )  
( 0.000837303 -7.40337e-05 4.61758e-05 )  
( 0.00253559 0.00125756 0.00834045 )  
( 0.000376046 -0.000103028 0.0109328 )  
( 8.34775e-05 -0.000541051 0.0107852 )  
( 0.000409129 -0.000619634 0.00989722 )  
( 0.00155742 0.000145297 0.0101646 )  
( 0.000631529 -0.00135577 0.00565033 )  
( 0.000464618 0.00256962 0.00911508 )  
( -6.83282e-05 -0.000941379 -0.000540822 )  
( 0.000139815 0.000604041 -6.43474e-05 )  
( 0.00138987 0.00310055 0.0111839 )  
( -0.000118132 -5.53984e-05 6.1991e-05 )  
( -0.000411404 0.000120018 0.00013781 )  
( -0.000536157 0.000272463 5.60838e-06 )  
( -0.000470727 -0.0011442 0.00765642 )  
( 0.000755197 0.000816103 0.0110432 )  
( 0.000498148 -0.000376136 0.0102391 )  
( 0.000321964 0.00153109 0.00890072 )  
( 0.000835907 -0.000669369 0.0100864 )  
( 1.9499e-05 -0.00112933 0.00805935 )  