FoamFile
{version 2.0; format ascii;class Cloud<passiveParticle>; location 0;object  positions;}
2494
(
( -0.0108864 -0.00401896 0.000499719 ) 0 
( -0.00506719 -0.00116639 0.000988587 ) 0 
( -0.00679232 -0.00690711 0.0029915 ) 0 
( -0.000972356 -0.00187079 0.00282745 ) 0 
( -0.013066 -0.00247198 0.000499749 ) 0 
( -0.00938613 -0.00444984 0.000499726 ) 0 
( -0.00304058 -0.00786586 0.00119725 ) 0 
( -0.000104102 -0.00570578 0.00462808 ) 0 
( -0.00877859 -0.00183841 0.00543588 ) 0 
( -0.00936533 -0.00378691 0.00150278 ) 0 
( -0.00917347 -0.00627414 0.00273149 ) 0 
( -0.00625953 -0.00314019 0.00272316 ) 0 
( -0.0106603 -0.00699117 0.00330899 ) 0 
( -0.00904876 -0.0016716 0.00649078 ) 0 
( -0.0038732 -0.00460335 0.0047091 ) 0 
( -0.00230026 -0.0078399 0.00679786 ) 0 
( -0.00221626 -0.00581681 0.00724136 ) 0 
( -0.00537305 -0.00775529 0.00726283 ) 0 
( -0.0025632 -0.00855835 0.00173792 ) 0 
( -0.00915812 -0.00240705 0.00397629 ) 0 
( -0.0021256 -0.00249213 0.000499674 ) 0 
( -0.00430531 -0.0083101 0.00475267 ) 0 
( -0.00418484 -0.000713052 0.000864508 ) 0 
( -0.00131215 -0.00783984 0.00049976 ) 0 
( -0.000533104 -0.00209736 0.00125748 ) 0 
( -0.00976846 -0.00784668 0.0052408 ) 0 
( -0.00867466 -0.00528093 0.000499645 ) 0 
( -0.00943573 -0.00709476 0.00680437 ) 0 
( -0.00984314 -0.00465433 0.00136515 ) 0 
( -0.0131286 -0.00242103 0.00248574 ) 0 
( -0.00596892 -0.00188127 0.000499747 ) 0 
( -0.00408097 -0.0118671 0.00539937 ) 0 
( -0.00209249 -0.0114978 0.00289185 ) 0 
( -0.00227114 -0.00678619 0.00450579 ) 0 
( -0.000754188 -0.0130559 0.00477511 ) 0 
( -0.00131457 -0.00634138 0.00694012 ) 0 
( -0.00506072 -0.00986676 0.00270567 ) 0 
( -0.00664108 -0.000379646 0.00657274 ) 0 
( -0.00336651 -0.00473068 0.00704271 ) 0 
( -0.00405363 -0.0063998 0.000499748 ) 0 
( -0.010156 -0.00179604 0.0030952 ) 0 
( -0.0116452 -0.00115162 0.000787054 ) 0 
( -0.000811071 -0.00962723 0.00230125 ) 0 
( -0.00779985 -0.00349955 0.00207285 ) 0 
( -0.00108495 -0.00322669 0.00538831 ) 0 
( -0.0013093 -0.00827927 0.00371829 ) 0 
( -0.00840399 -0.00200813 0.0044988 ) 0 
( -0.00124772 -0.00234021 0.00386553 ) 0 
( -0.00681667 -0.00959638 0.00493757 ) 0 
( -0.000799427 -0.00383015 0.00281492 ) 0 
( -0.0072892 -0.00466323 0.000499807 ) 0 
( -0.00463891 -0.00637419 0.0058702 ) 0 
( -0.0013217 -0.0101233 0.00158721 ) 0 
( -0.00667476 -0.00106264 0.000499563 ) 0 
( -0.0112196 -0.00375404 0.00632768 ) 0 
( -0.00401485 -0.00568605 0.00124234 ) 0 
( -0.0121029 -0.00563464 0.00600487 ) 0 
( -0.00209476 -0.0107086 0.00185126 ) 0 
( -0.00621902 -0.00935209 0.00125476 ) 0 
( -0.00325456 -0.00075457 0.000499671 ) 0 
( -3.5464e-05 -0.0118517 0.00497208 ) 0 
( -0.00455739 -0.0100404 0.00109201 ) 0 
( -0.00219646 -0.00971835 0.0045712 ) 0 
( -0.00917781 -0.0056504 0.00360574 ) 0 
( -0.00615008 -0.0117977 0.00515174 ) 0 
( -0.00290114 -0.0038734 0.00296025 ) 0 
( -0.00444151 -0.0125897 0.00598863 ) 0 
( -0.00872086 -0.0066619 0.00355822 ) 0 
( -0.000673565 -0.0119407 0.00167829 ) 0 
( -0.00765145 -0.0049549 0.00447275 ) 0 
( -0.00559849 -0.00220613 0.0074376 ) 0 
( -0.00727952 -0.0111775 0.00381844 ) 0 
( -0.0121881 -0.00268772 0.00220689 ) 0 
( -0.00683814 -0.0109576 0.00226308 ) 0 
( -0.00332729 -0.00656149 0.00286377 ) 0 
( -0.00532796 -0.00154695 0.00338108 ) 0 
( -0.00553613 -0.00290048 0.00194963 ) 0 
( -0.0117358 -0.00636338 0.00221356 ) 0 
( -0.00257444 -0.00496234 0.000499784 ) 0 
( -0.00288647 -0.0033443 0.00209888 ) 0 
( -0.00218598 -0.0123425 0.00541415 ) 0 
( -0.00821037 -0.00157597 0.00361807 ) 0 
( -0.0125497 -0.00455275 0.0021458 ) 0 
( -0.00300722 -0.00621556 0.00414228 ) 0 
( -0.00491309 -0.00130241 0.00524201 ) 0 
( -0.00486809 -0.00862817 0.0066086 ) 0 
( -0.00852118 -0.00302512 0.00257809 ) 0 
( -0.0104235 -0.0049085 0.00346374 ) 0 
( -0.000137495 -0.00321874 0.0032504 ) 0 
( -0.00953142 -0.00267456 0.000499807 ) 0 
( -0.00427606 -0.00514629 0.00707307 ) 0 
( -0.00451395 -0.00951704 0.00194316 ) 0 
( -0.00191103 -0.000389124 0.00744381 ) 0 
( -0.00141736 -0.00936142 0.00687046 ) 0 
( -0.0124304 -0.00169982 0.000499629 ) 0 
( -0.00467843 -0.0105036 0.00465485 ) 0 
( -0.00291484 -0.0130225 0.00292886 ) 0 
( -0.000255117 -0.00199434 0.00822471 ) 0 
( -0.00478846 -0.00164933 0.00761994 ) 0 
( -0.00496274 -0.00576181 0.0077565 ) 0 
( -0.00385976 -0.00265802 0.00727184 ) 0 
( -0.010556 -0.00476346 0.00675898 ) 0 
( -0.0112067 -0.00556456 0.00183498 ) 0 
( -0.00256115 -0.00421079 0.0045185 ) 0 
( -0.00280256 -0.0130523 0.00690635 ) 0 
( -0.00977219 -0.00666105 0.00362809 ) 0 
( -0.0075145 -0.00512861 0.00614883 ) 0 
( -0.00200589 -0.00352584 0.0040469 ) 0 
( -0.00673253 -0.00581748 0.0060108 ) 0 
( -0.00668581 -0.00655054 0.00668864 ) 0 
( -0.00150777 -0.00177434 0.00536259 ) 0 
( -0.00940107 -0.00552323 0.00114236 ) 0 
( -0.00704401 -0.010486 0.00128424 ) 0 
( -0.00993742 -0.000798373 0.0030762 ) 0 
( -0.00948947 -0.00497651 0.00535739 ) 0 
( -0.00246025 -0.0113689 0.00707046 ) 0 
( -0.0101458 -0.00253548 0.00383053 ) 0 
( -0.00403128 -0.00360232 0.000499711 ) 0 
( -0.00219737 -0.00892382 0.00642375 ) 0 
( -0.00143561 -0.0114569 0.00364549 ) 0 
( -0.0090075 -0.0074183 0.00114273 ) 0 
( -0.0043743 -0.00610736 0.0029705 ) 0 
( -0.0104299 -0.00517073 0.00232723 ) 0 
( -0.00695966 -0.00838587 0.00121094 ) 0 
( -0.00543765 -0.00660734 0.00739012 ) 0 
( -0.0107826 -0.00787178 0.00670979 ) 0 
( -0.0119813 -0.00265004 0.00665359 ) 0 
( -0.00341633 -0.00931117 0.00556439 ) 0 
( -0.00199804 -0.0131995 0.0033005 ) 0 
( -0.00939805 -0.00157707 0.00244617 ) 0 
( -0.00613968 -0.00724001 0.00476328 ) 0 
( -0.00546364 -0.00672123 0.00409442 ) 0 
( -0.00267183 -0.0121762 0.00239528 ) 0 
( -0.000958375 -0.00509607 0.000499739 ) 0 
( -0.00958534 -0.000680194 0.00204371 ) 0 
( -0.00225276 -0.00609413 0.000499669 ) 0 
( -0.00748935 -0.0045053 0.00535104 ) 0 
( -0.00393662 -0.00665214 0.00370208 ) 0 
( -0.0110038 -0.00589236 0.00360587 ) 0 
( -0.0104173 -0.00319864 0.00556909 ) 0 
( -0.00821008 -0.00263967 0.0052493 ) 0 
( -0.0132691 -0.00146814 0.00192005 ) 0 
( -0.00472703 -0.00615912 0.00684814 ) 0 
( -0.00965181 -0.0009173 0.0062326 ) 0 
( -0.00178199 -0.00033122 0.000499803 ) 0 
( -0.0095765 -0.00328644 0.00422548 ) 0 
( -0.000671995 -0.00476681 0.00765817 ) 0 
( -0.00896587 -0.00288099 0.00136365 ) 0 
( -0.00126347 -0.00881607 0.00601213 ) 0 
( -0.0014093 -0.00257908 0.00127385 ) 0 
( -0.0076844 -0.000977787 0.000499754 ) 0 
( -0.00186493 -0.00404601 0.00315419 ) 0 
( -0.00467001 -0.012469 0.00374737 ) 0 
( -0.00272057 -0.0050077 0.00204602 ) 0 
( -0.00984162 -0.00341125 0.00233083 ) 0 
( -0.00540597 -0.000677649 0.00285058 ) 0 
( -0.00316569 -0.000725193 0.00563243 ) 0 
( -0.00491706 -0.000101977 0.00356246 ) 0 
( -0.0063114 -0.00347723 0.00686371 ) 0 
( -0.00113381 -0.0115519 0.000499803 ) 0 
( -0.00443358 -0.0108001 0.00610531 ) 0 
( -0.005169 -0.00728512 0.00503537 ) 0 
( -0.00108849 -0.00209875 0.00743076 ) 0 
( -0.00970755 -0.00147025 0.00540139 ) 0 
( -0.011373 -0.00201958 0.00616721 ) 0 
( -0.00380413 -0.0127782 0.00331566 ) 0 
( -0.00472189 -0.00605365 0.00393354 ) 0 
( -0.00321262 -0.0103806 0.00127044 ) 0 
( -0.00365183 -0.0128371 0.00431213 ) 0 
( -0.00468734 -0.00598341 0.00191998 ) 0 
( -0.0103666 -0.00520792 0.00763424 ) 0 
( -0.00573909 -0.00758292 0.00287147 ) 0 
( -0.00491392 -0.0117119 0.00607631 ) 0 
( -0.00577659 -0.0108813 0.000499703 ) 0 
( -0.0113034 -0.00263635 0.0040708 ) 0 
( -0.0104836 -0.00675767 0.00535474 ) 0 
( -0.00934141 -0.00810713 0.000499684 ) 0 
( -0.00200138 -0.00630184 0.00820924 ) 0 
( -0.00299122 -0.0020606 0.00717175 ) 0 
( -0.010361 -0.0038276 0.00158466 ) 0 
( -0.00623283 -0.00557516 0.00517966 ) 0 
( -0.0100516 -0.00115485 0.00121907 ) 0 
( -0.00317 -0.00105337 0.00351108 ) 0 
( -0.00559155 -0.0111264 0.00318478 ) 0 
( -0.00695687 -0.00222496 0.00349388 ) 0 
( -0.0115095 -0.00459604 0.00503336 ) 0 
( -0.0133179 -0.000927176 0.00453033 ) 0 
( -0.00180034 -0.0103784 0.00371494 ) 0 
( -0.00621243 -0.00394554 0.00343617 ) 0 
( -0.0109792 -0.00435573 0.00422076 ) 0 
( -0.00801188 -0.00790452 0.00716434 ) 0 
( -0.00320907 -0.00874459 0.000499779 ) 0 
( -0.00785596 -0.00454021 0.00131443 ) 0 
( -0.00668197 -0.0114002 0.00590399 ) 0 
( -0.00604857 -0.00288054 0.000499804 ) 0 
( -6.15298e-05 -0.00635671 0.0029754 ) 0 
( -0.00101559 -0.00581115 0.00597097 ) 0 
( -0.00467628 -0.0116076 0.00312233 ) 0 
( -0.00390949 -0.00166768 0.00714433 ) 0 
( -0.00895982 -0.00910801 0.00475441 ) 0 
( -0.0127388 -0.00399305 0.00133896 ) 0 
( -0.00994025 -0.0089116 0.00475859 ) 0 
( -0.000922698 -0.00130941 0.00851552 ) 0 
( -0.00181751 -0.00477434 0.00415892 ) 0 
( -0.000382918 -0.00254147 0.00558677 ) 0 
( -0.00760272 -0.010974 0.00474241 ) 0 
( -0.00477499 -0.0110136 0.00116459 ) 0 
( -0.00295001 -0.00300407 0.00749997 ) 0 
( -0.00540709 -0.00771796 0.00414903 ) 0 
( -0.00712852 -0.00143689 0.00520396 ) 0 
( -0.0111007 -0.0056442 0.00617433 ) 0 
( -0.00668908 -0.00617225 0.00184708 ) 0 
( -0.00713215 -0.00794308 0.00422236 ) 0 
( -0.000292382 -0.0133469 0.00693097 ) 0 
( -0.00924585 -0.00962945 0.00659623 ) 0 
( -0.00524072 -0.0103465 0.00648278 ) 0 
( -0.00374047 -0.0128153 0.00530791 ) 0 
( -0.00295241 -0.00274193 0.00549485 ) 0 
( -0.010728 -0.000975343 0.00593521 ) 0 
( -0.00881511 -0.00344614 0.00493861 ) 0 
( -0.00265515 -0.00247706 0.00254004 ) 0 
( -0.0114224 -0.00486235 0.00345955 ) 0 
( -0.0114412 -0.00208729 0.000499768 ) 0 
( -0.00588064 -0.0119661 0.00609965 ) 0 
( -0.0053972 -0.0112524 0.00190997 ) 0 
( -8.6213e-05 -0.00886625 0.00049961 ) 0 
( -0.0125171 -0.00116067 0.0013371 ) 0 
( -0.0115847 -0.00663488 0.00317465 ) 0 
( -0.0066598 -0.00777167 0.00250018 ) 0 
( -0.00433686 -0.00410835 0.00217663 ) 0 
( -0.0121396 -0.00555485 0.00386813 ) 0 
( -0.00252062 -0.00418102 0.00125372 ) 0 
( -0.00336823 -0.00492908 0.00280795 ) 0 
( -0.00778787 -0.0063463 0.000499592 ) 0 
( -0.00669755 -0.0105599 0.0065728 ) 0 
( -0.00889254 -0.00257792 0.00609909 ) 0 
( -0.00870165 -0.0064616 0.00629677 ) 0 
( -0.00213121 -0.00640226 0.00541817 ) 0 
( -0.000772924 -0.0125217 0.000499567 ) 0 
( -0.00648311 -0.00820958 0.00345162 ) 0 
( -0.00388252 -0.00311846 0.0030886 ) 0 
( -0.00261956 -0.00903356 0.0039694 ) 0 
( -1.16238e-05 -0.011109 0.000499648 ) 0 
( -0.00310889 -0.00650938 0.000808328 ) 0 
( -0.00584666 -0.0120019 0.00709812 ) 0 
( -0.00534418 -0.0122337 0.00216202 ) 0 
( -0.00218719 -0.00115885 0.00186887 ) 0 
( -0.00102302 -0.00658858 0.0031219 ) 0 
( -0.00435807 -0.0126169 0.00168897 ) 0 
( -0.0102116 -0.00859947 0.000499805 ) 0 
( -0.00437886 -0.00911361 0.0057494 ) 0 
( -0.0107928 -0.00315151 0.000987746 ) 0 
( -0.00396403 -0.00501566 0.00198246 ) 0 
( -0.00180761 -0.00167318 0.00436548 ) 0 
( -0.00857581 -0.00904613 0.00344663 ) 0 
( -0.00733955 -0.00994145 0.000499601 ) 0 
( -0.000661834 -0.00670431 0.00624851 ) 0 
( -0.00694464 -0.00272965 0.00651336 ) 0 
( -0.00502061 -0.00815755 0.00326333 ) 0 
( -0.00616836 -0.00697018 0.00215929 ) 0 
( -0.00251512 -0.00055513 0.00114236 ) 0 
( -0.00528221 -0.0054597 0.00128318 ) 0 
( -0.00960068 -0.00693196 0.000499719 ) 0 
( -0.00293524 -0.00644227 0.0076137 ) 0 
( -0.00739089 -0.00774972 0.00320685 ) 0 
( -0.00107593 -0.000848151 0.00680437 ) 0 
( -0.000161916 -0.0103409 0.00256422 ) 0 
( -0.003292 -0.00481719 0.00124783 ) 0 
( -0.00991901 -0.00584933 0.00512713 ) 0 
( -0.00298959 -0.00129602 0.00459201 ) 0 
( -0.0039281 -0.002117 0.00219789 ) 0 
( -0.00567056 -0.000645694 0.00397235 ) 0 
( -0.00756813 -0.0089534 0.00625998 ) 0 
( -0.00770069 -0.00606645 0.00644132 ) 0 
( -0.00152598 -0.00786322 0.00616147 ) 0 
( -0.00749193 -0.0100439 0.00708026 ) 0 
( -0.00645217 -0.00631577 0.00454471 ) 0 
( -0.000675344 -0.0125652 0.00245916 ) 0 
( -0.000172501 -0.00398469 0.00178596 ) 0 
( -0.000252206 -0.0023773 0.00377927 ) 0 
( -0.00905154 -0.0038521 0.00277835 ) 0 
( -0.00991584 -8.48077e-05 0.00574599 ) 0 
( -0.0106675 -0.00406977 0.00514741 ) 0 
( -0.0103171 -0.000883511 0.0039974 ) 0 
( -0.0109732 -0.00582331 0.0004998 ) 0 
( -0.00356655 -0.00229333 0.00638804 ) 0 
( -0.00121863 -0.0132945 0.00391926 ) 0 
( -0.00818211 -0.00525431 0.00193373 ) 0 
( -0.00546495 -0.00116942 0.00687697 ) 0 
( -0.0045652 -0.0125399 0.00270913 ) 0 
( -0.0129757 -0.00281248 0.00644317 ) 0 
( -0.00323509 -0.00299012 0.000499789 ) 0 
( -0.00516436 -0.00682231 0.00218203 ) 0 
( -0.000286309 -0.00886747 0.00621669 ) 0 
( -0.00474069 -0.0107957 0.00251715 ) 0 
( -0.0101477 -0.00380745 0.00323018 ) 0 
( -0.00463938 -0.00852068 0.00145671 ) 0 
( -0.00209749 -0.0123903 0.00715962 ) 0 
( -0.0026058 -0.00932134 0.00246896 ) 0 
( -0.0118215 -0.00105375 0.00292508 ) 0 
( -0.00304606 -0.0122384 0.000499622 ) 0 
( -0.0042176 -0.00914957 0.00724363 ) 0 
( -0.0043284 -0.00172033 0.00137208 ) 0 
( -0.00808886 -0.00142445 0.00662262 ) 0 
( -0.00590188 -0.00533115 0.00364264 ) 0 
( -0.00198665 -0.0132015 0.00161488 ) 0 
( -0.00274078 -0.0104524 0.00416573 ) 0 
( -0.00480667 -0.00191883 0.0066575 ) 0 
( -0.00886145 -0.00998496 0.000499781 ) 0 
( -0.0123923 -0.00496647 0.00532 ) 0 
( -0.00154823 -0.00921207 0.00513949 ) 0 
( -0.0055578 -0.00748718 0.00154715 ) 0 
( -0.0113411 -0.00704349 0.00486762 ) 0 
( -0.0118324 -0.00379645 0.00553907 ) 0 
( -0.00322314 -0.0112544 0.000499803 ) 0 
( -0.00758335 -0.00992197 0.00215472 ) 0 
( -0.00303806 -0.00973788 0.00339621 ) 0 
( -0.0077362 -0.00671391 0.00331035 ) 0 
( -0.0100776 -0.00731657 0.00445185 ) 0 
( -0.00248531 -0.00599939 0.00216249 ) 0 
( -0.0101694 -0.00864917 0.00303239 ) 0 
( -0.00855682 -0.00940648 0.00589699 ) 0 
( -0.0106093 -0.000977635 0.00202989 ) 0 
( -0.00581687 -0.00829237 0.00654374 ) 0 
( -0.0115185 -0.00481968 0.00243916 ) 0 
( -0.00652404 -0.00748925 0.00128996 ) 0 
( -0.00767668 -0.00349528 0.0068928 ) 0 
( -0.00800106 -0.00261311 0.00342072 ) 0 
( -0.00259061 -0.00594611 0.0032742 ) 0 
( -0.00162258 -0.00581013 0.00348398 ) 0 
( -0.00975057 -0.00441154 0.00233107 ) 0 
( -0.00822954 -0.00738732 0.00271359 ) 0 
( -0.0030556 -0.00953791 0.00647549 ) 0 
( -0.00323166 -0.00960361 0.00451705 ) 0 
( -0.00124485 -0.00196816 0.000499686 ) 0 
( -0.00686755 -0.00370621 0.000759664 ) 0 
( -0.0059619 -0.00233007 0.00326279 ) 0 
( -0.00165918 -0.00499441 0.00609716 ) 0 
( -0.00698937 -0.00421807 0.00422881 ) 0 
( -0.001489 -0.00353291 0.000917015 ) 0 
( -0.00282897 -0.0130342 0.00495986 ) 0 
( -0.00137307 -0.0132792 0.0024006 ) 0 
( -0.00108454 -0.0088134 0.000499579 ) 0 
( -0.0106036 -0.00641854 0.00154096 ) 0 
( -0.00620644 -0.0018267 0.00674096 ) 0 
( -0.0121501 -0.00306292 0.00493874 ) 0 
( -0.0113609 -0.00293663 0.00576969 ) 0 
( -0.0106881 -0.000151384 0.00456864 ) 0 
( -0.000826802 -0.00219149 0.00476136 ) 0 
( -0.000644052 -0.0108379 0.00352259 ) 0 
( -0.00943661 -0.00332445 0.00571702 ) 0 
( -0.00489638 -0.0113507 0.00513914 ) 0 
( -0.0068119 -0.00907292 0.000499688 ) 0 
( -0.000800776 -0.00293969 0.000499735 ) 0 
( -0.00622919 -0.00729553 0.00376781 ) 0 
( -0.0115593 -0.00632287 0.00552517 ) 0 
( -8.58075e-05 -0.00559037 0.000499674 ) 0 
( -0.000198884 -0.00752664 0.00182108 ) 0 
( -0.00182929 -0.00776046 0.00295123 ) 0 
( -0.00324828 -0.00506607 0.00533758 ) 0 
( -0.00272147 -0.00527525 0.00619848 ) 0 
( -0.000682662 -0.00585054 0.00382233 ) 0 
( -0.00639227 -0.00327948 0.00588719 ) 0 
( -0.00601931 -0.0100718 0.00591904 ) 0 
( -0.00220733 -0.0114571 0.000499728 ) 0 
( -0.00176285 -0.00740957 0.00391178 ) 0 
( -0.00572658 -0.00938775 0.00212432 ) 0 
( -0.0090312 -0.00623503 0.00538033 ) 0 
( -0.00858316 -0.00190023 0.00734934 ) 0 
( -0.000698419 -0.0100653 0.00638858 ) 0 
( -0.0077707 -0.00282472 0.00437045 ) 0 
( -0.0047491 -0.0112435 0.006944 ) 0 
( -0.00756356 -0.00732458 0.00487984 ) 0 
( -0.00423371 -0.0116498 0.00443546 ) 0 
( -0.00937648 -0.00149017 0.00364224 ) 0 
( -0.00204718 -0.00132814 0.000499803 ) 0 
( -0.00922806 -0.00746103 0.00388017 ) 0 
( -0.011429 -0.00207102 0.00242371 ) 0 
( -0.00606414 -0.00982356 0.0069015 ) 0 
( -0.0122916 -0.00167912 0.00636599 ) 0 
( -0.00402917 -0.00821867 0.000724501 ) 0 
( -0.00462709 -0.00542319 0.00617869 ) 0 
( -0.0055355 -0.00579022 0.0044517 ) 0 
( -0.00827711 -0.00674816 0.00127339 ) 0 
( -0.00293545 -0.013019 0.00191405 ) 0 
( -0.00765184 -0.000685125 0.00222269 ) 0 
( -0.0073477 -0.00341982 0.00368723 ) 0 
( -0.0115021 -0.00105133 0.00479781 ) 0 
( -0.00533319 -0.00113692 0.00195243 ) 0 
( -0.00389288 -0.00309843 0.00200951 ) 0 
( -0.0016807 -0.00822135 0.00748328 ) 0 
( -0.00468013 -0.00561217 0.000499681 ) 0 
( -0.0108933 -4.33092e-05 0.00554124 ) 0 
( -0.000256707 -0.00430144 0.00572502 ) 0 
( -0.00237384 -0.00485135 0.00703466 ) 0 
( -0.00308261 -0.00605959 0.00517783 ) 0 
( -0.00236093 -0.00927413 0.0004997 ) 0 
( -0.0047705 -0.00379295 0.00571676 ) 0 
( -0.00861826 -0.00043282 0.00210267 ) 0 
( -0.00488725 -0.00643532 0.00105065 ) 0 
( -0.00591283 -0.0100662 0.00492479 ) 0 
( -0.00229983 -0.0103174 0.00277523 ) 0 
( -0.0105092 -0.00105797 0.00496305 ) 0 
( -0.00765965 -0.00903324 0.00260666 ) 0 
( -0.0100256 -0.00764192 0.00106106 ) 0 
( -0.00134886 -0.00320219 0.0033662 ) 0 
( -0.00680154 -0.0104634 0.00543523 ) 0 
( -0.00296127 -0.00831314 0.00621582 ) 0 
( -0.00290564 -0.000595918 0.00227742 ) 0 
( -0.00141901 -0.012459 0.00125979 ) 0 
( -0.00328798 -0.00143678 0.00794223 ) 0 
( -0.0065691 -0.00608306 0.00357929 ) 0 
( -0.00152738 -0.00395807 0.0048109 ) 0 
( -0.0103893 -0.00256029 0.00480007 ) 0 
( -0.0037768 -0.00747599 0.0030762 ) 0 
( -0.00824282 -0.0105013 0.00387697 ) 0 
( -0.00230433 -0.000892986 0.00398548 ) 0 
( -0.00215162 -0.00329334 0.00806713 ) 0 
( -9.93683e-05 -0.00342556 0.00422788 ) 0 
( -0.0104736 -0.00233935 0.000499723 ) 0 
( -0.00406033 -0.00347246 0.00448818 ) 0 
( -0.00183337 -0.00149082 0.00669188 ) 0 
( -0.00100925 -0.00730088 0.00466535 ) 0 
( -0.00569532 -0.00374274 0.00534013 ) 0 
( -0.000413743 -0.00339253 0.00611059 ) 0 
( -0.00371862 -0.0067627 0.0057712 ) 0 
( -0.00681691 -0.00889198 0.00422792 ) 0 
( -0.0124801 -0.00471449 0.00435633 ) 0 
( -0.00238471 -0.012265 0.00143153 ) 0 
( -0.0022296 -0.00337462 0.00521788 ) 0 
( -0.00130536 -0.00660019 0.00141941 ) 0 
( -0.012548 -0.00455764 0.000499773 ) 0 
( -0.00128484 -0.00822806 0.00520372 ) 0 
( -0.00995998 -0.0027801 0.00139771 ) 0 
( -0.00316996 -0.0102453 0.00228717 ) 0 
( -0.00384736 -0.00194801 0.0033121 ) 0 
( -0.00658034 -0.0116156 0.00314877 ) 0 
( -0.011361 -0.00489897 0.000499658 ) 0 
( -0.000472391 -0.00834108 0.002334 ) 0 
( -0.00419412 -0.00565533 0.0052988 ) 0 
( -0.00855664 -0.00749337 0.00642256 ) 0 
( -0.00068412 -0.00888912 0.00475414 ) 0 
( -0.00699272 -0.00413187 0.00653736 ) 0 
( -0.00436955 -0.00983496 0.00644237 ) 0 
( -0.00756987 -4.34882e-05 0.00641764 ) 0 
( -0.00825254 -0.00938238 0.00684922 ) 0 
( -0.0115442 -0.00402225 0.00182465 ) 0 
( -0.00178497 -0.00711962 0.00212653 ) 0 
( -0.00982316 -0.00239531 0.00578214 ) 0 
( -0.00800862 -0.00832149 0.00453931 ) 0 
( -0.00164746 -0.00927827 0.00383401 ) 0 
( -0.0104467 -0.00381987 0.00707107 ) 0 
( -0.00399863 -0.0110647 0.00365937 ) 0 
( -0.000674198 -0.000802517 0.00316368 ) 0 
( -0.00586545 -0.00657005 0.00129435 ) 0 
( -0.00612712 -0.00463563 0.0045209 ) 0 
( -0.00954287 -0.00446717 0.00658121 ) 0 
( -0.00756307 -0.00810962 0.00223592 ) 0 
( -0.00514908 -0.0116597 0.000499654 ) 0 
( -0.00380967 -0.004849 0.00613577 ) 0 
( -0.00703575 -0.000775274 0.00138645 ) 0 
( -0.00838344 -0.0103878 0.00581617 ) 0 
( -0.00643576 -0.00173473 0.00771351 ) 0 
( -0.00270847 -0.0113221 0.00135434 ) 0 
( -0.0051805 -0.00801392 0.000785675 ) 0 
( -0.00356267 -0.0114351 0.00727367 ) 0 
( -0.000343948 -0.00839167 0.00134093 ) 0 
( -0.0117027 -0.00112898 0.00577423 ) 0 
( -0.00326112 -0.000555602 0.00747054 ) 0 
( -0.0107157 -0.00422906 0.00252081 ) 0 
( -0.0108967 -0.00565171 0.00519382 ) 0 
( -0.00740473 -0.00701773 0.00212393 ) 0 
( -0.0133486 -0.000199081 0.00051256 ) 0 
( -0.00726213 -0.000326657 0.00404632 ) 0 
( -0.00884372 -0.00540944 0.00472875 ) 0 
( -0.00499593 -0.00494881 0.00209368 ) 0 
( -0.0049849 -0.00878227 0.00243175 ) 0 
( -0.00719513 -0.00178845 0.00688334 ) 0 
( -0.0128908 -0.00347112 0.00049978 ) 0 
( -0.00681137 -0.000841661 0.00795904 ) 0 
( -0.00141194 -0.0123895 0.00328545 ) 0 
( -0.00812237 -0.00736308 0.0004998 ) 0 
( -0.00332244 -0.00171235 0.00561194 ) 0 
( -0.000571558 -0.00664087 0.00209896 ) 0 
( -0.0115074 -0.00498423 0.00697308 ) 0 
( -0.00922934 -0.000558705 0.00397479 ) 0 
( -0.00276453 -0.000344279 0.00479886 ) 0 
( -0.0123928 -0.000684958 0.00634817 ) 0 
( -0.00343118 -0.0086467 0.00353163 ) 0 
( -0.00219891 -0.000215814 0.00567289 ) 0 
( -0.0070404 -0.00414007 0.00173201 ) 0 
( -0.00789702 -0.008648 0.00144013 ) 0 
( -0.00222539 -0.000460082 0.00304522 ) 0 
( -0.000245866 -0.009089 0.00387789 ) 0 
( -0.00759715 -0.000910223 0.00592049 ) 0 
( -0.00451725 -0.0125626 0.00473113 ) 0 
( -0.00644414 -0.0106969 0.00351914 ) 0 
( -0.000437655 -0.00600613 0.00133807 ) 0 
( -0.00605853 -0.00417416 0.00618372 ) 0 
( -0.00418274 -0.00804281 0.00379699 ) 0 
( -0.0020804 -0.00760685 0.00130431 ) 0 
( -0.00769874 -0.00258556 0.00730674 ) 0 
( -0.00720991 -0.00648366 0.0053709 ) 0 
( -0.000554337 -0.0012197 0.00218793 ) 0 
( -0.00929315 -0.00833477 0.00339878 ) 0 
( -0.00271335 -0.0130716 0.000940573 ) 0 
( -0.012175 -0.00547673 0.0020686 ) 0 
( -0.00227666 -0.00412851 0.002222 ) 0 
( -0.00335174 -0.00422829 0.0020537 ) 0 
( -0.00461615 -0.00149199 0.00256645 ) 0 
( -0.00766561 -0.00462408 0.00346991 ) 0 
( -0.0055657 -0.00320516 0.00747886 ) 0 
( -0.00643549 -0.000309424 0.00559548 ) 0 
( -0.00718019 -0.00674169 0.00118802 ) 0 
( -0.00385949 -0.00158518 0.000499636 ) 0 
( -0.00266193 -0.0019981 0.00395988 ) 0 
( -0.00654469 -0.00268648 0.00742863 ) 0 
( -0.00341158 -0.00359058 0.00128435 ) 0 
( -0.00314054 -0.00882153 0.00716782 ) 0 
( -0.00239753 -0.00353625 0.000499635 ) 0 
( -0.00526851 -0.00523291 0.00696526 ) 0 
( -0.006942 -0.0013878 0.00217123 ) 0 
( -0.00455047 -0.00473179 0.00544081 ) 0 
( -0.0132133 -0.00190656 0.00475981 ) 0 
( -0.00457055 -0.000187764 0.00256875 ) 0 
( -0.0108767 -0.00181352 0.00137946 ) 0 
( -0.00395532 -0.00775315 0.00211466 ) 0 
( -0.00301189 -0.00705537 0.00512175 ) 0 
( -0.000947676 -0.00449235 0.00141007 ) 0 
( -0.0121717 -0.00548429 0.000499719 ) 0 
( -0.00700612 -0.00742538 0.00632674 ) 0 
( -0.0041447 -0.00397277 0.00648069 ) 0 
( -0.00561054 -0.00601956 0.000499617 ) 0 
( -0.00674972 -0.00838271 0.00619537 ) 0 
( -0.00137678 -0.000168549 0.00348642 ) 0 
( -0.00582066 -0.00771158 0.00566234 ) 0 
( -0.00599076 -0.000448874 0.00732905 ) 0 
( -0.00575114 -0.00652305 0.00296528 ) 0 
( -0.0123967 -0.00495468 0.00306898 ) 0 
( -0.0102014 -0.0086113 0.00150912 ) 0 
( -0.0037395 -0.0055899 0.00441068 ) 0 
( -0.00380249 -0.00652576 0.00674422 ) 0 
( -0.00405023 -0.00856124 0.00271099 ) 0 
( -0.0120704 -0.0036325 0.00261514 ) 0 
( -0.00195809 -0.00593027 0.0062823 ) 0 
( -0.00786833 -0.000499731 0.00321202 ) 0 
( -0.000924295 -0.00985967 0.00346134 ) 0 
( -0.00466796 -0.00262231 0.00360233 ) 0 
( -0.010167 -0.0057001 0.00416791 ) 0 
( -0.00802789 -0.0106667 0.000499771 ) 0 
( -0.0100623 -0.0067 0.00256244 ) 0 
( -0.00242576 -0.00944226 0.00559995 ) 0 
( -0.000450571 -0.00526297 0.0068064 ) 0 
( -0.00787661 -0.00907417 0.00524384 ) 0 
( -0.00200976 -0.00674706 0.00309236 ) 0 
( -0.00374911 -0.00767381 0.00618172 ) 0 
( -0.00114939 -0.00657378 0.00533729 ) 0 
( -0.00844521 -0.00505381 0.00576623 ) 0 
( -0.00251404 -0.00138842 0.00279803 ) 0 
( -0.000803177 -0.00282196 0.00256594 ) 0 
( -0.00928715 -0.00256486 0.00495525 ) 0 
( -0.00292031 -0.00012663 0.00380332 ) 0 
( -0.00458176 -0.00727538 0.00149878 ) 0 
( -0.00505976 -0.00303035 0.000499806 ) 0 
( -0.00374235 -0.0128149 0.000926416 ) 0 
( -0.0131337 -0.00150034 0.00296122 ) 0 
( -0.00705615 -0.00384355 0.00270579 ) 0 
( -0.00881354 -0.00216141 0.0030292 ) 0 
( -0.0109084 -0.00463066 0.00134978 ) 0 
( -0.00363272 -0.0109783 0.00530349 ) 0 
( -0.00675032 -0.00907707 0.00303206 ) 0 
( -0.00281979 -0.00519902 0.00444409 ) 0 
( -0.00990005 -0.00754483 0.00204911 ) 0 
( -5.88095e-05 -0.000159508 0.00491136 ) 0 
( -0.00782635 -0.00695539 0.00600115 ) 0 
( -0.0070656 -0.0111053 0.000499675 ) 0 
( -0.00840856 -0.0103694 0.00681512 ) 0 
( -0.0122199 -0.00242846 0.0057082 ) 0 
( -0.00780711 -0.0027733 0.0011792 ) 0 
( -0.00069859 -0.0124432 0.00398415 ) 0 
( -0.00984169 -0.00632877 0.00600105 ) 0 
( -0.00361221 -0.0085601 0.00163407 ) 0 
( -0.00475286 -0.000422 0.00459236 ) 0 
( -0.000566833 -0.00115807 0.00492599 ) 0 
( -0.00119794 -0.00341267 0.00834154 ) 0 
( -0.00785001 -0.00549631 0.00102217 ) 0 
( -0.00522513 -0.00343103 0.00341428 ) 0 
( -0.00783468 -0.00186941 0.0057643 ) 0 
( -0.00475263 -0.00887102 0.000499573 ) 0 
( -0.00164329 -0.00687056 0.00615442 ) 0 
( -0.00445335 -0.00423952 0.00398059 ) 0 
( -0.00404756 -0.00134147 0.00620935 ) 0 
( -0.00895276 -0.00990317 0.00751225 ) 0 
( -0.00702056 -0.00568946 0.00706988 ) 0 
( -0.00686538 -0.00316447 0.0047159 ) 0 
( -0.007427 -0.00185807 0.00434754 ) 0 
( -0.0046149 -0.00461878 0.00123009 ) 0 
( -0.000748527 -0.013329 0.00604167 ) 0 
( -0.00852732 -0.00263517 0.000499599 ) 0 
( -0.00051551 -0.00763863 0.00657345 ) 0 
( -0.00136283 -0.0065232 0.00414358 ) 0 
( -0.00689457 -0.0031552 0.00182405 ) 0 
( -0.00992075 -0.00174358 0.00446354 ) 0 
( -0.00281129 -0.00878375 0.00495393 ) 0 
( -0.0070228 -0.00570245 0.000499721 ) 0 
( -0.00567735 -0.00595274 0.00205818 ) 0 
( -0.00800227 -0.00399914 0.00417414 ) 0 
( -0.00970036 -0.000479848 0.00485319 ) 0 
( -0.0087957 -0.00633869 0.000499803 ) 0 
( -0.00965809 -0.00673753 0.00147874 ) 0 
( -0.00130047 -0.00485911 0.00330721 ) 0 
( -0.00155922 -0.00127494 0.00774532 ) 0 
( -0.00574703 -0.0027015 0.00658195 ) 0 
( -0.0131771 -0.00213999 0.00573131 ) 0 
( -0.0043419 -0.00517485 0.00364499 ) 0 
( -0.00719931 -0.00257511 0.00545129 ) 0 
( -0.00674968 -0.00888836 0.00204951 ) 0 
( -0.00134886 -0.00163885 0.00160967 ) 0 
( -0.00588883 -0.00917789 0.00446624 ) 0 
( -0.0114145 -0.00289995 0.00303228 ) 0 
( -0.00774746 -0.00200864 0.000499655 ) 0 
( -0.000583403 -0.00303199 0.0016093 ) 0 
( -0.00544134 -0.00445695 0.00381546 ) 0 
( -0.00203758 -0.000984549 0.00505422 ) 0 
( -0.00089324 -0.00924356 0.00138157 ) 0 
( -0.00541353 -0.00200923 0.00140015 ) 0 
( -0.00569692 -0.00644947 0.00518623 ) 0 
( -0.00189408 -0.013215 0.00465456 ) 0 
( -0.00999107 -0.00601151 0.000499685 ) 0 
( -0.0117 -0.00642629 0.00416752 ) 0 
( -0.00178896 -0.00928825 0.00187864 ) 0 
( -0.00178216 -0.0132307 0.00671928 ) 0 
( -0.0119946 -0.00487553 0.0012728 ) 0 
( -0.00888107 -0.00697009 0.00206357 ) 0 
( -0.00169403 -0.0122393 0.00219569 ) 0 
( -0.00274907 -0.013064 0.00394672 ) 0 
( -0.00171224 -0.00248133 0.00674941 ) 0 
( -0.000246207 -0.00292164 0.00785144 ) 0 
( -0.0128802 -0.00351033 0.00321089 ) 0 
( -0.000571579 -0.013337 0.003158 ) 0 
( -0.00264801 -0.00286889 0.00445114 ) 0 
( -0.00793015 -0.00422071 0.00620194 ) 0 
( -0.00454213 -0.00722701 0.00425227 ) 0 
( -0.00354461 -0.00827483 0.00540461 ) 0 
( -0.0111625 -0.00325605 0.00484297 ) 0 
( -0.0103089 -0.00483849 0.000499712 ) 0 
( -0.00573433 -0.000983505 0.00582629 ) 0 
( -0.00820086 -0.00685899 0.00710884 ) 0 
( -0.0119976 -0.00585541 0.00697409 ) 0 
( -0.00308488 -0.0119136 0.00532835 ) 0 
( -0.00671074 -0.00934978 0.00593227 ) 0 
( -0.00343195 -0.00267293 0.00386229 ) 0 
( -0.00897139 -0.000927054 0.0012941 ) 0 
( -0.00394666 -0.00218081 0.00814747 ) 0 
( -0.00211462 -0.00334023 0.00706588 ) 0 
( -0.00510765 -0.0101949 0.00550355 ) 0 
( -0.00222507 -0.0082252 0.00554481 ) 0 
( -0.00860306 -0.00323759 0.00393145 ) 0 
( -0.00642801 -0.00222829 0.00234501 ) 0 
( -0.0103169 -0.00493806 0.00479741 ) 0 
( -0.00317487 -0.00570989 0.00697683 ) 0 
( -0.000711586 -0.000444817 0.00561265 ) 0 
( -0.00781949 -0.00355655 0.0050519 ) 0 
( -0.00580121 -0.00541578 0.0061393 ) 0 
( -0.0101038 -0.00872579 0.00629691 ) 0 
( -0.00883384 -0.00078388 0.00308444 ) 0 
( -0.01292 -0.00336122 0.00210434 ) 0 
( -0.0122609 -0.00311557 0.00129768 ) 0 
( -0.00631222 -0.0117629 0.000499763 ) 0 
( -0.00115178 -0.00103119 0.000835766 ) 0 
( -0.00149427 -0.0132661 0.00049972 ) 0 
( -0.00230009 -0.00302614 0.00135401 ) 0 
( -0.00811135 -0.00117133 0.00510378 ) 0 
( -0.00539668 -0.00930487 0.0060728 ) 0 
( -0.00592306 -0.00843837 0.00238737 ) 0 
( -0.00618251 -0.00400575 0.00222792 ) 0 
( -0.00477138 -0.00263171 0.00780292 ) 0 
( -0.00811399 -0.00948338 0.000935197 ) 0 
( -0.00289069 -0.011127 0.00618783 ) 0 
( -0.00296441 -0.00430608 0.00612007 ) 0 
( -0.0054336 -0.012011 0.00437159 ) 0 
( -0.00792241 -0.00119031 0.0075911 ) 0 
( -0.00345899 -0.000308373 0.00650283 ) 0 
( -0.00057283 -0.00806401 0.00774628 ) 0 
( -0.0124827 -0.000592447 0.00535688 ) 0 
( -0.00378524 -0.00658498 0.00469707 ) 0 
( -0.00357725 -0.00581879 0.00606823 ) 0 
( -0.00555105 -0.0121335 0.00330869 ) 0 
( -0.00840511 -0.00341463 0.00584991 ) 0 
( -0.00565024 -0.00495916 0.000499761 ) 0 
( -0.0095224 -0.00845243 0.00223235 ) 0 
( -0.00230442 -0.00662511 0.00139054 ) 0 
( -0.00546943 -0.00421736 0.0015592 ) 0 
( -0.00937796 -0.00168215 0.000499666 ) 0 
( -0.00740822 -0.00498364 0.00252224 ) 0 
( -0.0113033 -0.00529773 0.0043518 ) 0 
( -0.00839229 -0.00432094 0.000499655 ) 0 
( -0.00055476 -0.00126219 0.00755006 ) 0 
( -0.00392422 -0.00407335 0.0075493 ) 0 
( -0.00011524 -0.00620947 0.00692375 ) 0 
( -0.000984743 -0.0126258 0.00694621 ) 0 
( -1.94661e-05 -0.0102706 0.00562267 ) 0 
( -0.00551697 -0.0027165 0.00412244 ) 0 
( -0.00998806 -0.0042841 0.00411216 ) 0 
( -0.0105948 -0.0068239 0.000499801 ) 0 
( -0.000190186 -0.00787198 0.000499642 ) 0 
( -0.0105786 -0.0081424 0.0047335 ) 0 
( -0.0066676 -0.00124612 0.00607045 ) 0 
( -0.00315664 -0.00363012 0.00395 ) 0 
( -0.00773577 -0.00798307 0.00593208 ) 0 
( -0.00805333 -0.00931299 0.00428913 ) 0 
( -0.00575236 -0.00889186 0.000499704 ) 0 
( -0.0127246 -0.00403839 0.00515243 ) 0 
( -0.0073794 -0.00342838 0.00594046 ) 0 
( -0.00560096 -0.00711854 0.000499808 ) 0 
( -0.00191746 -0.0112634 0.00600355 ) 0 
( -0.00839216 -0.00369662 0.00129147 ) 0 
( -0.0118448 -0.00136079 0.00391099 ) 0 