FoamFile
{version 2.0; format ascii;class vectorField; location 0;object  v;}
2494
(
( 1.16705e-05 -2.23628e-05 -5.93001e-06 )  
( -0.000429153 -0.000629408 -0.000137725 )  
( -0.00117296 -0.00101907 0.00341182 )  
( 0.0021896 0.00061073 0.00428774 )  
( -8.42011e-05 8.43609e-05 -2.31017e-05 )  
( 0.000138675 0.000167178 -1.44059e-05 )  
( 0.00025922 8.49583e-05 4.18378e-06 )  
( 0.000872336 0.00053589 0.00486961 )  
( -0.000149103 0.000490179 0.006531 )  
( 0.000305007 -6.22394e-05 -5.06511e-05 )  
( -0.00112905 -0.000383524 0.00238638 )  
( 0.000231368 -0.000749399 0.00142866 )  
( -0.00107169 0.00238903 0.00486222 )  
( -0.000635417 0.000530104 0.0060598 )  
( 0.00176976 0.000762908 0.00619386 )  
( -0.000469043 0.0001737 0.00619793 )  
( 0.000280361 0.00111801 0.00541202 )  
( -0.000988964 -6.77461e-06 0.00489173 )  
( 0.000560235 0.000185533 7.67785e-07 )  
( -0.0011911 -0.000977577 0.00682261 )  
( 0.000199187 -0.000384819 7.31272e-06 )  
( -0.00170402 0.000917484 0.00556401 )  
( -0.000603216 -0.000259798 -0.000405571 )  
( 0.000125299 -0.000182661 -2.18033e-05 )  
( 0.000649115 6.50012e-06 -0.000216772 )  
( -0.00325417 0.000991388 0.0086191 )  
( -4.62485e-05 -3.42105e-05 4.75729e-05 )  
( 0.00146714 -0.00362155 0.00738104 )  
( 0.000345565 -6.25358e-05 4.21249e-05 )  
( 8.90246e-05 -0.0004791 0.00207801 )  
( -0.000706432 -0.00032278 3.26166e-05 )  
( -0.00152503 0.00134226 0.00432693 )  
( -0.00209027 0.00176177 0.00662535 )  
( 3.92806e-05 -0.000683875 0.00567284 )  
( -0.00544644 -0.00332743 0.0092184 )  
( 0.00114561 0.000110522 0.00493285 )  
( 0.000711075 0.00240149 0.00159386 )  
( -0.000773728 -0.000960382 0.00803428 )  
( -0.000185094 -7.48531e-05 0.00718745 )  
( 0.000285969 0.000253173 6.10844e-05 )  
( 0.000806865 -0.000776661 0.0050158 )  
( 5.62379e-05 0.000259408 -0.000709518 )  
( -0.000872535 0.00181409 0.000331375 )  
( 0.000116923 -0.000417806 -4.9279e-05 )  
( 6.86161e-05 0.00204593 0.00488595 )  
( 0.00630548 0.000664203 0.00880042 )  
( -0.00196349 -0.000655554 0.00712784 )  
( -0.000501665 -0.001003 0.00713984 )  
( 0.000887245 0.000497921 0.00630445 )  
( -0.000783382 0.000438866 0.00300086 )  
( 6.00525e-05 -0.00101531 4.52944e-06 )  
( 0.000130486 0.00115617 0.00741385 )  
( 0.000277544 0.000109741 7.76914e-05 )  
( -5.14932e-05 0.000106493 0.000111292 )  
( -0.000421558 0.000503611 0.00462424 )  
( 0.00033738 0.000421667 -0.000126578 )  
( -0.000336422 0.0010047 0.00409536 )  
( 0.000682626 0.000312476 -0.000407881 )  
( 0.000343129 -0.000197616 -8.10205e-05 )  
( -0.000233208 -0.000673831 -1.35261e-05 )  
( -0.00197807 0.000572079 0.00669054 )  
( 0.000344898 0.000195252 -4.23147e-05 )  
( -0.00239218 0.00174018 0.00691289 )  
( -0.00298073 0.00021292 0.00779594 )  
( -0.00246779 0.00548604 0.00547353 )  
( 0.00269633 0.000251284 0.000588076 )  
( -0.000503238 0.000118192 0.00315871 )  
( -0.000131923 0.000284353 0.00258499 )  
( 0.00010418 -2.16952e-05 -0.000212049 )  
( -0.00181563 -0.00158074 0.00725974 )  
( -0.000600725 -0.000431802 0.00639186 )  
( 0.00219035 0.000856698 0.00451502 )  
( 0.000341813 -0.000739417 0.000434637 )  
( -0.000345282 0.000900138 -0.000967919 )  
( 0.000827969 0.00227904 0.00540156 )  
( 0.000461726 0.00023622 0.00606778 )  
( 0.00161125 -0.000429803 -0.00129348 )  
( 0.000320746 -0.000271566 0.000200565 )  
( 0.000211966 -8.7632e-05 -2.26475e-06 )  
( 0.000756095 0.00179474 -4.64441e-05 )  
( -0.00110594 0.00128122 0.0046774 )  
( 0.000422987 -0.00215689 0.00771051 )  
( -2.02216e-05 6.93867e-05 -3.38079e-05 )  
( 0.000757569 0.00146526 0.00671153 )  
( -0.00105891 -0.00067543 0.00691309 )  
( -0.0011388 0.000560424 0.00487992 )  
( -0.000539089 -0.000621817 0.00049764 )  
( -0.0050236 -0.00684938 0.0134241 )  
( -0.000718089 0.000958693 0.00363411 )  
( 0.000192375 0.000180861 -3.76013e-07 )  
( -0.000484962 -0.000306234 0.00699119 )  
( 0.00067911 0.000346689 -0.000172333 )  
( -0.000973758 0.000396342 0.00649035 )  
( 3.25447e-05 0.000700367 0.00542334 )  
( -5.30258e-05 6.35063e-05 1.67275e-05 )  
( -0.00178875 0.000697774 0.00343335 )  
( -0.000143774 0.00106684 0.00209777 )  
( -0.000192402 -0.000362357 0.0066908 )  
( -0.000452104 -0.000620829 0.00617087 )  
( 0.000301131 0.00104657 0.00633326 )  
( -0.000508682 -0.000620612 0.00635732 )  
( 0.00114312 -0.00310529 0.01028 )  
( -0.000108609 0.000458388 -0.000154237 )  
( 0.00415172 0.00204983 0.00945542 )  
( 0.000926387 -0.00101353 0.00366511 )  
( -0.000658939 0.000469814 0.00602582 )  
( 0.00184257 0.000284639 0.00645577 )  
( 0.0020757 0.00116481 0.00537275 )  
( -0.00171353 0.000565849 0.00619563 )  
( -0.000695487 0.00055418 0.00571658 )  
( -5.79501e-06 -4.05417e-05 0.00534424 )  
( 2.17282e-05 -0.000202762 0.000159238 )  
( -0.000190539 -0.000208021 2.08736e-05 )  
( -0.000761404 0.00163061 0.00655136 )  
( 0.00116222 0.000151962 0.00603814 )  
( -0.00150209 0.00228471 0.00467147 )  
( -0.00105189 -0.00222665 0.00642152 )  
( 0.00082991 -0.000527302 -4.20662e-05 )  
( -0.000920734 0.00056017 0.00695202 )  
( -0.00926581 -0.0015992 0.0118254 )  
( -8.49264e-05 3.4824e-06 0.000112863 )  
( 0.000816271 -0.00387779 0.00863601 )  
( -0.00133619 -0.00224675 0.00410797 )  
( 0.000620471 8.95664e-05 3.24762e-06 )  
( 0.000648694 0.00160894 0.00580043 )  
( 0.00037987 -0.000381396 0.00694416 )  
( -0.000891608 -0.00210534 0.0051438 )  
( -0.00135845 -0.00114629 0.00851789 )  
( -0.00115372 0.000183781 0.00535515 )  
( -0.000861804 -3.79649e-05 0.00166045 )  
( -0.00133819 0.000522348 0.0055496 )  
( -0.00267699 5.35856e-05 0.00797889 )  
( 0.000152479 0.00109696 -0.000573637 )  
( 0.000468069 -5.81051e-05 -0.000225454 )  
( -0.000416126 -0.00100498 -0.000908449 )  
( 0.000100324 -0.000252738 -0.0001093 )  
( -0.000733933 0.000741873 0.00582908 )  
( 0.0010912 -0.00088587 0.00894582 )  
( -0.00271167 -0.00104147 0.00307143 )  
( 0.000444939 0.000113111 0.0065603 )  
( -0.00145088 -0.00102008 0.00676745 )  
( -4.76983e-05 -0.000300627 -0.000338209 )  
( 0.000873833 0.00326307 0.00753657 )  
( -0.000970796 3.1483e-06 0.00576275 )  
( -4.14094e-05 -0.000242674 -5.35589e-06 )  
( -0.000892127 -0.000317492 0.0110665 )  
( -0.000209842 -0.00068008 0.00597423 )  
( 0.00020086 -1.33946e-05 -5.75394e-06 )  
( -0.00029732 0.000563953 0.00523368 )  
( 0.000394879 -8.38442e-06 -0.000213784 )  
( 0.000423393 -0.000376785 -5.36174e-05 )  
( 0.00245585 0.000398611 0.0030894 )  
( -0.000281229 0.00250299 0.00326268 )  
( 0.00246657 0.000687448 -0.00170909 )  
( 0.000408422 -0.000292964 0.000143798 )  
( 0.000308112 0.000110232 0.000853373 )  
( -0.000453388 -0.000385378 0.00763618 )  
( 5.71115e-05 0.000964968 0.00549246 )  
( -6.4428e-05 0.000255954 0.0067974 )  
( -0.000697411 0.000791895 4.34648e-06 )  
( 0.00102819 -0.000173326 0.00358376 )  
( -0.000279054 0.000590535 0.00731478 )  
( -0.000706051 -5.52927e-05 0.00676185 )  
( -0.000915458 -0.00105867 0.00629206 )  
( -0.000242095 -0.000361978 0.00511045 )  
( 0.000338828 0.00208715 0.00280751 )  
( -5.82552e-05 -0.00155254 0.00709129 )  
( 0.000189565 0.000361747 7.45359e-05 )  
( -0.00300141 0.00106367 0.001386 )  
( -5.73346e-05 0.00115144 -0.000282934 )  
( -0.00153413 0.00147272 0.013837 )  
( -0.000698182 -0.00132258 0.00347268 )  
( 0.000733979 0.000867367 0.00405152 )  
( 0.00012296 5.96366e-05 3.63215e-05 )  
( -0.00185394 0.00261559 0.00522191 )  
( -0.00144965 0.00600041 0.00620622 )  
( 4.4138e-05 -3.40498e-05 3.96766e-05 )  
( -0.00283816 0.00258655 0.00581026 )  
( -0.000574379 -7.56672e-05 0.00621122 )  
( 0.000310858 3.42356e-05 -2.50238e-05 )  
( 0.00189573 -0.000557722 0.00782561 )  
( 0.000123841 0.000110919 1.80301e-05 )  
( 0.00201579 0.000513335 0.00574068 )  
( -0.00507651 0.00280304 0.00505457 )  
( -0.000331562 -0.00163352 0.00956755 )  
( 0.00148285 -0.000421485 0.0059239 )  
( 0.000173591 0.00130929 0.00452416 )  
( -0.00471642 -0.000184926 0.00790912 )  
( 0.00225926 -0.000833626 0.0104968 )  
( 0.000538916 -0.00107321 0.00535217 )  
( -0.00138274 -0.00347234 0.0105283 )  
( 0.000151154 0.000250227 7.28049e-06 )  
( 0.000353687 7.16256e-05 6.96408e-05 )  
( 0.00148748 0.00510549 0.00982337 )  
( 0.000950762 0.000829734 -1.49528e-05 )  
( -0.00188237 0.0012973 0.00306746 )  
( 0.000257952 0.000757672 0.00513657 )  
( 0.000355602 0.00290883 0.00435255 )  
( -0.000741124 -0.000578294 0.00552965 )  
( -0.000250499 0.00385925 0.0102739 )  
( 0.000736695 -0.00201997 -0.00163384 )  
( -0.000902209 9.9883e-05 0.0112303 )  
( -0.00030176 -0.000283367 0.00670468 )  
( 0.00110035 0.00114535 0.00442343 )  
( -0.000160983 0.00047439 0.00608958 )  
( -0.00051651 0.000223103 0.00403024 )  
( 0.000240484 0.000322659 -0.000400015 )  
( -0.000244489 0.000122267 0.00649668 )  
( -0.0015944 0.000341216 0.00891624 )  
( 0.000231483 0.00117701 0.00554203 )  
( -0.00770631 -0.000928122 0.00407247 )  
( -5.82754e-05 0.000298276 0.000186923 )  
( -0.00147416 -0.000265093 0.00696279 )  
( -0.000352791 -5.38377e-05 0.00432842 )  
( -0.000648863 0.000619709 0.00597691 )  
( 0.00127769 0.000281414 0.00395401 )  
( -0.002001 0.000593288 0.00176156 )  
( 0.000287291 -0.000266929 0.00496534 )  
( -0.000871225 -0.00206408 0.00651637 )  
( -0.00104153 -0.00239062 0.00927816 )  
( 0.00119703 -0.000325101 0.00415007 )  
( -0.00472401 -0.000194371 0.00426955 )  
( 0.000174821 9.47628e-05 2.07428e-05 )  
( 0.000453723 0.00232439 0.00385929 )  
( 0.00012219 2.13161e-05 -0.000686991 )  
( 6.9775e-05 -9.1643e-06 -4.72095e-05 )  
( -8.17186e-05 0.000203277 -5.50627e-05 )  
( -0.00125802 0.00242678 0.00484627 )  
( 0.000445308 0.000421615 0.00017865 )  
( 0.00123309 -0.000190319 0.000631604 )  
( -0.000225524 0.0017971 0.00274921 )  
( -0.000425867 0.000770004 0.000230667 )  
( 0.0031325 -0.000452958 0.00068126 )  
( -6.94045e-05 1.18918e-05 2.20907e-05 )  
( 0.000741251 0.00378628 0.0156332 )  
( 9.99939e-05 0.000413525 0.00684609 )  
( 0.00061491 -0.000303556 0.00746227 )  
( -0.000713729 -0.000282827 0.00595972 )  
( 2.55036e-05 -0.000129426 -9.85222e-06 )  
( -0.000991257 -0.00104259 0.00499238 )  
( 8.48441e-05 -0.00142147 0.00755782 )  
( -0.00221514 0.00206274 0.00687548 )  
( 1.80531e-05 0.000184534 3.6461e-05 )  
( 0.00029568 1.64463e-05 -0.000122563 )  
( 0.000260657 -6.60881e-05 0.00377185 )  
( 0.000628541 -0.000281203 -0.000197731 )  
( 0.000722352 0.000696603 -0.000393729 )  
( -0.00118974 0.00159186 0.00632691 )  
( 0.000170621 -0.000143672 -6.56983e-05 )  
( 5.46778e-05 -7.35229e-05 1.90789e-05 )  
( -0.00185149 0.0008518 0.00487664 )  
( 0.00023706 3.2502e-05 -5.60599e-05 )  
( 0.0021673 0.000388132 -0.00018863 )  
( 0.00261877 0.000572563 0.00646142 )  
( -0.00162045 0.00208747 0.00423762 )  
( 0.000139614 -2.81071e-05 -6.21669e-06 )  
( 0.000608605 0.000974343 0.00443484 )  
( -3.51386e-05 7.469e-05 0.00650497 )  
( -0.000906567 -0.000698682 0.00462078 )  
( 0.000686091 0.00029886 0.000124708 )  
( -5.17586e-05 -5.70128e-05 -0.000314718 )  
( 0.000175436 -0.000212496 -3.54279e-05 )  
( -3.34802e-05 2.65983e-05 -2.80029e-05 )  
( -6.83528e-06 0.000773679 0.00601062 )  
( 0.000491566 -0.00141286 0.00454005 )  
( -0.00113657 0.000176123 0.00622285 )  
( -0.00135719 0.00164369 0.00117191 )  
( 0.000306315 -0.000194021 -0.000240048 )  
( 6.26622e-05 4.14609e-05 0.00700702 )  
( -4.81684e-05 -0.000237983 0.00481314 )  
( -0.000293766 -0.000335392 -0.000248622 )  
( 0.000179873 0.00117224 0.00742414 )  
( 9.14788e-05 0.000529834 0.00784764 )  
( 3.41963e-05 0.000153693 0.00579374 )  
( -0.000649374 0.000295758 0.00651907 )  
( -0.00142292 -0.000852692 0.00625211 )  
( -0.00279155 0.000477828 0.00838282 )  
( -0.000583287 0.000469423 1.47994e-05 )  
( 0.000749876 0.00163883 -0.00175356 )  
( -0.000454814 -0.00174775 0.00661801 )  
( -0.000182015 -0.00145889 0.000985176 )  
( 0.000324625 -0.000163526 0.00453429 )  
( 0.000850675 0.000962765 0.00555595 )  
( -0.000723194 0.000380664 0.00649293 )  
( -0.000216611 0.000127193 8.13703e-06 )  
( -0.000408418 0.000196983 0.00603552 )  
( -0.000377587 -0.000302689 0.00365565 )  
( -0.00025086 0.000196166 -0.00010652 )  
( 0.000561909 -0.0028869 0.0117851 )  
( 0.000524711 0.000830368 0.000600549 )  
( 0.000776984 3.22371e-05 0.00411589 )  
( 0.000119657 0.000366313 5.13067e-05 )  
( 0.00110895 0.000484088 -0.00110823 )  
( -0.000104271 0.000588238 0.00493915 )  
( 0.000241024 0.00244397 -3.22369e-05 )  
( -0.00140973 -0.00231669 0.00450942 )  
( 0.000178513 0.00010381 -5.2031e-06 )  
( -0.000406071 0.000177487 0.0045788 )  
( -1.17759e-05 0.00204724 0.00109074 )  
( -0.00244609 0.00142396 0.00836491 )  
( 2.6444e-05 2.09144e-05 1.26207e-05 )  
( -0.00034332 -0.000197535 0.00495413 )  
( -0.00018169 -0.000466001 -0.000800071 )  
( -0.000348482 -0.00036096 0.00446681 )  
( -0.00144754 -0.000309847 0.00580397 )  
( 2.02351e-06 -1.13423e-05 8.21145e-05 )  
( -0.000612315 -0.0005881 0.00971751 )  
( -0.00123178 -0.00102416 0.00622194 )  
( 4.70223e-05 -2.86202e-05 -6.46738e-06 )  
( 0.000221041 -0.000529724 0.00205427 )  
( -0.000338825 0.000523659 0.00520132 )  
( 0.000235322 -3.85049e-06 -3.6212e-05 )  
( 0.00107152 -0.00105108 0.00582945 )  
( -3.78884e-05 0.000742281 0.00423007 )  
( 0.000255525 5.32552e-05 -4.85397e-05 )  
( -0.00145181 0.000713844 -0.000489333 )  
( -0.00242257 0.00154049 0.00805343 )  
( -0.00204451 -0.000161496 0.00843616 )  
( -0.00191898 -0.000535922 0.00669124 )  
( 0.000507225 -0.000479312 0.000556116 )  
( -0.0011311 0.00106829 0.00475772 )  
( 0.00228351 0.00103576 0.00664622 )  
( -0.000549897 -0.000650157 -0.000293105 )  
( -0.00130953 0.00576908 0.0111166 )  
( -0.000332881 -0.000696192 0.00289381 )  
( 0.000204177 0.000276692 -9.20034e-06 )  
( -0.000124242 -0.000210258 0.0073421 )  
( -0.000876675 -0.00223363 0.00885874 )  
( 0.00103098 0.00269722 0.00698257 )  
( 0.00161705 0.00329033 0.00483792 )  
( -0.000750281 -0.00125037 0.0002683 )  
( -0.000967534 -0.000991553 0.000913911 )  
( -0.00243948 -0.00452008 0.00963497 )  
( -0.00276397 0.00316193 0.00663193 )  
( 0.000720404 -0.000261515 -0.00013775 )  
( 1.01305e-05 -0.0003254 -6.71704e-05 )  
( 1.34611e-05 -0.00101153 0.00484622 )  
( 3.84752e-05 0.000661709 0.00465931 )  
( -0.00479285 -0.00138888 0.010849 )  
( 0.000113634 -4.36015e-05 2.84677e-05 )  
( -0.00151012 0.000950189 0.00294326 )  
( -0.000184114 3.9964e-05 0.000274195 )  
( 3.80726e-05 -0.000230138 -4.92454e-05 )  
( 8.38223e-05 7.74686e-05 -7.72736e-05 )  
( -0.000940668 -0.000337934 0.00675776 )  
( -2.7368e-05 0.00111189 0.00412629 )  
( -2.5438e-05 9.15617e-05 0.0039839 )  
( -0.000422776 0.00108568 0.0046468 )  
( 0.000325693 0.00100445 0.00514584 )  
( -0.00703905 -0.00133399 0.0104364 )  
( -3.63352e-05 -0.000637107 0.00882243 )  
( -0.00154777 0.00143772 0.00503055 )  
( 0.000231667 7.66162e-05 1.11319e-05 )  
( 4.92415e-05 6.42878e-06 2.50368e-05 )  
( -0.00209496 -0.00190389 0.00770336 )  
( -0.000221453 -0.000717775 0.00639408 )  
( 0.000774371 -0.000773829 -7.65737e-05 )  
( 0.000278162 -8.76694e-05 -0.000150337 )  
( 0.00189094 0.00300425 0.00993157 )  
( 0.00150052 0.00136004 0.00648994 )  
( 0.000774003 -0.000943936 0.00663516 )  
( 0.00188275 0.00180784 0.00464989 )  
( 0.000288466 9.1023e-05 0.00667983 )  
( 0.000639667 0.00202049 0.00550217 )  
( 0.000295297 5.7122e-05 3.97983e-05 )  
( 0.00186791 -0.000820789 0.00681363 )  
( 0.000360272 -4.51633e-05 3.06597e-05 )  
( -0.00266284 -1.05287e-05 0.00855937 )  
( 3.45096e-05 6.13734e-05 0.00504352 )  
( 4.0918e-05 0.000116699 0.00466815 )  
( -0.000720924 -0.00212755 0.00770044 )  
( 0.00077555 0.000811794 0.00400548 )  
( -0.00222627 0.000751531 0.00613933 )  
( -0.00306737 0.00144515 0.00438811 )  
( -0.00183666 -0.00096433 0.00728893 )  
( 0.000491945 9.4336e-05 -4.62959e-06 )  
( 0.000437853 0.000860852 0.00517213 )  
( -0.00114116 -0.000103725 0.000148292 )  
( -0.00088754 0.00286732 0.00943037 )  
( -2.69198e-06 -0.000823388 0.005418 )  
( 8.51104e-05 8.04856e-05 -4.91242e-05 )  
( 0.000505181 0.00159978 0.00588774 )  
( -0.000229163 0.000964375 0.00582998 )  
( -0.00051482 0.000541288 7.3621e-05 )  
( -0.000950021 -0.000110162 -0.000172584 )  
( 0.000393895 -0.000561525 -6.20122e-05 )  
( 0.000705267 -0.00431992 0.0102929 )  
( -7.70008e-05 8.91438e-07 0.00570531 )  
( 0.000895633 0.00093708 -0.000489403 )  
( 0.00107771 -0.000521994 4.87254e-05 )  
( 0.000122124 0.000793012 0.0059081 )  
( 0.000279874 0.000337164 -3.24745e-05 )  
( 0.000104095 -0.000378471 0.00496338 )  
( 0.000302803 0.000453465 0.00638321 )  
( 8.2707e-05 0.001109 0.00572876 )  
( -0.000359613 0.000457818 0.00708491 )  
( 0.000413299 0.000684957 2.76638e-05 )  
( 0.00105084 0.00099091 0.00710568 )  
( -0.000848932 0.000235938 -0.00114511 )  
( 0.000226087 0.000404413 4.80449e-05 )  
( -0.00173009 0.00147228 0.00537725 )  
( -0.000314055 0.00132035 0.00298698 )  
( -0.000860175 3.21758e-05 0.00627748 )  
( -0.00029719 0.000842414 -0.000534277 )  
( 2.3904e-05 3.08694e-05 9.46002e-06 )  
( 0.0013528 -0.000122598 0.00418214 )  
( 5.01832e-05 0.00104867 0.00776506 )  
( -0.00095835 0.000325401 0.00631058 )  
( 0.000649712 0.000250609 0.000115356 )  
( 6.57515e-05 -9.40969e-05 -4.5313e-06 )  
( 0.000458556 -0.000481758 0.00678494 )  
( -0.0022547 0.00110384 0.00854806 )  
( 0.000132713 -7.57047e-05 0.00619488 )  
( 0.000824191 -0.00089097 0.0060267 )  
( 0.000709139 -0.00301503 0.00530328 )  
( -0.00124275 0.00124105 0.0108238 )  
( 0.00109735 -0.00079404 0.00600658 )  
( -0.000174645 0.000136347 0.00655378 )  
( -0.000635809 0.000297165 0.00423597 )  
( 6.62332e-05 -2.17543e-06 -5.75158e-05 )  
( 0.000871111 0.000260493 0.00642218 )  
( -0.00127149 0.000208057 0.00673938 )  
( 9.66272e-05 0.000555935 0.00489296 )  
( 0.000893895 0.000300298 0.00698669 )  
( -0.000859759 0.000414824 0.00586942 )  
( 0.00103505 0.000154739 0.00549585 )  
( -0.000479822 8.74069e-06 0.0057397 )  
( 0.000291594 -0.00191578 0.0016985 )  
( 6.94323e-05 9.3369e-05 -9.36729e-05 )  
( 0.000574759 -2.94078e-05 0.0061857 )  
( 0.000670424 0.00137004 -0.000760874 )  
( 6.88197e-05 -0.000110194 -1.23908e-05 )  
( -0.000683302 0.000978073 0.00538297 )  
( 0.000202446 0.000405027 -0.000178999 )  
( 0.000983023 0.0012811 0.000209863 )  
( 0.000229626 -0.000216504 0.00895062 )  
( -0.000527003 0.000482047 0.00684892 )  
( 2.53554e-05 -7.13816e-05 -1.55368e-05 )  
( 0.000145058 0.00239805 0.000277156 )  
( -0.000761601 0.0009882 0.00580814 )  
( -0.00110911 0.000908667 0.0107189 )  
( -0.00119594 0.000874971 0.00422021 )  
( 0.000167498 -0.000493944 0.00765 )  
( 0.00176501 0.00318679 0.00595192 )  
( -0.000396793 -0.000708379 0.00620389 )  
( -0.000545527 0.000429042 0.00730237 )  
( -0.000553683 -0.000250475 -4.73839e-05 )  
( 0.000963798 0.00122023 -0.000900609 )  
( -0.000314389 -0.00154649 0.00643442 )  
( -6.57648e-05 0.00138932 0.015101 )  
( -0.00194441 -0.000121384 0.00425576 )  
( 0.000339154 -0.00178971 0.00672325 )  
( 0.000633222 0.00235254 0.0061716 )  
( 0.000502114 0.00194435 0.00572262 )  
( 0.000316873 -9.64503e-05 -0.000142452 )  
( -0.00121152 1.60556e-05 0.00695273 )  
( -0.000315545 -0.000551684 0.00681063 )  
( 0.00041877 0.000760933 -0.000390271 )  
( 8.53191e-05 2.39991e-05 -5.39988e-06 )  
( 0.000941821 0.000338741 0.00626111 )  
( 0.000110673 0.000170288 0.000136287 )  
( -0.000221522 0.000574924 0.00534951 )  
( -0.000531014 -3.90309e-05 0.00673049 )  
( 0.000280713 0.000271557 3.2481e-05 )  
( 0.000198203 8.2977e-05 -9.18664e-06 )  
( -0.00107233 0.000757192 0.0051934 )  
( -2.05077e-06 -9.40375e-05 -9.9558e-05 )  
( -0.00126928 0.000694587 0.00547822 )  
( -0.00109354 -0.000444847 0.00623559 )  
( -0.000150533 -0.000596882 0.0017751 )  
( -0.000724361 -0.000476326 0.00513096 )  
( -0.000283986 1.31574e-05 -4.78381e-05 )  
( 2.66944e-05 0.00103232 -0.0108679 )  
( -0.000114632 -6.06286e-05 0.00654283 )  
( 0.000534635 -0.00139578 0.00669525 )  
( 3.26038e-07 -0.00043404 0.00020137 )  
( 0.000450726 0.000141382 0.000381181 )  
( -0.000482522 0.00255234 0.00874061 )  
( 3.89657e-05 0.000354683 -9.27004e-06 )  
( 4.08503e-05 0.000196326 0.00721766 )  
( -0.000702618 -0.000261387 0.00920715 )  
( -0.00126913 0.000271893 1.39019e-05 )  
( 0.000476179 -0.00054279 0.00573154 )  
( 0.000293012 0.000283818 0.000235112 )  
( -0.00119902 0.002177 0.00683208 )  
( 5.72037e-06 -0.000185495 0.00443185 )  
( -0.000131831 -0.000835432 0.0080643 )  
( -0.000728255 -0.000962379 0.00506055 )  
( -0.00182102 0.00129288 0.00662988 )  
( -0.00012865 0.000534195 0.00691295 )  
( 0.00047806 -0.000278739 0.000190232 )  
( 0.000654571 -7.64964e-05 -0.000103745 )  
( 0.000309594 -0.000232727 0.00454759 )  
( -0.000677475 0.00218114 0.00381211 )  
( -0.000176993 5.00086e-05 0.00485539 )  
( -0.00196397 0.00060486 0.00329095 )  
( -0.00325193 0.0011775 0.0065496 )  
( 6.94556e-05 -0.000147721 -0.000163916 )  
( -0.000221153 -0.000336027 0.00635792 )  
( -0.00205075 0.00118587 0.00584149 )  
( 0.000280304 0.000148805 -0.000316394 )  
( 0.00074177 0.000516199 0.00637726 )  
( -0.00283587 -0.00104934 0.00677823 )  
( 0.00184964 0.000646548 0.000828273 )  
( -0.000677908 0.00116882 0.0044516 )  
( 3.31776e-05 1.42695e-05 3.85322e-05 )  
( 0.000135049 -0.00017502 0.000888837 )  
( 0.00124881 0.000833176 -0.000377367 )  
( 0.00104518 0.00152696 -0.00143692 )  
( -0.000191885 0.00121454 -0.0024017 )  
( -0.000886282 -0.000439102 0.00729381 )  
( 0.000560908 -0.000376925 0.00719369 )  
( -0.00103823 -0.00130602 0.00714571 )  
( 0.000158891 0.00029104 -1.65456e-05 )  
( 0.000359202 0.000106921 -0.000253285 )  
( 0.00304034 -0.000137578 0.00648337 )  
( -0.000788301 -7.10005e-05 0.00690251 )  
( 0.00264443 0.00298408 -0.00148557 )  
( 0.000803728 -5.66087e-05 0.00542632 )  
( 0.000106399 0.000150645 -0.000131105 )  
( 0.000166738 0.000283244 0.00559992 )  
( 0.000315137 8.84119e-05 1.96792e-05 )  
( 0.00106258 0.00070944 0.00689696 )  
( 0.000252391 0.000649155 0.00420313 )  
( 0.000351389 -0.000220312 -0.000799596 )  
( 0.000267746 -0.00015906 0.000173164 )  
( 0.000213246 0.000102371 -0.000110522 )  
( 0.000484387 0.000451301 0.00587079 )  
( 0.000578039 0.000694477 0.000127562 )  
( 8.14294e-05 -0.000149885 -6.10374e-06 )  
( 0.000677972 -0.000166597 0.00661288 )  
( 0.00164171 0.000300375 0.00679861 )  
( 0.000123172 4.19898e-05 -7.12107e-05 )  
( 0.000757657 -0.000454606 0.00758714 )  
( -0.000529313 0.000722858 0.00546854 )  
( -0.00167553 5.49636e-05 0.00533096 )  
( -5.98014e-05 -0.000139792 0.00733775 )  
( 8.63094e-05 -0.00225433 0.0056113 )  
( 9.77367e-05 -0.000222923 0.00302048 )  
( -0.000103361 0.000275149 0.00013515 )  
( 0.000598144 0.00178161 0.00669665 )  
( -0.000109319 0.000545481 0.00591702 )  
( 0.000294953 0.00092023 0.00142741 )  
( -0.00155591 -0.00271694 0.00462842 )  
( 0.000304938 0.000569597 0.00536163 )  
( 0.000151427 -0.000381949 0.00410143 )  
( -0.00242351 -0.000891797 0.00437397 )  
( -0.00337605 -0.00260486 0.00730189 )  
( 0.000785997 0.000231286 0.00657614 )  
( 9.99885e-05 -6.65894e-05 1.60897e-05 )  
( -0.0016254 -0.000197035 0.00301707 )  
( -0.000644972 0.00117625 0.00649441 )  
( -0.000236722 0.000385681 0.00516158 )  
( -0.000974147 0.000395524 0.00246085 )  
( -0.00062772 0.00101701 0.00778297 )  
( -0.000607299 0.0003587 0.00624098 )  
( -0.000236757 0.000144012 0.0049974 )  
( -0.000777558 -0.00115143 0.00761801 )  
( 0.00411203 0.000976937 0.004993 )  
( 0.000720156 0.000748598 0.00118072 )  
( 0.000467219 -0.00154183 0.00697862 )  
( 0.00229631 0.00057547 0.00834037 )  
( 0.000194199 0.000217932 -0.000123849 )  
( 0.000718384 -0.000666535 3.81993e-05 )  
( 6.25418e-05 -7.8674e-05 -7.84546e-05 )  
( -0.00247174 0.000519923 0.00524597 )  
( 0.000123269 -0.00127199 0.00462818 )  
( -3.55758e-05 -0.000957807 0.00353793 )  
( -3.33673e-05 0.000301399 -0.000138611 )  
( -0.00158378 0.00254964 0.0118331 )  
( 0.000556816 0.000952145 -0.00022872 )  
( 0.00124587 0.000407882 0.00643317 )  
( -0.000241679 0.00140205 3.34638e-05 )  
( 0.000379032 -4.76145e-05 0.00661186 )  
( -0.00125999 -0.0014321 0.00853678 )  
( -0.000109491 -0.000224446 2.28311e-05 )  
( -0.000444972 0.00048227 0.0054925 )  
( -0.000169435 -0.000100297 0.00513138 )  
( 0.000411661 -4.98258e-05 -7.19363e-06 )  
( 0.000489258 -0.00112754 0.0083046 )  
( 0.000887853 -0.000605204 0.00671367 )  
( 0.000233181 0.00016196 -0.000113452 )  
( -0.00030215 -0.00130941 0.00747104 )  
( -0.00188611 -0.0020242 0.00713886 )  
( -0.000260236 -0.000232589 0.00593035 )  
( 3.79015e-05 4.9408e-05 3.85916e-05 )  
( -0.00135476 -0.00347163 0.00573484 )  
( 0.000236712 -0.000176354 0.00450332 )  
( 0.000111579 0.000102332 -1.32111e-05 )  
( 0.000353221 0.000475371 0.00595212 )  
( 0.000708244 -0.000583658 0.00646082 )  
( -0.000231656 0.000491506 0.00587781 )  
( -0.000592123 0.00026031 0.00568753 )  
( -1.7134e-05 0.000585124 0.00576322 )  
( 0.00013959 -0.001485 0.00700512 )  
( -0.00182077 -0.00136033 0.00759802 )  
( -0.000723381 -0.00164147 -0.000484021 )  
( -0.00263905 -0.000596172 0.00548279 )  
( 0.000260078 -0.000108247 1.31358e-05 )  
( -0.000316368 0.00154094 0.00521062 )  
( -0.000113515 0.00120164 0.00355766 )  
( 0.00016731 -0.000164404 0.000335995 )  
( 3.83928e-05 -0.000371719 0.0058233 )  
( -0.00181598 0.00109407 0.00738094 )  
( -1.75977e-05 -0.000108523 2.21126e-05 )  
( -0.000291634 -3.45845e-05 -0.000148884 )  
( -0.00157614 -0.0012863 0.00773311 )  
( -0.000571624 -0.000458371 0.00428961 )  
( -9.43737e-05 0.000142534 -5.49058e-06 )  
( 0.000172098 0.00029018 -4.45378e-05 )  
( 0.000431389 -0.000915951 0.00511757 )  
( -0.000807965 0.000241268 0.0072242 )  
( -0.000369069 0.000143249 0.00600515 )  
( -0.000594943 -6.9511e-06 0.00419225 )  
( 0.000865132 -0.00138255 0.00892883 )  
( 0.000726993 -0.00060715 0.0064662 )  
( 0.000594426 9.52933e-06 -9.51709e-06 )  
( 0.000679578 0.00127548 -0.00202612 )  
( -0.00144421 0.000785706 0.0042493 )  
( -0.00152064 -0.00198182 0.00380414 )  
( 0.000342547 -0.000207012 -2.29186e-05 )  
( 0.00014569 -0.000205578 -0.000545493 )  
( 5.27534e-05 -0.00136664 0.00787023 )  
( 0.000200988 0.00092738 0.00672228 )  
( 0.00386481 -0.00207524 -0.0017493 )  
( 0.000520321 -0.000702495 0.000415043 )  
( -0.000526802 0.000200337 0.00555728 )  
( -0.00134025 9.02816e-06 0.00415008 )  
( -0.000195602 4.1776e-05 6.51296e-05 )  
( 0.00183547 -0.00161803 0.00442377 )  
( 0.000829373 7.80575e-05 -0.000173095 )  
( 0.00241469 -0.000795294 0.00866633 )  
( -0.000114337 0.000100679 -0.000144806 )  
( -0.000223832 -0.000142254 0.000439609 )  
( 0.000193814 0.000663365 -0.000171631 )  
( -0.00153992 0.000292674 0.00529274 )  
( -0.000510181 0.000208987 0.00615624 )  
( -0.000690575 -0.000283843 0.00578303 )  
( 6.10774e-05 -0.00032946 0.00686932 )  
( 0.000100255 0.000225696 0.00369473 )  
( 0.000574029 -0.000400602 0.00615595 )  
( 0.000464919 -0.000610836 0.00701078 )  
( -0.00197705 0.00109979 0.00744892 )  
( -0.00274817 -0.000154821 0.00740424 )  
( 0.000234788 0.000589106 0.00445994 )  
( 0.000223071 0.000120619 -2.3428e-05 )  
( -0.000682224 -0.0010289 0.0071527 )  
( -0.00135167 -0.00160052 0.0131899 )  
( -0.00105782 0.00215699 0.00419181 )  
( -0.00170962 -0.000559664 0.0017747 )  
( 0.00180009 0.00327096 0.00834855 )  
( 0.000733852 -0.00170818 0.00555569 )  
( 0.000528168 0.00012779 -0.000468446 )  
( -0.000986583 -0.00167345 0.00770112 )  
( -0.000590046 -5.90956e-05 0.00594942 )  
( -0.000520467 0.000808599 0.00380158 )  
( -0.000386736 -0.00165488 0.00684902 )  
( -4.55841e-05 -0.000146491 0.00730734 )  
( 0.000408638 -0.000568947 -8.4039e-05 )  
( 0.000327596 -0.000332817 0.00744414 )  
( -3.02135e-05 0.000292761 0.00564987 )  
( -0.000635594 -0.000148176 0.00584635 )  
( -0.000736023 -0.00124936 0.00783274 )  
( -0.000426385 -0.000359652 0.00583995 )  
( -0.00208683 0.00253962 0.00900323 )  
( 0.00128267 0.000190031 0.00475766 )  
( 0.000139122 -0.000459726 -0.000203936 )  
( -0.00351074 0.00033247 -0.0025898 )  
( 0.000139602 0.000114565 9.59524e-06 )  
( 0.000219619 -0.000296044 -0.000248003 )  
( 8.57412e-05 3.36657e-05 -7.18561e-06 )  
( -0.000629633 0.00181904 -0.00110509 )  
( -0.00134047 -0.000291252 0.00540478 )  
( 0.00159617 0.000921054 0.00433224 )  
( 0.0003607 0.000446319 -2.70974e-05 )  
( 0.000617215 -0.000178046 -0.000141399 )  
( -0.000465291 -0.000598795 0.00615759 )  
( 0.000135866 -4.88328e-05 -5.60601e-05 )  
( -0.00501652 -0.00255653 0.00632653 )  
( 0.00204205 -0.00121864 0.00861157 )  
( -0.00294828 0.00378034 0.00636728 )  
( 0.000233243 -0.000176468 0.00513606 )  
( 0.000427137 0.000172594 0.00520167 )  
( 0.000475904 0.00108807 0.00661317 )  
( -0.00120696 0.00267913 0.00515996 )  
( 0.000143048 0.00142114 0.007746 )  
( -0.00010059 0.000297483 0.00555668 )  
( -0.00152228 0.00136015 0.0118431 )  
( 0.000175675 -0.000111741 0.00853674 )  
( 0.000271243 7.95504e-05 2.68645e-05 )  
( -0.00205962 0.000554965 -0.000479462 )  
( 0.000743325 0.000386105 -0.000712072 )  
( -0.000372178 -0.000731037 -0.000813094 )  
( 5.22625e-05 9.409e-05 4.3252e-05 )  
( -0.000664473 -0.000938122 0.00443408 )  
( 0.000421563 5.80495e-05 0.00402015 )  
( 0.000381084 -0.000244431 1.63268e-05 )  
( -0.000712059 0.000274297 0.00649135 )  
( 7.40577e-06 0.000497454 0.00647567 )  
( 0.000325025 0.000834186 0.00488771 )  
( -0.0001845 0.00014882 0.00390455 )  
( 0.000428281 0.000904792 0.00328338 )  
( -0.00248 -0.00115687 0.00776622 )  
( 0.000373423 -0.00105438 0.00462266 )  
( -5.79199e-05 -0.000114802 8.75212e-06 )  
( 1.86483e-05 -7.04545e-05 -6.27796e-06 )  
( -0.000721644 0.000517499 0.00553324 )  
( -0.000718638 -0.000689179 0.00621909 )  
( 0.00392855 -0.000426089 0.00657366 )  
( -0.000985786 0.00220154 0.00598911 )  
( -0.0008393 0.00154719 0.0017576 )  
( 0.000160395 0.00010648 -1.5809e-05 )  
( 0.00021385 -3.75173e-05 0.00325125 )  
( 0.000497227 -0.000542915 0.00737566 )  
( 0.000646698 0.000993535 -2.2378e-07 )  
( -0.00470186 0.000271722 0.00602068 )  
( 0.000240724 3.15207e-05 -6.22016e-05 )  
( 0.00179137 -0.000395327 0.00507289 )  
( 0.000120579 -0.000627743 -1.41929e-06 )  
( -0.000401492 2.3198e-05 0.000106061 )  