FoamFile
{version 2.0; format ascii;class Cloud<passiveParticle>; location 0;object  positions;}
2494
(
( -0.0108886 -0.00401684 0.000499735 ) 0 
( -0.00506352 -0.00115588 0.000991915 ) 0 
( -0.00678261 -0.00689738 0.00296709 ) 0 
( -0.000984535 -0.00187675 0.0028098 ) 0 
( -0.0130655 -0.00247246 0.000499769 ) 0 
( -0.00938419 -0.00445187 0.000499805 ) 0 
( -0.00304046 -0.00786752 0.00119598 ) 0 
( -0.00011087 -0.00570608 0.00458922 ) 0 
( -0.00877161 -0.00183597 0.00538987 ) 0 
( -0.00936498 -0.00378712 0.00149905 ) 0 
( -0.00915289 -0.00626916 0.00271982 ) 0 
( -0.00625795 -0.00313411 0.00271643 ) 0 
( -0.0106479 -0.00700614 0.00327069 ) 0 
( -0.00904461 -0.00166888 0.00644851 ) 0 
( -0.00388957 -0.004615 0.00464514 ) 0 
( -0.00229924 -0.00784417 0.00674445 ) 0 
( -0.00221538 -0.00582493 0.00720049 ) 0 
( -0.00536967 -0.00776048 0.00721856 ) 0 
( -0.00256414 -0.0085603 0.00173724 ) 0 
( -0.00915124 -0.00239864 0.00392916 ) 0 
( -0.00213064 -0.00249027 0.000499712 ) 0 
( -0.00429472 -0.00831362 0.00470575 ) 0 
( -0.00417785 -0.000708107 0.000872258 ) 0 
( -0.00131318 -0.00783927 0.000499794 ) 0 
( -0.000532346 -0.00210166 0.00125669 ) 0 
( -0.0097445 -0.00786507 0.0051786 ) 0 
( -0.00867387 -0.00528217 0.00049962 ) 0 
( -0.00945183 -0.00707182 0.00674747 ) 0 
( -0.00984224 -0.00465532 0.0013653 ) 0 
( -0.013129 -0.00241806 0.0024774 ) 0 
( -0.00597486 -0.00187759 0.000499768 ) 0 
( -0.00407473 -0.0118842 0.0053569 ) 0 
( -0.00206877 -0.0115135 0.00284659 ) 0 
( -0.0022737 -0.00678051 0.00445654 ) 0 
( -0.000710042 -0.0130361 0.00471147 ) 0 
( -0.00131804 -0.00633393 0.00688668 ) 0 
( -0.00506684 -0.00987902 0.00269501 ) 0 
( -0.00663856 -0.000367635 0.00651391 ) 0 
( -0.00336348 -0.00473174 0.00698736 ) 0 
( -0.00405243 -0.00639755 0.000499686 ) 0 
( -0.010152 -0.00179754 0.00304961 ) 0 
( -0.0116451 -0.00115232 0.00078946 ) 0 
( -0.000801006 -0.00963721 0.00229849 ) 0 
( -0.00780121 -0.0034868 0.00207114 ) 0 
( -0.00107932 -0.00323273 0.00534222 ) 0 
( -0.00135806 -0.0082858 0.00364472 ) 0 
( -0.00838813 -0.00200394 0.00444074 ) 0 
( -0.00124929 -0.00233461 0.00381115 ) 0 
( -0.00681041 -0.00961404 0.0048769 ) 0 
( -0.000796161 -0.00383467 0.00279115 ) 0 
( -0.00728918 -0.00465383 0.000499753 ) 0 
( -0.00464178 -0.00637943 0.00580489 ) 0 
( -0.00132148 -0.0101255 0.00158816 ) 0 
( -0.00667373 -0.00106281 0.000499564 ) 0 
( -0.0112222 -0.00376084 0.00629205 ) 0 
( -0.00401448 -0.00568956 0.0012422 ) 0 
( -0.0120952 -0.0056378 0.0059736 ) 0 
( -0.00209587 -0.0107099 0.00185349 ) 0 
( -0.00621933 -0.00935222 0.00125515 ) 0 
( -0.00325118 -0.000752525 0.000499649 ) 0 
( -2.09545e-05 -0.0118539 0.00492385 ) 0 
( -0.00455842 -0.0100426 0.00109229 ) 0 
( -0.00218019 -0.00974049 0.00450335 ) 0 
( -0.00915249 -0.00564855 0.00354205 ) 0 
( -0.00613934 -0.0118379 0.00507174 ) 0 
( -0.00291987 -0.00388542 0.00294849 ) 0 
( -0.00444342 -0.0125891 0.00596242 ) 0 
( -0.00871774 -0.00666519 0.00354158 ) 0 
( -0.000673703 -0.0119415 0.00168008 ) 0 
( -0.00764232 -0.00497128 0.00441645 ) 0 
( -0.00559583 -0.00220427 0.00738849 ) 0 
( -0.00727477 -0.011184 0.00375616 ) 0 
( -0.0121917 -0.00267827 0.00221244 ) 0 
( -0.00683456 -0.0109655 0.00226828 ) 0 
( -0.00333627 -0.00655571 0.00281835 ) 0 
( -0.00533039 -0.00155264 0.00333434 ) 0 
( -0.00554947 -0.00289873 0.00196164 ) 0 
( -0.0117366 -0.00636226 0.00221176 ) 0 
( -0.00257306 -0.00496399 0.000499786 ) 0 
( -0.00289026 -0.00335878 0.0020963 ) 0 
( -0.00218194 -0.0123442 0.00537541 ) 0 
( -0.00821514 -0.00156425 0.00355923 ) 0 
( -0.0125466 -0.0045514 0.00214609 ) 0 
( -0.00301353 -0.00622538 0.00407655 ) 0 
( -0.00492752 -0.00128897 0.00518032 ) 0 
( -0.00486111 -0.00863814 0.00655926 ) 0 
( -0.00852152 -0.003017 0.0025814 ) 0 
( -0.0103795 -0.00485844 0.00333531 ) 0 
( -0.000126976 -0.00321592 0.00320363 ) 0 
( -0.00953236 -0.00267578 0.000499756 ) 0 
( -0.00427214 -0.0051481 0.00701973 ) 0 
( -0.00451334 -0.00952003 0.00194357 ) 0 
( -0.0019045 -0.000389454 0.00739111 ) 0 
( -0.00141741 -0.00937447 0.00681822 ) 0 
( -0.0124289 -0.00170136 0.000499636 ) 0 
( -0.00466279 -0.010507 0.00462528 ) 0 
( -0.00290952 -0.0130291 0.00291701 ) 0 
( -0.000253241 -0.0019971 0.00817449 ) 0 
( -0.00478589 -0.00164691 0.00756883 ) 0 
( -0.00495883 -0.00577176 0.0077057 ) 0 
( -0.00385275 -0.00265843 0.00721565 ) 0 
( -0.0105612 -0.00474885 0.00669572 ) 0 
( -0.0112063 -0.00556484 0.00183387 ) 0 
( -0.00259552 -0.00422582 0.0044402 ) 0 
( -0.00280816 -0.0130514 0.00687769 ) 0 
( -0.00975695 -0.00666534 0.00357025 ) 0 
( -0.00751672 -0.00512279 0.00608529 ) 0 
( -0.0020253 -0.00353574 0.00399463 ) 0 
( -0.00672285 -0.00582575 0.005963 ) 0 
( -0.00667893 -0.00655559 0.00664486 ) 0 
( -0.00150926 -0.0017663 0.00530677 ) 0 
( -0.00939968 -0.00552442 0.00114298 ) 0 
( -0.00704248 -0.010485 0.0012842 ) 0 
( -0.00992746 -0.000818253 0.00301252 ) 0 
( -0.0094905 -0.00496908 0.00531051 ) 0 
( -0.00245791 -0.0113817 0.00703182 ) 0 
( -0.0101397 -0.0025196 0.0037834 ) 0 
( -0.00403903 -0.00360012 0.000499799 ) 0 
( -0.00219191 -0.00893963 0.00635915 ) 0 
( -0.00136902 -0.0114482 0.00355794 ) 0 
( -0.00900613 -0.00741903 0.00114265 ) 0 
( -0.00437367 -0.00607066 0.00291234 ) 0 
( -0.0104234 -0.00516167 0.00230756 ) 0 
( -0.00695918 -0.00838466 0.00121098 ) 0 
( -0.00543806 -0.0066151 0.0073458 ) 0 
( -0.0107814 -0.00787247 0.00665714 ) 0 
( -0.0119829 -0.00264646 0.00660948 ) 0 
( -0.00340988 -0.00930976 0.0054783 ) 0 
( -0.00197562 -0.0132031 0.00322893 ) 0 
( -0.00939445 -0.00157411 0.00242833 ) 0 
( -0.00612256 -0.0072432 0.00470424 ) 0 
( -0.00543707 -0.00672137 0.0040255 ) 0 
( -0.00267021 -0.012182 0.00240247 ) 0 
( -0.000966902 -0.005105 0.000499706 ) 0 
( -0.00958846 -0.000669392 0.00204937 ) 0 
( -0.00225209 -0.00609244 0.000499701 ) 0 
( -0.00748721 -0.00449956 0.005304 ) 0 
( -0.00394602 -0.00663634 0.00363038 ) 0 
( -0.0109785 -0.00588794 0.00357501 ) 0 
( -0.0104186 -0.00319404 0.00551525 ) 0 
( -0.00819177 -0.00262971 0.00519559 ) 0 
( -0.0132692 -0.00146699 0.00192331 ) 0 
( -0.00473161 -0.00617601 0.00679121 ) 0 
( -0.00964923 -0.000917979 0.0061843 ) 0 
( -0.00177864 -0.00033176 0.000499755 ) 0 
( -0.00957075 -0.00328623 0.0041462 ) 0 
( -0.000669716 -0.00476879 0.00760866 ) 0 
( -0.00896492 -0.00288087 0.00136365 ) 0 
( -0.00126606 -0.00882933 0.00596388 ) 0 
( -0.00140614 -0.00258756 0.00127137 ) 0 
( -0.00768834 -0.000973828 0.000499742 ) 0 
( -0.00187623 -0.00405516 0.00313452 ) 0 
( -0.00466776 -0.0124889 0.00371296 ) 0 
( -0.00273232 -0.00502216 0.0020566 ) 0 
( -0.00984423 -0.00340837 0.00232821 ) 0 
( -0.00540866 -0.00067711 0.00284581 ) 0 
( -0.0031658 -0.00071724 0.00556401 ) 0 
( -0.00491777 -0.000114345 0.00352365 ) 0 
( -0.00629814 -0.0034736 0.00680998 ) 0 
( -0.0011266 -0.0115569 0.000499813 ) 0 
( -0.0044549 -0.0108221 0.00604651 ) 0 
( -0.00516198 -0.00728397 0.00497953 ) 0 
( -0.00108396 -0.0021013 0.00737914 ) 0 
( -0.00970085 -0.00146887 0.00535151 ) 0 
( -0.0113785 -0.00201326 0.00612504 ) 0 
( -0.00380232 -0.0127934 0.00330059 ) 0 
( -0.00471929 -0.00603713 0.00387518 ) 0 
( -0.00321378 -0.0103845 0.00126925 ) 0 
( -0.00362939 -0.0128472 0.00429194 ) 0 
( -0.0046818 -0.00598981 0.0019236 ) 0 
( -0.0103718 -0.005262 0.00753265 ) 0 
( -0.00572282 -0.00755139 0.00285117 ) 0 
( -0.00491923 -0.0117108 0.00603615 ) 0 
( -0.00577751 -0.0108826 0.000499646 ) 0 
( -0.0112979 -0.00266841 0.00401352 ) 0 
( -0.0103924 -0.00675658 0.0052395 ) 0 
( -0.00934138 -0.00810713 0.000499659 ) 0 
( -0.00199783 -0.00633094 0.00814774 ) 0 
( -0.00298846 -0.00206147 0.00711931 ) 0 
( -0.0103606 -0.00382793 0.00158184 ) 0 
( -0.0062271 -0.0055621 0.0051061 ) 0 
( -0.0100518 -0.00115443 0.00121913 ) 0 
( -0.00319344 -0.00106232 0.00346228 ) 0 
( -0.00556017 -0.0111432 0.0031482 ) 0 
( -0.00695476 -0.00221305 0.00342874 ) 0 
( -0.0115167 -0.00459135 0.00499092 ) 0 
( -0.0133168 -0.000942681 0.00449084 ) 0 
( -0.00176178 -0.0103662 0.00363238 ) 0 
( -0.00621977 -0.0039398 0.00334941 ) 0 
( -0.0109716 -0.00434465 0.00418994 ) 0 
( -0.00800767 -0.00788036 0.00708343 ) 0 
( -0.00320933 -0.00874554 0.000499783 ) 0 
( -0.00785704 -0.00454142 0.00131498 ) 0 
( -0.00668955 -0.0114425 0.00580733 ) 0 
( -0.00605412 -0.00288685 0.000499804 ) 0 
( -4.54076e-05 -0.00636271 0.00295052 ) 0 
( -0.00101998 -0.00581616 0.00593008 ) 0 
( -0.00467961 -0.0116288 0.00309646 ) 0 
( -0.0039066 -0.00166753 0.00709409 ) 0 
( -0.00895775 -0.00914064 0.00467292 ) 0 
( -0.0127431 -0.00397985 0.00134968 ) 0 
( -0.00993247 -0.00891653 0.0046644 ) 0 
( -0.000918941 -0.0013102 0.00846492 ) 0 
( -0.00183073 -0.00478413 0.00411889 ) 0 
( -0.000382299 -0.00254216 0.00553489 ) 0 
( -0.00760105 -0.0109749 0.00470462 ) 0 
( -0.00477555 -0.0110158 0.00116597 ) 0 
( -0.00294515 -0.00300629 0.00744955 ) 0 
( -0.00539246 -0.00771893 0.00407709 ) 0 
( -0.00712413 -0.00144201 0.00515988 ) 0 
( -0.0110487 -0.00563581 0.00614561 ) 0 
( -0.00668626 -0.00617077 0.0018455 ) 0 
( -0.00712761 -0.00795088 0.00415425 ) 0 
( -0.000287469 -0.0133471 0.00691006 ) 0 
( -0.00924127 -0.00963325 0.00656197 ) 0 
( -0.00525157 -0.0103499 0.00644945 ) 0 
( -0.00371715 -0.0128222 0.0052902 ) 0 
( -0.00295678 -0.00274299 0.00545175 ) 0 
( -0.0107409 -0.000966053 0.00588963 ) 0 
( -0.00880306 -0.00342387 0.00487288 ) 0 
( -0.0026726 -0.00247465 0.00250974 ) 0 
( -0.0113754 -0.00485668 0.00342551 ) 0 
( -0.0114414 -0.00208732 0.00049977 ) 0 
( -0.00588113 -0.0119839 0.00603891 ) 0 
( -0.00539701 -0.0112534 0.00191239 ) 0 
( -8.59798e-05 -0.00886649 0.000499544 ) 0 
( -0.0125183 -0.00116293 0.0013373 ) 0 
( -0.0115755 -0.00665078 0.00315552 ) 0 
( -0.00666047 -0.00777364 0.00250109 ) 0 
( -0.00434329 -0.00410804 0.00217006 ) 0 
( -0.0121364 -0.00556163 0.0038413 ) 0 
( -0.0025151 -0.00418749 0.00125072 ) 0 
( -0.00339053 -0.00492526 0.00280314 ) 0 
( -0.00778613 -0.00634743 0.000499573 ) 0 
( -0.00670657 -0.0106002 0.00644569 ) 0 
( -0.00888922 -0.00257409 0.00605394 ) 0 
( -0.00871708 -0.00645525 0.00624021 ) 0 
( -0.00212443 -0.00639009 0.00536493 ) 0 
( -0.000771997 -0.0125202 0.000499512 ) 0 
( -0.00647492 -0.00819495 0.00341052 ) 0 
( -0.00388584 -0.00310622 0.00303194 ) 0 
( -0.00260474 -0.00904829 0.00391476 ) 0 
( -1.1225e-05 -0.0111108 0.000499582 ) 0 
( -0.00310812 -0.00650918 0.000808271 ) 0 
( -0.00584858 -0.0120009 0.00707026 ) 0 
( -0.0053461 -0.0122329 0.00216288 ) 0 
( -0.00218755 -0.00116397 0.00186234 ) 0 
( -0.0010081 -0.00659615 0.00308717 ) 0 
( -0.0043581 -0.0126172 0.00169011 ) 0 
( -0.0102119 -0.00859906 0.00049976 ) 0 
( -0.00436385 -0.00911473 0.00570543 ) 0 
( -0.0107934 -0.00314974 0.000988066 ) 0 
( -0.00397982 -0.00502103 0.00198492 ) 0 
( -0.0018285 -0.00167867 0.00430283 ) 0 
( -0.0085669 -0.00906061 0.00342285 ) 0 
( -0.00733978 -0.0099415 0.000499561 ) 0 
( -0.00066572 -0.0067085 0.00620889 ) 0 
( -0.00694012 -0.00272856 0.00646088 ) 0 
( -0.0050125 -0.00814476 0.0032297 ) 0 
( -0.00617322 -0.00697151 0.00215606 ) 0 
( -0.00251248 -0.000550808 0.00114255 ) 0 
( -0.00528016 -0.00545725 0.00128354 ) 0 
( -0.0095996 -0.00693228 0.00049973 ) 0 
( -0.00293762 -0.00645845 0.00755144 ) 0 
( -0.00740278 -0.0077337 0.0031713 ) 0 
( -0.00107029 -0.000843694 0.00674879 ) 0 
( -0.000157627 -0.0103562 0.00256115 ) 0 
( -0.00329205 -0.00481686 0.00124874 ) 0 
( -0.00990142 -0.00584953 0.00507442 ) 0 
( -0.0029915 -0.00129913 0.00453935 ) 0 
( -0.00390819 -0.00211319 0.00221513 ) 0 
( -0.00566908 -0.000661482 0.00391162 ) 0 
( -0.00757596 -0.00895225 0.00619671 ) 0 
( -0.0076939 -0.00605649 0.00639594 ) 0 
( -0.00152389 -0.0078745 0.00611198 ) 0 
( -0.00749531 -0.0100396 0.00703812 ) 0 
( -0.00643115 -0.00631778 0.00448118 ) 0 
( -0.000665077 -0.0125709 0.00245728 ) 0 
( -0.00018571 -0.0039884 0.00180087 ) 0 
( -0.000254252 -0.00236812 0.00371825 ) 0 
( -0.0090545 -0.00384005 0.00277879 ) 0 
( -0.00991872 -8.31799e-05 0.00570508 ) 0 
( -0.01067 -0.00407221 0.00510639 ) 0 
( -0.0103152 -0.000884184 0.00393925 ) 0 
( -0.010972 -0.00582379 0.000499812 ) 0 
( -0.00356154 -0.00229262 0.00633199 ) 0 
( -0.00120903 -0.0132953 0.0038847 ) 0 
( -0.00817915 -0.00525717 0.00193452 ) 0 
( -0.00546764 -0.00115087 0.0067959 ) 0 
( -0.00456528 -0.0125445 0.00270415 ) 0 
( -0.0129761 -0.00281246 0.00641411 ) 0 
( -0.00323714 -0.00299872 0.000499776 ) 0 
( -0.0051665 -0.00682367 0.00218745 ) 0 
( -0.000287638 -0.00886908 0.0061666 ) 0 
( -0.00473782 -0.0108076 0.00252341 ) 0 
( -0.0101413 -0.00379122 0.00320743 ) 0 
( -0.00463838 -0.00852363 0.00145799 ) 0 
( -0.00209359 -0.0123961 0.00712175 ) 0 
( -0.00260364 -0.00933196 0.00246698 ) 0 
( -0.0118013 -0.0010766 0.00286931 ) 0 
( -0.0030466 -0.0122387 0.000499572 ) 0 
( -0.00420979 -0.009153 0.00720273 ) 0 
( -0.00430985 -0.00172591 0.00138531 ) 0 
( -0.00808622 -0.00142099 0.00658702 ) 0 
( -0.00589813 -0.00533098 0.00359731 ) 0 
( -0.00198634 -0.0132016 0.0016141 ) 0 
( -0.00274048 -0.0104511 0.00407781 ) 0 
( -0.00479912 -0.00191379 0.00660569 ) 0 
( -0.00886089 -0.00998538 0.000499777 ) 0 
( -0.0123922 -0.00496626 0.00529487 ) 0 
( -0.0015527 -0.0092261 0.00508797 ) 0 
( -0.00555619 -0.00748669 0.00154837 ) 0 
( -0.0113434 -0.00703944 0.00482521 ) 0 
( -0.0118325 -0.00378812 0.00550044 ) 0 
( -0.0032238 -0.011255 0.000500373 ) 0 
( -0.0075723 -0.00992776 0.00215802 ) 0 
( -0.00301596 -0.00974845 0.00332959 ) 0 
( -0.00772504 -0.00671024 0.00325667 ) 0 
( -0.0100539 -0.00732679 0.00439481 ) 0 
( -0.00248687 -0.00599678 0.00216213 ) 0 
( -0.0101595 -0.00866072 0.00298906 ) 0 
( -0.00856761 -0.00941262 0.00584877 ) 0 
( -0.0106076 -0.000975119 0.00203076 ) 0 
( -0.00580543 -0.00833273 0.00643779 ) 0 
( -0.0115154 -0.00481869 0.00242763 ) 0 
( -0.00652204 -0.00748881 0.0012898 ) 0 
( -0.00767529 -0.00349427 0.00683696 ) 0 
( -0.00799371 -0.00260052 0.00335581 ) 0 
( -0.00259302 -0.00596089 0.00319375 ) 0 
( -0.00163118 -0.00583228 0.00343525 ) 0 
( -0.00974683 -0.00440359 0.00232828 ) 0 
( -0.00822764 -0.00738275 0.00270971 ) 0 
( -0.00303347 -0.0095063 0.00639561 ) 0 
( -0.00320944 -0.00963381 0.00445452 ) 0 
( -0.00125275 -0.00197063 0.000499724 ) 0 
( -0.00686811 -0.00370682 0.000761235 ) 0 
( -0.00596382 -0.00232471 0.00323737 ) 0 
( -0.0016577 -0.00499734 0.0060533 ) 0 
( -0.0069556 -0.00421067 0.00409851 ) 0 
( -0.00148714 -0.00353512 0.000917163 ) 0 
( -0.0028131 -0.0130484 0.00492814 ) 0 
( -0.0013676 -0.0132798 0.00239573 ) 0 
( -0.00108428 -0.00881256 0.000499551 ) 0 
( -0.0106028 -0.00641988 0.00154 ) 0 
( -0.00620074 -0.00182269 0.00669028 ) 0 
( -0.0121649 -0.00304817 0.00488713 ) 0 
( -0.0113661 -0.00293735 0.00574387 ) 0 
( -0.0106877 -0.000159982 0.00452827 ) 0 
( -0.000833236 -0.00219932 0.00471097 ) 0 
( -0.000583605 -0.0108247 0.00344441 ) 0 
( -0.00943164 -0.00330937 0.00564823 ) 0 
( -0.00488559 -0.0113596 0.00509792 ) 0 
( -0.00681109 -0.00907164 0.000499704 ) 0 
( -0.000798777 -0.00294213 0.000499773 ) 0 
( -0.00621081 -0.00727782 0.0037088 ) 0 
( -0.0115472 -0.00631983 0.00548876 ) 0 
( -8.99484e-05 -0.00558642 0.000499741 ) 0 
( -0.000199771 -0.00752593 0.00182108 ) 0 
( -0.00184044 -0.00777272 0.0028951 ) 0 
( -0.00326634 -0.00507636 0.00527658 ) 0 
( -0.00274555 -0.00525765 0.00613167 ) 0 
( -0.000696301 -0.00585866 0.0037892 ) 0 
( -0.00639103 -0.00328017 0.0058333 ) 0 
( -0.00602566 -0.0100875 0.00587377 ) 0 
( -0.00220779 -0.0114577 0.000499752 ) 0 
( -0.00179229 -0.00740728 0.00384388 ) 0 
( -0.00572673 -0.00938521 0.0021247 ) 0 
( -0.00900563 -0.00623071 0.00530827 ) 0 
( -0.00858141 -0.00189813 0.00731256 ) 0 
( -0.000698309 -0.0100745 0.00634355 ) 0 
( -0.00775826 -0.00282285 0.00430187 ) 0 
( -0.00475227 -0.0112477 0.00690644 ) 0 
( -0.00754978 -0.00732868 0.00482391 ) 0 
( -0.00420924 -0.0116668 0.00439025 ) 0 
( -0.00935945 -0.00148509 0.00357999 ) 0 
( -0.0020523 -0.00132572 0.000499776 ) 0 
( -0.00922946 -0.00747099 0.00383908 ) 0 
( -0.0114236 -0.00206841 0.00242545 ) 0 
( -0.00605238 -0.00983265 0.00684094 ) 0 
( -0.0122981 -0.00167662 0.00632622 ) 0 
( -0.00402956 -0.00822005 0.000725221 ) 0 
( -0.00462675 -0.00543383 0.00612954 ) 0 
( -0.00553882 -0.00580117 0.00440323 ) 0 
( -0.00827562 -0.00674913 0.00127328 ) 0 
( -0.00292543 -0.0130179 0.0019165 ) 0 
( -0.00765535 -0.000681968 0.00222325 ) 0 
( -0.00734062 -0.00339636 0.00358299 ) 0 
( -0.0114959 -0.00106664 0.00475315 ) 0 
( -0.00530699 -0.00114611 0.00196163 ) 0 
( -0.00389332 -0.00309147 0.00200862 ) 0 
( -0.00168388 -0.0082252 0.00743422 ) 0 
( -0.0046797 -0.00561412 0.000499665 ) 0 
( -0.0108957 -3.92483e-05 0.00549877 ) 0 
( -0.000253861 -0.00430251 0.00567605 ) 0 
( -0.00237279 -0.00486431 0.00697193 ) 0 
( -0.00308878 -0.00605633 0.0051128 ) 0 
( -0.00236211 -0.00927678 0.000499794 ) 0 
( -0.00477303 -0.00380067 0.00566231 ) 0 
( -0.00861765 -0.000436503 0.00210513 ) 0 
( -0.0048857 -0.00643376 0.00105094 ) 0 
( -0.00591798 -0.0100876 0.00487966 ) 0 
( -0.00229261 -0.0103224 0.00275819 ) 0 
( -0.0105 -0.00106707 0.00490478 ) 0 
( -0.0076573 -0.00903879 0.0026078 ) 0 
( -0.0100255 -0.00764176 0.00106103 ) 0 
( -0.0013553 -0.00320483 0.00333017 ) 0 
( -0.00679801 -0.0104806 0.00537539 ) 0 
( -0.00295439 -0.00832403 0.00616077 ) 0 
( -0.00290718 -0.000601446 0.00227755 ) 0 
( -0.00141868 -0.0124591 0.00125931 ) 0 
( -0.00328656 -0.00143962 0.0078821 ) 0 
( -0.00656276 -0.00607686 0.00350695 ) 0 
( -0.00153053 -0.0039538 0.00475659 ) 0 
( -0.0103908 -0.00254847 0.00475194 ) 0 
( -0.00377793 -0.0074454 0.0030474 ) 0 
( -0.00823736 -0.0105052 0.00380939 ) 0 
( -0.00231248 -0.000885758 0.00393287 ) 0 
( -0.0021508 -0.00329375 0.00801513 ) 0 
( -0.000101528 -0.00342331 0.0041892 ) 0 
( -0.0104735 -0.0023381 0.000499677 ) 0 
( -0.00407057 -0.0034798 0.00443962 ) 0 
( -0.00182926 -0.00148461 0.00663576 ) 0 
( -0.00100566 -0.00730646 0.00462272 ) 0 
( -0.00569645 -0.00374344 0.00528324 ) 0 
( -0.00040388 -0.00339243 0.00606178 ) 0 
( -0.00372249 -0.0067646 0.00572494 ) 0 
( -0.00680404 -0.00889656 0.00418061 ) 0 
( -0.0124912 -0.00471103 0.00430701 ) 0 
( -0.00238422 -0.0122661 0.00143255 ) 0 
( -0.00223515 -0.00336917 0.00515784 ) 0 
( -0.00130857 -0.00661096 0.00142429 ) 0 
( -0.0125485 -0.00455591 0.000499821 ) 0 
( -0.00128514 -0.00821968 0.00514462 ) 0 
( -0.00995921 -0.00278103 0.00139779 ) 0 
( -0.00317097 -0.0102523 0.00228539 ) 0 
( -0.00384676 -0.00194364 0.00324301 ) 0 
( -0.00657053 -0.0116212 0.00308885 ) 0 
( -0.0113616 -0.00489769 0.000499689 ) 0 
( -0.00046814 -0.00834689 0.00233262 ) 0 
( -0.00419465 -0.00566299 0.00524829 ) 0 
( -0.00855369 -0.00748739 0.0063438 ) 0 
( -0.000685382 -0.00889495 0.0047157 ) 0 
( -0.00699372 -0.00413128 0.00647751 ) 0 
( -0.00437805 -0.00985194 0.00639122 ) 0 
( -0.00756841 -3.04267e-05 0.00636778 ) 0 
( -0.0082488 -0.0093854 0.00679612 ) 0 
( -0.011539 -0.00401994 0.00182542 ) 0 
( -0.0017904 -0.00712761 0.00213203 ) 0 
( -0.0098196 -0.00238657 0.00573972 ) 0 
( -0.00802033 -0.00832691 0.00441524 ) 0 
( -0.00163479 -0.00927238 0.00379533 ) 0 
( -0.0104436 -0.00380923 0.00701637 ) 0 
( -0.0039954 -0.011091 0.00359951 ) 0 
( -0.000676289 -0.000825185 0.00311865 ) 0 
( -0.00586435 -0.0065702 0.00129386 ) 0 
( -0.00612667 -0.0046292 0.00446999 ) 0 
( -0.0095396 -0.00445651 0.006535 ) 0 
( -0.00756211 -0.00811541 0.00223624 ) 0 
( -0.00514942 -0.0116604 0.000499611 ) 0 
( -0.00381622 -0.0048504 0.00608044 ) 0 
( -0.00703368 -0.000772685 0.00138601 ) 0 
( -0.00837892 -0.0103926 0.00578587 ) 0 
( -0.00643403 -0.00173215 0.00766106 ) 0 
( -0.00270873 -0.0113234 0.00135461 ) 0 
( -0.00518066 -0.00801651 0.000788242 ) 0 
( -0.00355883 -0.0114418 0.00722743 ) 0 
( -0.000342916 -0.00839106 0.00134063 ) 0 
( -0.0117136 -0.00113031 0.00572681 ) 0 
( -0.00326132 -0.000555687 0.00741552 ) 0 
( -0.0107137 -0.00422704 0.00251264 ) 0 
( -0.0108781 -0.00565338 0.00516048 ) 0 
( -0.00739709 -0.00701804 0.0021248 ) 0 
( -0.0133485 -0.000204217 0.000551817 ) 0 
( -0.00725988 -0.000325993 0.00399109 ) 0 
( -0.00884903 -0.00539604 0.00467277 ) 0 
( -0.00499291 -0.00494361 0.00209198 ) 0 
( -0.00498405 -0.00878099 0.00242526 ) 0 
( -0.00719242 -0.00180614 0.00681513 ) 0 
( -0.01289 -0.00347445 0.000499703 ) 0 
( -0.00681269 -0.000837935 0.00789867 ) 0 
( -0.00140057 -0.0123858 0.0031969 ) 0 
( -0.00811862 -0.00736311 0.000499795 ) 0 
( -0.00332306 -0.00170447 0.0055595 ) 0 
( -0.00057167 -0.00663898 0.00210127 ) 0 
( -0.0115056 -0.00499014 0.0069184 ) 0 
( -0.00922484 -0.000559713 0.00393408 ) 0 
( -0.00276808 -0.000342697 0.00472648 ) 0 
( -0.0123981 -0.000682387 0.00630433 ) 0 
( -0.00341477 -0.00865139 0.00348312 ) 0 
( -0.00219433 -0.000210604 0.00561536 ) 0 
( -0.0070432 -0.00413436 0.00172919 ) 0 
( -0.0078963 -0.0086476 0.00144018 ) 0 
( -0.00222023 -0.000459605 0.00301482 ) 0 
( -0.00024483 -0.00910985 0.00384414 ) 0 
( -0.00759447 -0.000905585 0.0058858 ) 0 
( -0.00449345 -0.0125701 0.00471267 ) 0 
( -0.00641712 -0.0107097 0.00347041 ) 0 
( -0.000436277 -0.00600732 0.00133802 ) 0 
( -0.00605574 -0.00417286 0.00613373 ) 0 
( -0.00416444 -0.0080463 0.00375103 ) 0 
( -0.00208094 -0.00760768 0.00130446 ) 0 
( -0.00770414 -0.00258898 0.00725997 ) 0 
( -0.00719347 -0.00647828 0.00531411 ) 0 
( -0.000564045 -0.00122126 0.00218248 ) 0 
( -0.00928416 -0.00834516 0.00335689 ) 0 
( -0.00271388 -0.0130716 0.000940727 ) 0 
( -0.0121753 -0.00547606 0.0020641 ) 0 
( -0.00228306 -0.00414419 0.0022223 ) 0 
( -0.00335791 -0.00424205 0.00206428 ) 0 
( -0.00461141 -0.00150678 0.00259664 ) 0 
( -0.00765964 -0.00462258 0.0034135 ) 0 
( -0.0055407 -0.00320255 0.00740439 ) 0 
( -0.00643121 -0.00029977 0.00553803 ) 0 
( -0.00717883 -0.00674171 0.00118892 ) 0 
( -0.00386653 -0.00158882 0.000499724 ) 0 
( -0.00268349 -0.00199983 0.00389584 ) 0 
( -0.00653754 -0.00268428 0.00737485 ) 0 
( -0.00342811 -0.00361058 0.00129183 ) 0 
( -0.00314795 -0.00882156 0.00711514 ) 0 
( -0.00239555 -0.00353857 0.00049962 ) 0 
( -0.00526383 -0.00523671 0.00691821 ) 0 
( -0.00694589 -0.00138483 0.00217173 ) 0 
( -0.00455553 -0.00473902 0.00538223 ) 0 
( -0.013212 -0.00191087 0.0047307 ) 0 
( -0.00457456 -0.000190906 0.00257035 ) 0 
( -0.0108794 -0.00181021 0.00138033 ) 0 
( -0.00395335 -0.0077558 0.00211281 ) 0 
( -0.00302509 -0.00705342 0.00506933 ) 0 
( -0.000947661 -0.00450219 0.00140671 ) 0 
( -0.0121726 -0.00548254 0.000499676 ) 0 
( -0.00701553 -0.00742415 0.00628164 ) 0 
( -0.00415308 -0.00397581 0.00642772 ) 0 
( -0.00560931 -0.00601916 0.000499586 ) 0 
( -0.00675674 -0.00838249 0.00613403 ) 0 
( -0.00136376 -0.00017778 0.00344713 ) 0 
( -0.00580798 -0.00770552 0.00561571 ) 0 
( -0.00599111 -0.000444847 0.00727194 ) 0 
( -0.00575108 -0.00649407 0.00292939 ) 0 
( -0.0123975 -0.00495255 0.00305164 ) 0 
( -0.0101998 -0.00861318 0.00151078 ) 0 
( -0.00375382 -0.0056053 0.00435265 ) 0 
( -0.00380186 -0.00653069 0.00669381 ) 0 
( -0.00404919 -0.00856229 0.00270477 ) 0 
( -0.0120559 -0.00360778 0.00258244 ) 0 
( -0.00196402 -0.00593086 0.00623851 ) 0 
( -0.00787478 -0.000499458 0.00318815 ) 0 
( -0.000900134 -0.00984827 0.00343679 ) 0 
( -0.00464325 -0.0026018 0.00353845 ) 0 
( -0.0101578 -0.00571028 0.00411806 ) 0 
( -0.00802814 -0.0106666 0.000499816 ) 0 
( -0.0100407 -0.00669269 0.00253841 ) 0 
( -0.00242206 -0.00945828 0.00553502 ) 0 
( -0.000449867 -0.00526624 0.00676003 ) 0 
( -0.00786212 -0.00907639 0.00521515 ) 0 
( -0.00199498 -0.00675248 0.00304699 ) 0 
( -0.00374088 -0.00767965 0.0061272 ) 0 
( -0.00114419 -0.00657193 0.0052873 ) 0 
( -0.00844152 -0.0050365 0.00571526 ) 0 
( -0.0025437 -0.00140001 0.00276667 ) 0 
( -0.000805444 -0.00283065 0.00256848 ) 0 
( -0.00929109 -0.0025519 0.00490729 ) 0 
( -0.00294182 -0.000133906 0.00373634 ) 0 
( -0.00458037 -0.00727407 0.00149863 ) 0 
( -0.00506324 -0.00302149 0.000499796 ) 0 
( -0.00374249 -0.012815 0.000927374 ) 0 
( -0.0131195 -0.00151052 0.0029252 ) 0 
( -0.00705685 -0.00383467 0.00268319 ) 0 
( -0.00881922 -0.00215199 0.00300722 ) 0 
( -0.0109075 -0.00463215 0.00134983 ) 0 
( -0.0036306 -0.0109998 0.00521417 ) 0 
( -0.00675438 -0.00907893 0.00303584 ) 0 
( -0.00283504 -0.00520586 0.00438382 ) 0 
( -0.00989819 -0.00755337 0.00204885 ) 0 
( -5.73684e-05 -0.000156443 0.00485694 ) 0 
( -0.00782254 -0.00693732 0.00594104 ) 0 
( -0.00706429 -0.0111043 0.000499617 ) 0 
( -0.00840412 -0.010373 0.00678483 ) 0 
( -0.0122198 -0.00242197 0.00566453 ) 0 
( -0.00780994 -0.00277247 0.00118016 ) 0 
( -0.000700345 -0.0124348 0.003909 ) 0 
( -0.00984319 -0.00632219 0.00595337 ) 0 
( -0.00361012 -0.00856309 0.00163297 ) 0 
( -0.00475537 -0.000406496 0.00452915 ) 0 
( -0.000557401 -0.00113493 0.00485886 ) 0 
( -0.00119829 -0.003414 0.00829373 ) 0 
( -0.00784896 -0.00549726 0.00102178 ) 0 
( -0.0052139 -0.00340564 0.00337034 ) 0 
( -0.00783086 -0.00186393 0.00572761 ) 0 
( -0.00475268 -0.00887263 0.000499594 ) 0 
( -0.00164616 -0.00687315 0.00610326 ) 0 
( -0.00447092 -0.0042303 0.00391405 ) 0 
( -0.00404952 -0.00134659 0.00615819 ) 0 
( -0.00894998 -0.00990439 0.00747927 ) 0 
( -0.00700875 -0.00569252 0.00702636 ) 0 
( -0.00686374 -0.00315032 0.00465788 ) 0 
( -0.00741191 -0.00184682 0.00429207 ) 0 
( -0.00460712 -0.00460641 0.00123331 ) 0 
( -0.000737773 -0.0133299 0.00601804 ) 0 
( -0.00852865 -0.00263065 0.000499633 ) 0 
( -0.000515087 -0.00764988 0.00653084 ) 0 
( -0.0013667 -0.00653746 0.00409484 ) 0 
( -0.00689275 -0.00315038 0.00182356 ) 0 
( -0.00990986 -0.00174422 0.00440283 ) 0 
( -0.00279179 -0.0087889 0.00488981 ) 0 
( -0.00702062 -0.00570428 0.000499768 ) 0 
( -4.44805e-06 -0.00155861 0.00301727 ) 0 
( -0.00567208 -0.00595429 0.00205772 ) 0 
( -0.00798882 -0.003989 0.00411371 ) 0 
( -0.00969288 -0.000483393 0.00481703 ) 0 
( -0.00879535 -0.00633799 0.000499803 ) 0 
( -0.00965725 -0.00673901 0.00147906 ) 0 
( -0.0013041 -0.00486357 0.00327257 ) 0 
( -0.00155196 -0.00127521 0.00769183 ) 0 
( -0.00573812 -0.0026944 0.00652873 ) 0 
( -0.0131778 -0.00213844 0.0057037 ) 0 
( -0.00433941 -0.00516197 0.00357587 ) 0 
( -0.00719611 -0.00256037 0.0053935 ) 0 
( -0.0067495 -0.0088886 0.00204884 ) 0 
( -0.00134701 -0.00164604 0.00161535 ) 0 
( -0.00588115 -0.00918842 0.0044315 ) 0 
( -0.0114032 -0.00288512 0.00301296 ) 0 
( -0.00774878 -0.00200488 0.000499682 ) 0 
( -0.000585188 -0.00304223 0.00161621 ) 0 
( -0.00545092 -0.00445056 0.00375494 ) 0 
( -0.00205002 -0.00098391 0.00499818 ) 0 
( -0.000917267 -0.00921881 0.00139776 ) 0 
( -0.00541607 -0.00200017 0.00139507 ) 0 
( -0.0056943 -0.00645387 0.00514455 ) 0 
( -0.00187507 -0.0132177 0.0046264 ) 0 
( -0.00998993 -0.00601177 0.000499746 ) 0 
( -0.0117063 -0.00641765 0.00413022 ) 0 
( -0.00179375 -0.0092879 0.00187931 ) 0 
( -0.00178933 -0.0132297 0.00666081 ) 0 
( -0.0119944 -0.00487527 0.00127362 ) 0 
( -0.00887923 -0.0069715 0.00206274 ) 0 
( -0.00169371 -0.0122412 0.00219559 ) 0 
( -0.00272958 -0.0130682 0.00391589 ) 0 
( -0.00171038 -0.00247557 0.00669565 ) 0 
( -0.000245418 -0.00292407 0.00780028 ) 0 
( -0.0128796 -0.00350418 0.0031598 ) 0 
( -0.000570761 -0.013336 0.00311604 ) 0 
( -0.00265593 -0.00286763 0.004392 ) 0 
( -0.00793503 -0.00421292 0.00615081 ) 0 
( -0.00453021 -0.00722503 0.00418908 ) 0 
( -0.00352035 -0.00826774 0.00533819 ) 0 
( -0.0111667 -0.00325068 0.00481571 ) 0 
( -0.0103067 -0.00484013 0.000499595 ) 0 
( -0.0057314 -0.000975558 0.00576803 ) 0 
( -0.00819404 -0.00684515 0.0070216 ) 0 
( -0.0119925 -0.00586306 0.00694232 ) 0 
( -0.00307723 -0.0119068 0.00529231 ) 0 
( -0.00672114 -0.00936895 0.0058563 ) 0 
( -0.00344242 -0.00266122 0.00381006 ) 0 
( -0.00897694 -0.000927054 0.00129791 ) 0 
( -0.00394199 -0.00217699 0.00809006 ) 0 
( -0.00210824 -0.003341 0.00701722 ) 0 
( -0.00509704 -0.010202 0.00547275 ) 0 
( -0.00222525 -0.00821898 0.0054847 ) 0 
( -0.00860453 -0.00323733 0.00387571 ) 0 
( -0.0064281 -0.00222355 0.00233987 ) 0 
( -0.0103212 -0.00493581 0.00474246 ) 0 
( -0.00317167 -0.0057121 0.00692835 ) 0 
( -0.000706665 -0.000440073 0.00556212 ) 0 
( -0.007813 -0.0035444 0.00499193 ) 0 
( -0.00579675 -0.00541373 0.00609099 ) 0 
( -0.0100928 -0.00873858 0.00623932 ) 0 
( -0.00884012 -0.000788788 0.00303885 ) 0 
( -0.0129213 -0.00335517 0.00210983 ) 0 
( -0.0122363 -0.00311864 0.00131581 ) 0 
( -0.00631251 -0.0117635 0.000499791 ) 0 
( -0.00115944 -0.00103688 0.00084498 ) 0 
( -0.00149454 -0.0132661 0.00049969 ) 0 
( -0.00229316 -0.00304025 0.00136023 ) 0 
( -0.00809935 -0.00116573 0.0050629 ) 0 
( -0.00541319 -0.00931523 0.00604191 ) 0 
( -0.00592224 -0.00843775 0.00238372 ) 0 
( -0.00618437 -0.00400104 0.0022236 ) 0 
( -0.00476728 -0.00262927 0.00775223 ) 0 
( -0.00811375 -0.00948276 0.000935127 ) 0 
( -0.00284621 -0.0111133 0.00613638 ) 0 
( -0.00298483 -0.00429001 0.00605204 ) 0 
( -0.00541357 -0.0120368 0.00429702 ) 0 
( -0.00792593 -0.00118081 0.00754745 ) 0 
( -0.00346209 -0.000308248 0.00645922 ) 0 
( -0.000575511 -0.0080656 0.00769212 ) 0 
( -0.0124754 -0.000613747 0.00530985 ) 0 
( -0.00379013 -0.00658191 0.00463083 ) 0 
( -0.00358354 -0.00582088 0.00602379 ) 0 
( -0.00554024 -0.012143 0.00321765 ) 0 
( -0.00840238 -0.00340669 0.00578865 ) 0 
( -0.00564966 -0.00495821 0.000499784 ) 0 
( -0.00950724 -0.00845476 0.00223483 ) 0 
( -0.00230771 -0.00663039 0.00139488 ) 0 
( -0.00546381 -0.00420989 0.00156259 ) 0 
( -0.00937665 -0.00168182 0.000499677 ) 0 
( -0.00740403 -0.00497405 0.00249934 ) 0 
( -0.0112846 -0.00529505 0.00431968 ) 0 
( -0.00839243 -0.00432182 0.000499675 ) 0 
( -0.000550304 -0.00126369 0.00749239 ) 0 
( -0.00392109 -0.00408094 0.00750195 ) 0 
( -0.000114204 -0.00621457 0.00688067 ) 0 
( -0.000981991 -0.0126282 0.00691389 ) 0 
( -1.9775e-05 -0.0102799 0.00559237 ) 0 
( -0.00549434 -0.00269868 0.00405873 ) 0 
( -0.00998108 -0.00427563 0.00407279 ) 0 
( -0.0105937 -0.00682428 0.000499801 ) 0 
( -0.000188248 -0.00787188 0.000499692 ) 0 
( -0.0105737 -0.00814982 0.00469486 ) 0 
( -0.00666178 -0.00123835 0.00602272 ) 0 
( -0.00319284 -0.00362592 0.0038936 ) 0 
( -0.00773227 -0.00799214 0.00587757 ) 0 
( -0.00805214 -0.00933392 0.00426443 ) 0 
( -0.00575235 -0.0088931 0.000499706 ) 0 
( -0.0127054 -0.00403541 0.00507996 ) 0 
( -0.00737911 -0.0034244 0.00588467 ) 0 
( -0.00560493 -0.00712224 0.000499806 ) 0 
( -0.00187678 -0.0112385 0.00592534 ) 0 
( -0.00839117 -0.00369653 0.00129157 ) 0 