FoamFile
{version 2.0; format ascii;class vectorField; location 0;object  v;}
2494
(
( 0.000368458 -0.000305833 3.24886e-05 )  
( -0.000523594 -0.000817207 -0.000429743 )  
( -0.000343948 -0.000735104 0.00138751 )  
( 0.000819231 -0.000125033 0.000441233 )  
( -8.01223e-05 8.89239e-05 2.57967e-05 )  
( 0.000615321 -0.000175137 -4.08019e-05 )  
( -0.000281456 0.000191741 0.000181176 )  
( 0.00072251 5.15723e-05 0.00224895 )  
( -0.000194808 6.04937e-05 0.0026782 )  
( 0.000177718 5.60389e-05 0.000688971 )  
( -0.00219723 2.7773e-05 1.71228e-06 )  
( -0.000235717 -0.000168422 0.000220589 )  
( -0.00163222 5.90376e-05 0.00232253 )  
( -0.000819756 -0.000721888 0.00270271 )  
( 0.00119932 0.00181432 0.00594877 )  
( -0.000292825 0.000264708 0.00492015 )  
( 0.000203483 -0.000177462 0.00296204 )  
( 0.000745796 0.00181983 0.00357975 )  
( -0.000343294 0.000310645 0.00011784 )  
( 0.000294608 -0.000138671 0.0027083 )  
( -0.00126654 0.000251712 5.69592e-05 )  
( -0.000284042 0.00064037 0.0029504 )  
( -0.000410594 -0.00116342 -0.00109801 )  
( 0.00057896 -9.6392e-05 -3.13436e-05 )  
( 0.000194982 -0.000185809 -0.000186145 )  
( -0.00152997 0.00254597 0.00613721 )  
( -7.0501e-05 -0.00016026 -2.54694e-05 )  
( 0.000833986 -0.00137971 0.00362225 )  
( 5.04075e-05 0.000178079 0.000387802 )  
( 1.50071e-05 0.000178196 -8.88788e-05 )  
( 0.00310002 -0.000122749 8.58424e-06 )  
( -1.27878e-05 0.00135775 0.00265156 )  
( -0.0021404 0.000654228 0.00317614 )  
( -0.000597833 -0.00117841 0.00330496 )  
( -0.00306244 -0.000660048 0.00401929 )  
( -0.000766238 -0.00126676 0.00376409 )  
( 0.00063828 0.000224593 0.000913762 )  
( -0.000597137 -0.000721193 0.00401346 )  
( -0.000414656 -0.00161879 0.00567337 )  
( -4.32122e-05 -0.000507801 -4.52093e-06 )  
( -0.000369448 0.00176359 0.00280419 )  
( -7.28791e-05 -3.9939e-05 -0.000114383 )  
( -0.000558633 7.02912e-05 0.000115846 )  
( 0.000383533 -0.00194614 -1.12284e-05 )  
( -0.000487831 -0.000478989 0.00362063 )  
( 0.00320439 0.000182783 0.00523844 )  
( -0.00116474 0.000619708 0.00431655 )  
( 0.000682436 -0.000996707 0.00536519 )  
( -0.00027262 0.00274017 0.00596568 )  
( 2.35507e-05 0.000465538 0.00158979 )  
( 0.000186842 -0.000947706 6.94346e-05 )  
( 0.0001244 8.50661e-05 0.00598191 )  
( 0.000867521 0.00151752 -0.00126259 )  
( -0.000175197 -1.02023e-05 -3.30424e-06 )  
( 0.000537439 0.00150207 0.00251629 )  
( -5.98562e-05 0.000214578 0.000105095 )  
( -0.00139118 0.000196908 0.00234373 )  
( 0.000272261 -0.000263313 7.82961e-05 )  
( -0.00018219 9.44126e-05 -8.89518e-05 )  
( 2.75719e-05 -0.000903125 3.19387e-05 )  
( -0.00119381 -0.000427621 0.00416239 )  
( -0.00022193 0.000136395 0.000134609 )  
( -0.00109978 0.00079951 0.00587875 )  
( -0.00203871 -0.000858892 0.0059295 )  
( 0.000152078 0.00222062 0.00932923 )  
( 0.00181975 0.00110464 0.00136896 )  
( 0.000954197 -0.000244178 0.00142987 )  
( -0.00173817 0.000505216 0.00106902 )  
( 0.00017985 -4.37221e-05 -0.00073001 )  
( -0.00104518 0.00379811 0.0059106 )  
( -0.000346624 -0.000285599 0.00341111 )  
( -0.00218214 -0.000873144 0.00863118 )  
( -0.00028269 -0.000790892 -0.00043977 )  
( -0.000587621 0.000809901 -0.000656294 )  
( 0.000868187 -0.000966823 0.00227551 )  
( 0.000177498 0.000522421 0.00335333 )  
( 0.00171787 4.3627e-05 -0.00152668 )  
( 7.06579e-05 5.77869e-06 0.000192755 )  
( -0.000158897 0.000404979 2.30942e-06 )  
( -5.46356e-05 0.000868167 0.000391702 )  
( -0.00134178 -0.00555151 0.00291041 )  
( 0.000231568 -0.000751433 0.00426707 )  
( -0.000401199 -0.00023858 -0.000110786 )  
( 0.000316281 0.00150563 0.00555513 )  
( 0.000724737 -0.0040548 0.00511828 )  
( -0.000238301 0.0010597 0.00568626 )  
( 0.000836529 -0.000772307 -0.000562546 )  
( -0.00244443 -0.00329215 0.00999236 )  
( -0.000990044 -0.000103269 0.00323927 )  
( 2.50931e-05 4.50072e-05 -4.59275e-06 )  
( -0.00117548 0.000285556 0.00392021 )  
( -0.000119889 0.000324185 0.000243138 )  
( -0.000532622 3.4042e-05 0.00433501 )  
( -0.000300438 0.0011487 0.00473911 )  
( -0.000222113 0.000127293 4.95882e-05 )  
( -0.00112335 -0.000130441 0.002041 )  
( -0.000730427 0.000173601 -4.2883e-05 )  
( -0.000246998 -0.00026588 0.00387282 )  
( -0.000231154 -0.000170335 0.00405899 )  
( -0.000802291 0.00135528 0.00355154 )  
( -0.000402814 -7.24727e-05 0.00429027 )  
( 0.000329654 0.000152521 0.0058643 )  
( -9.65524e-05 0.000142225 0.000108053 )  
( 0.00298883 0.00125863 0.00632952 )  
( -0.000196301 3.01682e-05 0.00194426 )  
( -0.00322972 -0.000522032 0.00575204 )  
( 0.000307567 -0.00015224 0.00533547 )  
( 0.00215455 0.000684478 0.00432424 )  
( -0.000606479 0.000914213 0.00286065 )  
( -0.000203314 0.000688603 0.0025594 )  
( 0.000458838 -0.000979725 0.00407008 )  
( -0.000174568 -1.89032e-05 -8.1291e-05 )  
( -0.000193267 0.000124396 1.46753e-05 )  
( -0.00120068 0.00281834 0.00466273 )  
( 0.000327186 -0.000454777 0.00387408 )  
( 0.00178603 0.000779996 0.00325785 )  
( -0.000278864 -0.000509447 0.00361217 )  
( 0.000571657 -1.06903e-05 -5.11371e-06 )  
( -0.00162513 0.000810382 0.00676829 )  
( -0.00434291 -0.000329851 0.00589605 )  
( 0.00011418 8.82629e-05 7.54989e-05 )  
( 0.000671826 -0.0025358 0.00392277 )  
( -0.000102694 0.000160493 -8.74976e-05 )  
( -0.000396206 -0.000318549 9.0538e-06 )  
( 0.000249188 8.88255e-05 0.00314265 )  
( 0.000303242 -0.000551102 0.00341317 )  
( 0.000361662 0.000269883 0.00262522 )  
( -8.38588e-05 0.000338893 0.00607549 )  
( -0.00239341 0.000350678 0.00534535 )  
( 0.000242034 -0.000825715 0.00226745 )  
( -0.000997411 -0.000270587 0.00543886 )  
( -0.00170396 -0.00042168 0.00509192 )  
( -0.000246951 0.000127226 -0.00109457 )  
( 0.000777305 0.000385125 -8.25707e-05 )  
( 0.0014689 -0.00196732 -0.00136322 )  
( -7.22845e-05 -0.000282584 0.000126368 )  
( 0.00192996 -0.00178272 0.00424696 )  
( 0.00159106 -0.00237023 0.00481515 )  
( -0.0015893 7.52513e-05 0.00214528 )  
( 0.000153905 -0.0015297 0.00345841 )  
( -0.00187539 -0.000908328 0.0034681 )  
( -1.78647e-06 -0.000129476 -0.000449794 )  
( 0.000508349 0.00076838 0.00420632 )  
( -4.11514e-05 0.000231884 0.00378373 )  
( -0.000258355 0.000107621 0.000135488 )  
( 0.000887225 0.00017685 0.00522659 )  
( -0.000256758 -0.000620881 0.00299989 )  
( 0.000129102 -2.11488e-05 -4.25088e-05 )  
( -0.000239525 0.00120705 0.00438323 )  
( -0.000565629 0.00107574 0.000593335 )  
( 0.000309906 -0.000480467 6.47811e-05 )  
( 0.000617775 0.000575417 0.00115845 )  
( 0.00059667 0.00120095 0.00321877 )  
( 0.000885021 0.000982693 -0.000323585 )  
( 0.000243972 -0.000490951 0.000403057 )  
( 0.000483908 -0.000307439 -5.37543e-05 )  
( -0.000131341 -0.000798667 0.00545952 )  
( 7.94836e-05 0.00116567 0.00222368 )  
( -0.00147416 -0.000146718 0.00378803 )  
( -0.0010269 0.000474368 -2.69647e-05 )  
( -0.00296595 0.00215983 0.0186355 )  
( -0.000759423 -0.000895698 0.00452389 )  
( -0.000508819 0.000264657 0.00339497 )  
( 0.000259912 0.0014578 0.00290719 )  
( 0.000555351 -0.000371316 0.00149889 )  
( -0.000281013 0.000824162 0.000601517 )  
( 0.00117796 -0.0022245 0.00493415 )  
( 9.20053e-06 0.000227543 8.79515e-05 )  
( -0.00136398 0.000456015 0.00219534 )  
( -0.000357686 0.00014785 -0.000140761 )  
( -8.25798e-05 0.00513948 0.00883888 )  
( -0.00159852 -0.00428984 0.00109392 )  
( 0.00049498 -0.00144267 0.00304229 )  
( 9.99397e-05 0.000512352 4.52935e-05 )  
( -0.000322485 0.00276439 0.00467327 )  
( -0.00665101 -0.00178116 0.00914436 )  
( -0.000114092 0.000157609 -1.25935e-05 )  
( 0.00122749 0.00427991 0.00982898 )  
( -0.000272886 -0.000153031 0.00370902 )  
( 0.000124283 5.64416e-05 0.000156218 )  
( -0.000932585 -0.00116217 0.00489475 )  
( 0.000779469 -0.00121393 -0.00038501 )  
( 0.00230446 0.00111451 0.00380384 )  
( -0.00159095 0.00107144 0.00104099 )  
( 1.72257e-05 -0.000830282 0.00330322 )  
( 0.000309134 7.61111e-05 0.00261035 )  
( -0.000196743 0.00172016 0.00210315 )  
( -0.00340948 -0.00199888 0.00674118 )  
( 0.000112364 -0.00047134 0.00629238 )  
( -0.000992318 -0.000846466 0.00142066 )  
( 0.000189215 -0.00154936 0.00726403 )  
( -4.84488e-05 0.000344931 -3.36504e-05 )  
( 0.000205201 -0.000118755 0.000132306 )  
( 0.000629289 0.00257446 0.00972029 )  
( 0.000421326 0.000300097 -4.43762e-06 )  
( -0.00148682 0.000857178 0.000545516 )  
( 0.000561654 -0.000649027 0.00279293 )  
( 0.000729434 0.001204 0.000662515 )  
( -0.00042732 -0.000228115 0.00394596 )  
( 0.000891923 0.00204596 0.00763091 )  
( 0.000213024 -0.000782332 -0.000541555 )  
( 0.000142597 0.000631427 0.0138836 )  
( -7.87322e-05 -9.57009e-05 0.00362966 )  
( 0.00120184 0.00096135 0.00243904 )  
( -0.000286117 0.000176281 0.00363626 )  
( 0.000678005 -0.000378315 0.00180623 )  
( -0.000271798 0.000123908 0.000148965 )  
( -0.000371692 -0.000250408 0.00370719 )  
( -0.000795758 -0.000422465 0.00616897 )  
( -0.000337395 0.000930408 0.00345424 )  
( -0.00260765 0.00108153 0.00386813 )  
( 0.000385543 -0.000756637 0.000102978 )  
( 0.00117873 0.00155471 0.00737437 )  
( -0.000762166 -0.000117372 0.00143219 )  
( -0.00188164 0.00126146 0.00360535 )  
( 0.000919996 0.000294389 0.00275767 )  
( -0.00129598 0.000304409 0.00140358 )  
( 0.000498815 -0.000814109 0.00293468 )  
( 0.000812934 0.000533976 0.00366842 )  
( -0.000519095 -0.00219013 0.00466657 )  
( 0.00216876 -0.000100398 0.00138494 )  
( -0.00315488 -0.000253915 0.00255209 )  
( 0.000114663 2.06023e-05 -1.34898e-05 )  
( -8.18245e-05 0.000612529 0.00726959 )  
( -0.000413946 0.000284238 -1.58038e-05 )  
( -0.000200098 -0.000242751 0.000149631 )  
( 0.000207188 0.000338877 3.74876e-05 )  
( -0.000682148 0.00100489 0.000566279 )  
( 4.68567e-06 0.000134868 -0.000316673 )  
( 0.000710434 0.000232214 0.00056001 )  
( -0.000111158 0.000198518 0.0010957 )  
( -0.000272311 0.00075807 0.00015427 )  
( 0.00183611 -0.000631996 0.000876621 )  
( -1.87724e-05 3.02845e-05 -2.257e-05 )  
( -1.82421e-05 0.00425504 0.00944133 )  
( 1.52424e-05 -0.000426698 0.00209809 )  
( 0.00322574 -0.000343717 0.00423514 )  
( -0.000478509 -0.00144959 0.00335526 )  
( -0.000513286 -0.000464712 -0.00010715 )  
( -0.00019361 -0.00157658 0.00328443 )  
( 0.000688864 -0.000824302 0.00403317 )  
( -0.00116958 0.00142077 0.00379803 )  
( 0.000234007 0.000393142 1.66295e-05 )  
( -1.91501e-05 0.000125619 0.000160457 )  
( 0.000371613 1.42028e-05 0.00085791 )  
( 6.23051e-05 -2.70223e-05 -0.000114056 )  
( 0.000385475 0.000344959 0.000960782 )  
( -0.00129186 -3.56635e-05 0.000978359 )  
( -0.000223521 0.000436422 -0.000142962 )  
( -0.000261209 0.000336546 9.38523e-06 )  
( -0.000998543 1.84411e-05 0.00241969 )  
( 0.000261715 -0.000261042 -6.75278e-05 )  
( 0.000571412 0.000348012 -7.45578e-05 )  
( 0.000999935 0.000177506 0.00524286 )  
( -0.000333193 0.000544713 0.000421201 )  
( -0.000107117 -1.81474e-05 -8.70636e-06 )  
( 0.000643882 -0.00040883 0.00307844 )  
( -0.000288904 -0.00104558 0.00392375 )  
( 3.1737e-05 -0.00167689 0.002078 )  
( 0.000443822 0.000187135 0.000429626 )  
( -0.000144936 -0.000781896 0.00020173 )  
( -4.21079e-06 -0.000386517 2.69894e-05 )  
( -1.10864e-05 -1.50108e-05 -7.08657e-05 )  
( 0.00189584 0.0028836 0.00695393 )  
( 0.00178424 -0.00191326 0.00200373 )  
( 0.000472367 -0.00154471 0.00168137 )  
( 0.000775753 0.00116125 -0.000336488 )  
( -1.45169e-05 0.000247617 7.88212e-05 )  
( -0.00205224 0.000752652 0.00468363 )  
( 0.000881904 -7.82866e-05 0.00513453 )  
( -0.00267958 -0.000545272 -0.00101904 )  
( -0.00014989 0.00229096 0.00489835 )  
( 0.00179643 0.000460522 0.00473147 )  
( -4.6442e-05 -0.000717601 0.00264918 )  
( -0.000290293 0.00137561 0.00411359 )  
( 8.75224e-05 0.00019318 0.00372714 )  
( -0.00117488 0.000119556 0.00721442 )  
( -0.000872387 0.000356882 -3.34005e-06 )  
( 0.00103872 0.00104063 -0.00236374 )  
( 0.000546257 -0.000292279 0.00404341 )  
( 0.000841237 -0.0007099 -0.000335276 )  
( 0.000132483 0.00022786 0.00351059 )  
( -0.00103727 0.00220684 0.00200858 )  
( -0.00167708 0.00507121 0.00540582 )  
( 0.000228868 -0.000568052 -6.02202e-07 )  
( -0.000160365 -0.000360357 0.00431494 )  
( -0.000543252 0.000186638 0.0022363 )  
( 0.000138079 -7.98881e-05 0.000213792 )  
( -0.00135912 -0.00158918 0.00766452 )  
( -0.000154179 0.000226965 0.000273974 )  
( -0.000400511 0.000629202 0.00217861 )  
( -0.000259305 0.000739464 -6.55633e-05 )  
( -6.23979e-05 -5.20405e-06 -0.000150671 )  
( -0.000108067 0.000153138 0.00329773 )  
( -0.000598063 0.000107516 -0.00130261 )  
( -0.000199551 -0.000764686 0.00102499 )  
( 3.65106e-05 0.000319117 -0.000339682 )  
( -0.000187137 3.93659e-05 0.00234898 )  
( -0.000387145 0.000830555 -0.000479471 )  
( -0.00175095 0.00351362 0.00283026 )  
( 0.000249257 -6.40662e-05 7.68785e-06 )  
( -0.000718762 0.000318156 0.00332206 )  
( -0.000295891 -3.2808e-06 -0.00207447 )  
( -0.000605727 -0.000767517 0.00261172 )  
( 0.000256018 -0.000356383 0.00288867 )  
( -5.12175e-05 -8.14523e-05 0.000280925 )  
( 0.000390488 -0.000622834 0.00619834 )  
( -0.00144202 -0.00110063 0.00488655 )  
( 1.14737e-05 -2.58033e-05 -3.22087e-05 )  
( -6.4981e-05 0.000598094 0.00267238 )  
( 0.000508408 0.00050832 0.00471192 )  
( -0.000348195 -0.00017977 0.000169246 )  
( -0.000304571 0.000491556 0.00266862 )  
( -0.000136685 -0.00118376 0.0027958 )  
( -0.000205042 -0.000150707 2.22245e-05 )  
( -0.000995389 0.000606593 -0.000243856 )  
( -0.00119054 0.000220768 0.00546512 )  
( 0.00118634 -0.00141659 0.00246968 )  
( -0.00161957 0.00189609 0.00565323 )  
( 0.000187766 -0.00044388 0.000129009 )  
( -0.000470654 0.000551604 0.00551568 )  
( 0.00296037 0.00182752 0.0031142 )  
( 0.000638954 -0.000417326 -0.000683051 )  
( -0.000604136 0.00192322 0.0114269 )  
( 0.000120591 7.33334e-05 -2.11388e-05 )  
( -0.000311366 -0.000333492 8.92703e-05 )  
( 0.000229579 3.57198e-05 0.00375918 )  
( -0.00026947 -0.000654825 0.00352338 )  
( -0.000147164 4.89785e-05 0.00575287 )  
( 0.000898551 0.00211035 0.00210001 )  
( 0.000195224 -0.00053078 0.000718662 )  
( 0.00103566 -0.000625304 0.000353329 )  
( -0.00151353 -0.0021597 0.0070264 )  
( -0.00126217 0.00225042 0.00473039 )  
( 0.000151805 0.000167205 -4.06731e-05 )  
( 3.78512e-05 0.00034362 -5.05424e-05 )  
( 0.00046812 -0.0002689 0.000933484 )  
( -0.000429293 -0.000858466 0.00330741 )  
( -0.00195743 -0.000680525 0.0106102 )  
( -0.000400061 0.000600989 -8.67477e-05 )  
( -0.000240356 0.000889993 0.00372162 )  
( -0.000627306 6.34058e-05 0.000709165 )  
( -0.00015803 -0.000263121 7.88035e-06 )  
( 0.000111506 1.78861e-05 -8.92093e-05 )  
( -0.00112129 -0.000967847 0.00367515 )  
( 0.000225056 -0.00173077 0.00280866 )  
( 0.000485918 4.17025e-05 0.00048541 )  
( 0.000349333 0.000712283 0.00285835 )  
( 0.000668287 0.000414636 0.00314377 )  
( -0.00513382 -0.000934637 0.00532759 )  
( -0.000730525 -0.00149876 0.00428193 )  
( -0.000946831 7.98364e-05 0.00245003 )  
( -0.000372525 -0.000336921 -4.33318e-05 )  
( -9.48846e-05 0.000196492 -8.63603e-06 )  
( -0.0014554 -0.00207131 0.00559489 )  
( -0.00156856 0.0010019 0.00158534 )  
( -0.000135704 -0.000278528 3.6074e-05 )  
( 0.000431043 -0.000408918 -0.000223878 )  
( 0.00148516 0.000753869 0.00117522 )  
( 0.00139811 0.00055325 0.00481142 )  
( 0.00359553 -0.00197403 0.00290243 )  
( 0.00150619 0.00132159 0.00114865 )  
( -0.000184504 -0.000445862 0.00361911 )  
( 0.000732814 0.000869337 0.00353446 )  
( 7.09454e-06 -1.89988e-05 6.68082e-05 )  
( 0.00290565 0.000305164 0.00444172 )  
( -0.000255898 -0.000400157 -5.59038e-05 )  
( -0.00268199 -0.00025927 0.00630724 )  
( 0.000325577 -0.000837509 0.00296928 )  
( 0.000867797 0.000287276 0.00379638 )  
( -0.000969724 -0.000421527 0.00398895 )  
( -0.00025151 0.000625973 0.00213734 )  
( -0.000324391 -0.000284575 0.00487591 )  
( -0.002665 0.00149909 0.00295487 )  
( -0.0020587 0.000170709 0.00470176 )  
( 0.0013015 -0.00210955 -4.53611e-06 )  
( -0.00230326 0.0015737 0.00379022 )  
( -5.70955e-05 -0.000209577 -0.000234211 )  
( -0.000926337 0.000662444 0.00401622 )  
( 0.000546353 -0.00061465 0.00176677 )  
( -0.000202087 0.000470122 -0.000674743 )  
( -0.000836972 0.000862151 0.00379299 )  
( 0.000330087 0.000648258 0.00330929 )  
( 0.000324188 -7.25591e-05 3.91767e-05 )  
( -0.000829831 -0.000121815 -0.000383086 )  
( 0.000681602 0.000243337 -0.000294347 )  
( -0.000371615 -0.00164536 0.00680624 )  
( -0.000629322 0.00158968 0.00348577 )  
( -0.00336742 0.000880835 -0.00135207 )  
( -0.00127316 -0.00078449 0.000124024 )  
( 0.000256114 -0.000286662 0.00374335 )  
( -8.37833e-05 -0.000435885 -4.846e-06 )  
( 0.000282403 -9.60565e-05 0.00290118 )  
( -0.000117029 -0.000903809 0.00318968 )  
( -0.000315743 -0.000219649 0.00398874 )  
( 0.000375502 -0.000784234 0.0056032 )  
( -0.000192555 -5.02115e-05 9.25087e-05 )  
( 0.000154072 0.000922675 0.00462546 )  
( 0.000763656 0.000720927 0.000388595 )  
( -2.52351e-05 -0.000667267 4.21299e-05 )  
( 0.00223345 0.00169744 0.00352583 )  
( -0.000563463 -8.32496e-05 0.000651373 )  
( -0.00068217 0.00133128 0.00482655 )  
( -0.000332803 0.000438023 0.000368153 )  
( -0.000134833 0.00013227 3.73328e-05 )  
( 0.000860893 0.000384821 0.00271294 )  
( -0.000297236 0.0018473 0.00419831 )  
( -0.000459716 0.000118081 0.00498403 )  
( 0.000618002 -0.000528738 -0.000565528 )  
( -5.45618e-05 -0.000372301 0.000105866 )  
( 0.00116322 -0.000102108 0.00508314 )  
( 0.000748249 -0.00173559 0.00636855 )  
( 0.000797199 -0.00100868 0.0046005 )  
( 2.02348e-05 -0.00137652 0.00378628 )  
( -0.000440378 -0.0032593 -0.000293177 )  
( -0.000256883 0.000564976 0.0030807 )  
( 0.000261128 -0.000555332 0.0047068 )  
( 0.000191226 -9.15749e-05 0.00389825 )  
( 0.000460256 -0.000679654 0.00226508 )  
( -8.73478e-06 -0.000106443 2.93258e-06 )  
( 0.000934699 0.00103895 0.00442634 )  
( 8.47165e-05 -0.0017337 0.00426697 )  
( -0.000469676 0.00077114 0.00321866 )  
( 0.000241994 0.000200929 0.00391643 )  
( -0.00080292 -0.0011679 0.00404627 )  
( -5.44021e-05 -0.000260516 0.00409698 )  
( -0.000881004 0.000727646 0.00375777 )  
( 0.000306323 -0.000819183 0.0130923 )  
( -1.17111e-05 -5.86004e-06 -0.000197659 )  
( 0.000985101 -0.00108703 0.00492191 )  
( -0.000287105 0.000355907 0.000172158 )  
( 0.000111511 -0.000195843 7.73338e-06 )  
( 0.000331867 -0.00168183 0.00483393 )  
( 0.000164271 -0.000214938 2.57758e-05 )  
( -0.000182921 0.000384651 -1.27996e-05 )  
( -0.000305566 -0.000744188 0.00487254 )  
( -0.00087368 0.000545171 0.0034684 )  
( 7.98681e-05 -0.000178011 -4.01506e-05 )  
( -0.000648384 -0.000417628 8.37699e-05 )  
( 0.000130695 -0.000317685 0.00337272 )  
( 0.00119468 -0.000760121 0.00682901 )  
( 0.0011321 0.000261645 0.0028854 )  
( 0.000940858 0.000580634 0.00385383 )  
( -0.0018875 0.00217057 0.00888689 )  
( -0.000177156 -0.000739915 0.00352863 )  
( -0.000140603 0.00116747 0.00377709 )  
( -0.000359042 -3.03941e-05 -0.000103086 )  
( -0.000147527 6.91093e-05 7.62848e-05 )  
( 0.000141887 3.0671e-05 0.0020971 )  
( 0.00205667 -0.000486091 0.00945388 )  
( -0.0010564 -0.000545204 0.0028676 )  
( -0.00026018 0.000596825 0.00446228 )  
( -0.000843301 0.000115271 0.00603955 )  
( -0.000592247 0.00141857 0.00317298 )  
( -0.000117956 5.87792e-05 0.000212806 )  
( 0.00144565 -0.00147986 0.0032603 )  
( -0.000750789 -0.00140394 0.0031666 )  
( -0.000299105 0.000489702 0.000305344 )  
( -7.63185e-05 0.000183682 -5.06363e-06 )  
( 0.000303199 -0.000354834 0.00426643 )  
( -0.000324997 -3.24487e-05 -2.8393e-05 )  
( -0.000807281 0.000783819 0.00140741 )  
( -0.000411137 -0.000272145 0.00350584 )  
( -0.000405376 4.75157e-06 3.22764e-05 )  
( -0.000149127 0.000309121 -0.000165465 )  
( 0.00196807 0.000766696 0.00256268 )  
( -0.000340533 -0.000496341 0.000177219 )  
( 0.00132072 0.000417908 0.00373701 )  
( 0.000349638 -0.000320654 0.00455683 )  
( 0.000154874 4.50312e-05 0.000357889 )  
( -0.00183965 0.00227498 0.00378615 )  
( -0.000765694 9.75075e-05 -8.81811e-05 )  
( 1.57254e-05 0.000565329 -0.00327312 )  
( -0.000457961 5.97375e-05 0.00371149 )  
( 0.0018991 -0.000988953 0.00426065 )  
( 0.000123418 -0.00100521 0.00034604 )  
( -0.000210487 -0.0002965 0.00119161 )  
( -0.000919047 0.00024163 0.00534776 )  
( 2.69209e-05 -7.76363e-05 -3.6867e-05 )  
( -9.73134e-05 -0.00024477 0.00477758 )  
( -0.00229299 0.000498796 0.00765608 )  
( 0.000156795 -0.000199069 1.48515e-05 )  
( 0.000265507 -0.000931488 0.00382055 )  
( -0.000525778 -0.000313673 -5.14766e-05 )  
( -0.00060232 0.000559168 0.00302377 )  
( -0.000835013 0.000584303 0.00302208 )  
( 0.00122037 -0.000383162 0.00668845 )  
( 0.000403377 -0.000459913 0.00239978 )  
( -0.00155019 -0.00055624 0.00366398 )  
( -0.00179348 -0.00139934 0.00516873 )  
( 0.000389512 -0.00103747 0.000663768 )  
( -0.000516046 0.000189277 0.000251116 )  
( -0.000927479 -0.00095874 0.00204293 )  
( -0.000201651 0.00156019 0.00213553 )  
( -0.000532769 -0.000488274 0.0028801 )  
( -0.00179978 0.000762931 0.00229921 )  
( -0.00170049 0.000974665 0.00285834 )  
( -0.000464684 0.00044176 0.000402137 )  
( 0.000411202 -0.000812602 0.00213373 )  
( -0.00142219 -0.000138443 0.00270333 )  
( -0.000122289 -0.000187465 0.000191719 )  
( -0.000277448 0.00033688 0.00303944 )  
( -0.000293313 -0.00101902 0.00393663 )  
( 0.000969948 -0.00040278 8.7944e-05 )  
( -0.0018386 0.0013269 0.00402851 )  
( 0.000211283 -0.000120514 -0.000128723 )  
( 7.94527e-06 -3.63081e-05 0.000189442 )  
( 0.000485025 0.00140175 1.04782e-05 )  
( 0.000330992 0.00059376 -5.25134e-05 )  
( -0.00063198 0.00223762 -0.0024473 )  
( 3.66714e-06 -0.000372592 0.00296319 )  
( -0.00232983 -0.000493201 0.00515287 )  
( 7.04204e-05 -0.000902159 0.00427351 )  
( -8.75462e-05 -0.000205473 -3.17681e-05 )  
( 0.00349801 0.000565007 4.08482e-06 )  
( 0.00134865 -0.000143292 0.00502811 )  
( -0.000954336 -0.000466003 0.00429152 )  
( 0.000659228 0.00124927 -0.000182233 )  
( 0.00109995 0.00111407 0.00428642 )  
( -0.000353013 0.00058749 -1.38862e-05 )  
( -0.000904864 0.000417704 0.00317139 )  
( 0.000719144 0.000154305 2.45759e-05 )  
( -3.39316e-05 0.000229904 0.0049514 )  
( 6.28506e-05 0.000450152 0.00108258 )  
( 0.000498363 -0.000417001 -0.000388012 )  
( 0.000244624 -0.000420343 -0.000142027 )  
( -0.00129257 0.000356187 -8.28699e-05 )  
( 0.0015976 -0.00143088 0.00648159 )  
( -0.000499958 0.00120998 0.000302163 )  
( 6.72366e-05 -0.000144074 1.81061e-05 )  
( 0.00129997 -0.000995649 0.0048399 )  
( 0.000345791 -0.000229109 0.00391597 )  
( 0.000171755 -0.000315056 3.13703e-05 )  
( 0.000311063 0.00348216 0.00781265 )  
( -0.00181297 0.000653386 0.00239234 )  
( -0.000402017 -0.00216173 0.00443772 )  
( -0.00064811 0.000206186 0.00455585 )  
( 0.000409082 -0.00357639 0.00200535 )  
( -8.78195e-05 3.63017e-05 0.000418204 )  
( 0.000228069 -0.000138871 0.000214804 )  
( 0.00303851 -0.000392576 0.00456008 )  
( 2.8883e-05 0.000527444 0.00391549 )  
( 6.64594e-05 -0.000170461 0.000200862 )  
( -0.00115599 -0.0020398 0.00144993 )  
( 0.000655018 -0.000931279 0.00290358 )  
( 0.000839943 0.000388167 0.000799617 )  
( -0.00207132 -0.000671879 0.00121443 )  
( -0.0014135 -0.00188414 0.00540926 )  
( -0.00386833 0.000833779 0.00532412 )  
( -1.39129e-05 -3.53157e-06 -7.0407e-06 )  
( -0.00205739 -0.00110166 0.00109068 )  
( 8.29135e-05 0.0010403 0.00581804 )  
( -0.000415046 -0.00055585 0.00380389 )  
( -0.00199216 -0.00118145 0.00484849 )  
( -0.00126962 0.000123867 0.00168574 )  
( -0.00060847 0.000203093 0.00498584 )  
( -1.05181e-05 3.38383e-05 0.00228151 )  
( 0.00119854 -0.000990244 0.00268275 )  
( 0.00211041 0.000485576 0.00182281 )  
( 0.000382423 0.000216931 -0.000719539 )  
( 0.000828456 -0.00124357 0.00267241 )  
( 0.0019313 0.000525187 0.00554956 )  
( -0.000251611 -0.000774558 0.000134413 )  
( 0.000280505 -0.000555157 9.50402e-07 )  
( -6.14483e-05 9.44586e-05 -0.000169802 )  
( -0.00126524 0.00149554 0.00130464 )  
( 0.000172353 -0.00068252 0.000376501 )  
( 0.00133484 -0.000900773 0.00113063 )  
( -4.01265e-05 0.000309146 -0.000140486 )  
( -0.000343981 0.00209643 0.00633612 )  
( 0.000253211 -4.34417e-05 -0.000482095 )  
( 0.00158384 1.07572e-05 0.00495234 )  
( 7.13416e-05 8.20283e-05 5.91492e-05 )  
( -0.000434641 -0.000296127 0.00407654 )  
( 0.000121249 -0.00142101 0.0040471 )  
( -0.000117088 -7.51588e-05 3.01917e-05 )  
( -0.000446357 0.000835036 0.00143405 )  
( 0.000208646 -0.00109504 0.002236 )  
( 0.000524346 0.000296609 -0.000288858 )  
( 0.000142259 -0.000185357 0.00551788 )  
( -0.000309459 -0.000865843 0.00368895 )  
( -0.000526457 0.000379496 0.000263387 )  
( 0.000533411 -0.00163018 0.00450029 )  
( -0.00126207 -0.00236324 0.00553286 )  
( 0.000271272 -0.000300251 0.00355267 )  
( -8.26067e-05 -8.74324e-05 0.00014929 )  
( -0.000664084 -0.00196408 0.00290421 )  
( 3.63001e-05 -0.000866957 0.00262549 )  
( -7.15208e-05 0.000196603 7.77691e-05 )  
( 0.000512989 -0.000302926 0.00450303 )  
( 0.00199878 -0.000540332 0.00499444 )  
( -9.41586e-05 0.000463228 0.00403861 )  
( -4.75699e-05 -0.000609042 0.00240586 )  
( -0.000789019 0.000195526 0.00278492 )  
( 0.000410842 -0.000508905 0.00467138 )  
( -0.00103173 -0.000436838 0.00440253 )  
( -0.000745442 -0.00132796 -0.000173391 )  
( -0.00141959 0.000240014 0.00205246 )  
( 0.000191051 -0.000329503 -0.000126563 )  
( 4.01643e-05 0.000470402 0.00300228 )  
( 0.000595035 0.00134118 0.00323092 )  
( -0.000240629 -0.000817612 -0.000263179 )  
( -0.000884321 2.35966e-05 0.00564303 )  
( -0.00149955 0.000825456 0.00513312 )  
( 0.000118204 -2.9321e-05 -4.31073e-05 )  
( -0.000152452 0.00155182 0.00303445 )  
( -0.000365807 0.00020953 0.000307679 )  
( -0.0015841 -0.00288531 0.00482553 )  
( -0.000984387 0.00156572 0.00277406 )  
( 0.00020821 -0.000233258 1.74003e-06 )  
( 0.000287733 0.000316987 3.26052e-06 )  
( 0.000236287 0.000379814 0.00180428 )  
( -0.000414959 0.00017634 0.00415426 )  
( -0.000531658 -0.000764517 0.00367854 )  
( 0.000197441 -0.000276468 0.00106263 )  
( -0.000540076 -0.00120424 0.00430837 )  
( 0.000412669 -0.00186181 0.00560071 )  
( -0.000322772 1.68449e-05 0.000224546 )  
( -0.000168491 0.000271189 -0.00128512 )  
( -0.000925265 3.4288e-06 0.00239772 )  
( -0.000767504 -0.000618656 0.000338803 )  
( -0.000126704 -7.29849e-05 -4.33641e-05 )  
( 0.000938231 0.00230871 -0.0011387 )  
( 0.00211941 -0.00133497 0.00397372 )  
( 0.00134236 -0.000213457 0.00467834 )  
( 0.000835114 -0.00376101 -0.00177674 )  
( -0.00043178 -0.000790681 9.0198e-05 )  
( 0.000164407 -2.42349e-05 0.00264294 )  
( -0.000948542 0.000137702 0.00188299 )  
( 8.00495e-05 -0.000598071 0.000158556 )  
( -0.000176932 0.000536724 0.00185564 )  
( 0.000370363 -0.000519501 -0.000326774 )  
( 0.000103962 3.36466e-05 0.00319905 )  
( 7.64317e-05 3.78433e-05 -8.29945e-05 )  
( 0.000128129 0.000240138 0.000690963 )  
( 3.06815e-05 -0.000531159 0.00020837 )  
( -0.00097656 0.000121895 0.00345956 )  
( -0.000250103 -0.00167789 0.00440509 )  
( 0.000391677 -0.000326919 0.00384013 )  
( 0.000582044 -0.00199267 0.00697838 )  
( 0.000135417 0.000171088 0.00279966 )  
( 0.000532157 -0.000903332 0.00395077 )  
( 0.00110973 -0.000405006 0.0033426 )  
( -0.000438587 -0.000557972 0.0046999 )  
( -0.00334967 -0.00132161 0.00659263 )  
( 0.000726953 -0.00161387 0.00129547 )  
( 4.21508e-05 0.000307474 0.000134601 )  
( -0.000491038 -0.00147663 0.0056162 )  
( -0.000293421 -0.00226129 0.00653473 )  
( -2.70898e-05 4.36568e-05 0.00224008 )  
( 7.89287e-05 -0.00197388 0.00544351 )  
( 0.000374671 0.000128718 0.00852222 )  
( 0.000757507 -0.00137274 0.00366567 )  
( -0.000577724 -0.000725105 0.000225094 )  
( -0.000456065 -0.000343744 0.00397181 )  
( -0.000450581 -0.000398441 0.00369234 )  
( 0.000296005 0.000276476 0.00258107 )  
( 0.000411833 -0.00136233 0.0052771 )  
( 0.00121506 -0.000645433 0.00496295 )  
( 0.000325867 -0.000226873 -0.000355866 )  
( -0.000168828 0.00144593 0.00391392 )  
( 0.000258275 -0.000245041 0.00340001 )  
( -0.000415501 -0.000853939 0.00396451 )  
( -0.000385632 -0.00112708 0.00367595 )  
( -0.000377173 -0.000522094 0.00301253 )  
( 0.00112818 -0.00109229 0.00287794 )  
( -0.000149065 0.00190178 0.00407457 )  
( 0.000138931 -0.000483056 -0.000804824 )  
( -0.00126046 -8.52527e-06 -0.000872337 )  
( 1.67962e-05 -1.34321e-06 -3.13357e-05 )  
( 0.000800731 0.000374902 -0.000898162 )  
( 0.000214055 -8.41998e-06 1.26217e-05 )  
( -0.000755336 0.00100917 -0.000109767 )  
( -0.00129711 -0.000598909 0.003469 )  
( 0.00191837 0.00068932 0.00181376 )  
( -0.00025531 -0.000442498 0.000723527 )  
( 0.000134405 -0.000571305 0.00080213 )  
( -0.00030154 -0.000336614 0.00336158 )  
( 3.93337e-05 0.000234235 -4.91979e-05 )  
( -0.00405709 -0.00220001 0.00454102 )  
( 0.00270908 -0.00198927 0.00542826 )  
( 0.000328772 0.000600306 0.0121596 )  
( 0.000470762 -0.000856478 0.00273728 )  
( 9.75149e-05 -0.000210116 0.00278934 )  
( 0.000415162 0.000161282 0.0050262 )  
( -0.000312503 0.00217478 0.00242149 )  
( 0.00125367 -0.00338081 0.00652337 )  
( 0.000740366 -0.000105756 0.00315942 )  
( -0.000368079 0.000487973 0.00550454 )  
( -0.000759254 -0.00072033 0.00475688 )  
( -0.000202986 -0.000662155 -1.44627e-05 )  
( -0.00289257 -0.00150195 -0.00126845 )  
( -0.00028337 0.00039526 0.000505255 )  
( -0.000583748 -0.000979001 0.000100381 )  
( -0.000212749 8.04846e-05 0.000133328 )  
( 0.000171889 -0.00109246 0.000790262 )  
( -0.00180757 -0.000393525 0.00242416 )  
( 0.000428481 8.06178e-05 6.70223e-05 )  
( -0.00017911 -1.52615e-05 0.00329199 )  
( -0.000364372 0.000193591 0.00323418 )  
( -2.60215e-05 -0.00067551 0.00367941 )  
( -0.000631253 -0.000171796 0.00245532 )  
( 0.000808454 0.000681209 0.00306838 )  
( -0.00177712 -0.00198519 0.00550427 )  
( -0.00084233 0.000376402 0.00236201 )  
( -0.000215179 -0.000272239 1.18053e-05 )  
( -0.000443888 2.45678e-06 -7.42035e-05 )  
( -0.000285742 0.000285944 0.00330003 )  
( -0.00093696 -0.000909088 0.00395944 )  
( 0.0031607 -0.000901496 0.00431715 )  
( 0.00154523 -0.00114914 0.00433307 )  
( 0.00168432 0.00214613 0.00311547 )  
( -0.000124401 0.000121077 -3.86e-05 )  
( -0.00267566 -0.00191634 0.0078244 )  
( -2.01202e-05 -0.000351922 0.00359127 )  