/*--------------------------------*- C++ -*----------------------------------*\
| =========                 |                                                 |
| \\      /  F ield         | OpenFOAM: The Open Source CFD Toolbox           |
|  \\    /   O peration     | Version:  2506                                  |
|   \\  /    A nd           | Website:  www.openfoam.com                      |
|    \\/     M anipulation  |                                                 |
\*---------------------------------------------------------------------------*/
FoamFile
{
    version     2.0;
    format      ascii;
    arch        "LSB;label=32;scalar=64";
    class       surfaceScalarField;
    location    "0.001";
    object      phi;
}
// * * * * * * * * * * * * * * * * * * * * * * * * * * * * * * * * * * * * * //

dimensions      [0 3 -1 0 0 0 0];

oriented        oriented;

internalField   nonuniform List<scalar> 
1200
(
5.44693e-06
1.07581e-07
2.1241e-07
5.47816e-06
7.43948e-08
1.60902e-07
5.46492e-06
4.32054e-08
1.04184e-07
5.44507e-06
2.42518e-08
6.52643e-08
5.42845e-06
1.38152e-08
4.1723e-08
5.416e-06
8.11326e-09
2.81248e-08
5.40672e-06
4.91707e-09
2.03701e-08
5.39955e-06
3.05458e-09
1.59342e-08
5.39375e-06
1.9306e-09
1.32837e-08
5.38898e-06
1.23366e-09
1.14279e-08
5.38499e-06
8.06787e-10
9.99002e-09
5.38162e-06
5.5751e-10
8.80896e-09
5.37872e-06
4.1171e-10
7.87982e-09
5.37615e-06
3.26763e-10
7.20775e-09
5.37376e-06
2.80783e-10
6.86514e-09
5.37136e-06
2.48297e-10
6.91828e-09
5.36876e-06
2.20085e-10
7.33276e-09
5.36584e-06
2.21397e-10
7.93419e-09
5.36272e-06
2.91628e-10
8.26943e-09
5.35958e-06
4.23834e-10
8.27752e-09
5.35641e-06
5.83222e-10
8.29821e-09
5.35302e-06
7.75166e-10
8.63168e-09
5.34918e-06
1.0442e-09
9.38519e-09
5.34465e-06
1.45782e-09
1.06261e-08
5.33911e-06
2.12101e-09
1.25447e-08
5.33199e-06
3.20112e-09
1.56488e-08
5.32247e-06
5.00966e-09
2.07353e-08
5.30957e-06
8.15238e-09
2.89901e-08
5.29251e-06
1.38037e-08
4.27035e-08
5.27239e-06
2.42065e-08
6.59975e-08
5.25904e-06
4.31536e-08
1.0462e-07
7.43605e-08
1.61094e-07
6.76966e-06
1.07681e-07
1.45806e-07
6.8029e-06
8.61741e-08
1.20114e-07
6.80189e-06
5.75324e-08
8.42386e-08
6.79054e-06
3.59037e-08
5.6086e-08
6.77863e-06
2.20508e-08
3.74983e-08
6.76867e-06
1.36393e-08
2.61333e-08
6.7607e-06
8.56078e-09
1.94058e-08
6.75425e-06
5.44291e-09
1.54404e-08
6.74887e-06
3.49627e-09
1.30083e-08
6.74436e-06
2.2784e-09
1.12234e-08
6.74054e-06
1.5291e-09
9.82038e-09
6.73727e-06
1.08494e-09
8.69503e-09
6.73443e-06
8.17987e-10
7.81038e-09
6.73189e-06
6.5191e-10
7.17521e-09
6.72951e-06
5.52325e-10
6.88049e-09
6.72711e-06
4.92017e-10
6.94006e-09
6.72454e-06
4.48304e-10
7.30285e-09
6.72168e-06
4.50529e-10
7.85444e-09
6.71862e-06
5.56125e-10
8.24959e-09
6.7155e-06
7.62867e-10
8.38649e-09
6.71235e-06
1.03679e-09
8.46627e-09
6.70903e-06
1.38954e-09
8.77827e-09
6.70533e-06
1.89322e-09
9.46658e-09
6.70104e-06
2.66046e-09
1.06019e-08
6.6959e-06
3.85135e-09
1.23785e-08
6.68951e-06
5.71481e-09
1.52422e-08
6.6813e-06
8.71771e-09
1.98353e-08
6.67089e-06
1.36844e-08
2.70469e-08
6.65855e-06
2.20086e-08
3.8477e-08
6.64697e-06
3.58151e-08
5.67697e-08
6.64587e-06
5.74452e-08
8.4609e-08
8.61215e-08
1.20255e-07
6.75079e-06
8.25499e-08
9.06559e-08
6.77685e-06
7.18424e-08
7.97733e-08
6.78283e-06
5.33106e-08
6.09339e-08
6.77925e-06
3.65353e-08
4.38427e-08
6.77279e-06
2.41837e-08
3.12715e-08
6.76616e-06
1.58353e-08
2.29861e-08
6.76016e-06
1.03645e-08
1.77936e-08
6.75489e-06
6.79915e-09
1.45506e-08
6.75023e-06
4.48039e-09
1.24497e-08
6.74619e-06
2.99586e-09
1.08387e-08
6.74268e-06
2.07091e-09
9.55158e-09
6.73959e-06
1.50086e-09
8.56066e-09
6.73684e-06
1.13482e-09
7.7831e-09
6.73437e-06
8.99258e-10
7.20106e-09
6.73203e-06
7.5933e-10
6.93712e-09
6.72965e-06
6.82825e-10
7.01065e-09
6.72712e-06
6.43784e-10
7.30364e-09
6.72436e-06
6.53473e-10
7.76979e-09
6.7214e-06
7.51691e-10
8.22612e-09
6.71835e-06
9.64809e-10
8.50644e-09
6.71528e-06
1.28882e-09
8.66326e-09
6.71211e-06
1.73823e-09
8.95476e-09
6.70867e-06
2.39068e-09
9.56816e-09
6.70481e-06
3.37971e-09
1.05828e-08
6.70035e-06
4.86516e-09
1.21643e-08
6.69509e-06
7.09056e-09
1.46046e-08
6.68885e-06
1.05041e-08
1.83644e-08
6.6818e-06
1.58257e-08
2.39509e-08
6.67495e-06
2.40778e-08
3.22208e-08
6.67119e-06
3.6392e-08
4.44495e-08
6.67711e-06
5.31835e-08
6.12378e-08
7.17702e-08
7.98755e-08
6.74011e-06
5.82772e-08
5.62678e-08
6.75834e-06
5.31519e-08
5.17737e-08
6.76606e-06
4.24763e-08
4.26016e-08
6.7669e-06
3.13288e-08
3.31112e-08
6.76444e-06
2.20886e-08
2.53642e-08
6.76069e-06
1.52185e-08
1.98545e-08
6.7566e-06
1.03745e-08
1.61354e-08
6.75257e-06
7.03743e-09
1.36154e-08
6.74875e-06
4.77192e-09
1.18636e-08
6.74527e-06
3.27275e-09
1.04717e-08
6.74211e-06
2.30108e-09
9.38993e-09
6.73922e-06
1.67025e-09
8.57634e-09
6.73661e-06
1.24879e-09
7.87991e-09
6.73424e-06
9.72433e-10
7.32902e-09
6.73196e-06
8.17376e-10
7.08635e-09
6.72961e-06
7.49012e-10
7.16528e-09
6.72713e-06
7.39254e-10
7.40814e-09
6.72446e-06
7.7149e-10
7.79768e-09
6.72162e-06
8.58995e-10
8.22519e-09
6.71868e-06
1.04458e-09
8.56055e-09
6.71574e-06
1.34573e-09
8.79115e-09
6.71277e-06
1.80152e-09
9.08114e-09
6.70967e-06
2.49509e-09
9.61906e-09
6.7063e-06
3.5428e-09
1.05469e-08
6.70258e-06
5.07158e-09
1.19487e-08
6.69851e-06
7.27046e-09
1.39237e-08
6.69418e-06
1.04671e-08
1.67781e-08
6.69006e-06
1.51596e-08
2.07388e-08
6.68727e-06
2.19279e-08
2.61868e-08
6.68798e-06
3.11338e-08
3.35936e-08
6.69568e-06
4.23062e-08
4.2814e-08
5.30548e-08
5.18335e-08
6.73499e-06
3.90738e-08
3.64877e-08
6.74768e-06
3.65623e-08
3.46702e-08
6.75492e-06
3.06761e-08
3.0393e-08
6.75766e-06
2.38582e-08
2.53592e-08
6.75757e-06
1.76617e-08
2.07881e-08
6.75585e-06
1.26818e-08
1.72967e-08
6.75326e-06
8.95374e-09
1.47633e-08
6.7503e-06
6.27096e-09
1.28659e-08
6.74725e-06
4.37827e-09
1.14179e-08
6.7443e-06
3.06486e-09
1.02466e-08
6.74148e-06
2.15929e-09
9.35561e-09
6.7388e-06
1.53657e-09
8.67725e-09
6.73633e-06
1.12449e-09
8.01247e-09
6.73408e-06
8.70331e-10
7.43177e-09
6.73189e-06
7.36725e-10
7.19811e-09
6.7296e-06
6.95085e-10
7.29852e-09
6.72717e-06
7.2137e-10
7.55786e-09
6.72455e-06
7.78173e-10
7.92526e-09
6.7218e-06
8.54728e-10
8.29418e-09
6.71898e-06
9.82936e-10
8.63527e-09
6.71619e-06
1.21639e-09
8.86095e-09
6.71346e-06
1.61917e-09
9.10079e-09
6.71071e-06
2.25774e-09
9.57621e-09
6.70783e-06
3.20281e-09
1.04702e-08
6.70478e-06
4.5433e-09
1.1761e-08
6.70171e-06
6.41606e-09
1.33635e-08
6.69888e-06
9.01369e-09
1.54225e-08
6.69683e-06
1.26176e-08
1.80373e-08
6.69648e-06
1.75003e-08
2.13984e-08
6.69914e-06
2.3675e-08
2.56193e-08
6.70642e-06
3.0535e-08
3.04008e-08
3.64909e-08
3.46075e-08
6.73248e-06
2.40109e-08
2.55496e-08
6.74179e-06
2.27677e-08
2.48402e-08
6.7481e-06
1.96661e-08
2.29305e-08
6.75147e-06
1.58264e-08
2.03488e-08
6.75259e-06
1.21168e-08
1.77021e-08
6.75212e-06
8.96352e-09
1.55198e-08
6.75057e-06
6.4931e-09
1.38341e-08
6.74841e-06
4.66293e-09
1.24489e-08
6.74593e-06
3.33993e-09
1.12651e-08
6.74339e-06
2.38052e-09
1.02303e-08
6.74086e-06
1.67694e-09
9.3934e-09
6.73839e-06
1.17239e-09
8.70085e-09
6.73607e-06
8.43811e-10
8.02422e-09
6.73394e-06
6.60947e-10
7.44051e-09
6.73185e-06
5.77637e-10
7.22143e-09
6.72963e-06
5.71744e-10
7.36002e-09
6.72722e-06
6.14355e-10
7.70603e-09
6.72462e-06
6.67136e-10
8.12677e-09
6.72193e-06
7.05078e-10
8.47816e-09
6.71921e-06
7.57675e-10
8.7526e-09
6.71659e-06
9.08177e-10
8.89467e-09
6.7141e-06
1.21546e-09
9.08346e-09
6.71166e-06
1.70841e-09
9.55635e-09
6.70917e-06
2.42716e-09
1.04424e-08
6.70665e-06
3.4189e-09
1.16459e-08
6.7043e-06
4.75661e-09
1.30176e-08
6.70248e-06
6.5527e-09
1.45101e-08
6.70171e-06
8.93654e-09
1.61445e-08
6.70265e-06
1.20209e-08
1.80801e-08
6.706e-06
1.57269e-08
2.03794e-08
6.71237e-06
1.96045e-08
2.27941e-08
2.27461e-08
2.47217e-08
6.72866e-06
1.14369e-08
1.99354e-08
6.73611e-06
1.09127e-08
1.96419e-08
6.74169e-06
9.56758e-09
1.87747e-08
6.74518e-06
7.84574e-09
1.7402e-08
6.74686e-06
6.12118e-09
1.58385e-08
6.74707e-06
4.60643e-09
1.44335e-08
6.74616e-06
3.38174e-09
1.32721e-08
6.7445e-06
2.46323e-09
1.22611e-08
6.7424e-06
1.79778e-09
1.13116e-08
6.7401e-06
1.30561e-09
1.03573e-08
6.73777e-06
9.27392e-10
9.47404e-09
6.73548e-06
6.46298e-10
8.68884e-09
6.73331e-06
4.66618e-10
7.97244e-09
6.73128e-06
3.77441e-10
7.427e-09
6.72926e-06
3.43287e-10
7.25465e-09
6.72709e-06
3.46293e-10
7.4839e-09
6.72469e-06
3.74433e-10
7.93626e-09
6.72208e-06
3.97421e-10
8.42541e-09
6.7194e-06
3.99022e-10
8.72172e-09
6.71678e-06
4.08675e-10
8.82589e-09
6.71432e-06
4.86669e-10
8.85646e-09
6.71201e-06
6.59483e-10
9.04106e-09
6.7098e-06
9.26706e-10
9.55066e-09
6.70758e-06
1.30778e-09
1.04876e-08
6.70541e-06
1.8268e-09
1.1681e-08
6.70352e-06
2.51266e-09
1.29e-08
6.70228e-06
3.42045e-09
1.40453e-08
6.70221e-06
4.59937e-09
1.50411e-08
6.70377e-06
6.08374e-09
1.61093e-08
6.70729e-06
7.81083e-09
1.73678e-08
6.71293e-06
9.55709e-09
1.86473e-08
1.09145e-08
1.95687e-08
5.37236e-06
1.75635e-08
5.37898e-06
1.74048e-08
5.38416e-06
1.69063e-08
5.38764e-06
1.60267e-08
5.38953e-06
1.49299e-08
5.39003e-06
1.38836e-08
5.38943e-06
1.29395e-08
5.38803e-06
1.21227e-08
5.3861e-06
1.13453e-08
5.38392e-06
1.04767e-08
5.38169e-06
9.56411e-09
5.3795e-06
8.70371e-09
5.37743e-06
7.96377e-09
5.37546e-06
7.474e-09
5.37348e-06
7.35476e-09
5.37134e-06
7.62944e-09
5.36894e-06
8.14797e-09
5.36632e-06
8.65069e-09
5.36365e-06
8.85596e-09
5.3611e-06
8.82468e-09
5.35874e-06
8.81171e-09
5.35653e-06
9.03514e-09
5.35443e-06
9.56843e-09
5.35236e-06
1.05178e-08
5.35035e-06
1.16972e-08
5.34869e-06
1.28142e-08
5.34773e-06
1.37831e-08
5.34796e-06
1.44838e-08
5.34976e-06
1.5172e-08
5.35329e-06
1.59903e-08
5.35853e-06
1.68385e-08
1.73805e-08
5.39568e-06
4.08447e-08
5.42152e-06
3.34091e-08
5.42601e-06
2.30986e-08
5.42152e-06
1.49619e-08
5.41485e-06
9.51582e-09
5.40824e-06
6.0702e-09
5.40228e-06
3.91485e-09
5.39689e-06
2.53085e-09
5.39189e-06
1.62976e-09
5.38754e-06
1.00752e-09
5.38381e-06
6.18382e-10
5.38069e-06
4.27078e-10
5.37805e-06
3.27582e-10
5.37581e-06
2.80788e-10
5.37382e-06
2.83108e-10
5.37178e-06
2.56919e-10
5.36937e-06
1.76379e-10
5.36617e-06
1.26777e-10
5.36273e-06
2.56061e-10
5.35961e-06
5.16614e-10
5.35674e-06
7.35003e-10
5.35377e-06
9.04978e-10
5.35042e-06
1.10757e-09
5.34657e-06
1.4135e-09
5.34221e-06
1.93138e-09
5.33708e-06
2.76529e-09
5.33073e-06
4.07101e-09
5.32329e-06
6.15575e-09
5.31581e-06
9.50042e-09
5.31101e-06
1.48658e-08
5.31544e-06
2.29809e-08
3.33245e-08
6.74407e-06
5.25989e-08
6.76708e-06
4.58702e-08
6.77374e-06
3.42423e-08
6.77195e-06
2.36657e-08
6.76726e-06
1.58262e-08
6.76194e-06
1.04931e-08
6.75674e-06
6.94894e-09
6.75182e-06
4.55341e-09
6.74709e-06
2.93807e-09
6.74296e-06
1.89405e-09
6.73942e-06
1.26083e-09
6.73639e-06
9.50941e-10
6.73379e-06
7.90795e-10
6.7316e-06
6.77797e-10
6.72958e-06
6.09023e-10
6.72748e-06
5.62537e-10
6.72509e-06
4.49231e-10
6.72207e-06
3.6636e-10
6.71875e-06
5.32785e-10
6.71558e-06
8.82442e-10
6.71267e-06
1.23329e-09
6.70972e-06
1.56565e-09
6.70646e-06
1.99446e-09
6.70282e-06
2.64108e-09
6.69877e-06
3.63682e-09
6.6941e-06
5.07707e-09
6.68852e-06
7.24686e-09
6.68233e-06
1.0589e-08
6.67686e-06
1.57543e-08
6.6748e-06
2.35003e-08
6.68147e-06
3.40887e-08
4.57783e-08
6.73993e-06
4.81625e-08
6.75803e-06
4.38435e-08
6.76574e-06
3.49786e-08
6.76668e-06
2.5804e-08
6.76451e-06
1.82764e-08
6.76097e-06
1.27034e-08
6.75692e-06
8.70617e-09
6.75278e-06
5.86406e-09
6.74862e-06
3.89459e-09
6.7449e-06
2.62917e-09
6.74169e-06
1.90927e-09
6.73881e-06
1.51622e-09
6.73626e-06
1.2313e-09
6.73411e-06
1.02684e-09
6.73211e-06
9.08169e-10
6.72994e-06
8.37066e-10
6.72759e-06
7.48087e-10
6.72482e-06
6.81392e-10
6.72168e-06
7.51005e-10
6.71851e-06
1.01919e-09
6.71558e-06
1.41662e-09
6.71273e-06
1.86434e-09
6.70969e-06
2.44143e-09
6.70639e-06
3.34364e-09
6.70279e-06
4.64926e-09
6.69885e-06
6.40948e-09
6.69445e-06
8.91775e-09
6.69008e-06
1.26136e-08
6.68718e-06
1.80438e-08
6.68797e-06
2.55361e-08
6.69573e-06
3.47598e-08
4.37286e-08
6.73562e-06
3.84881e-08
6.74917e-06
3.60413e-08
6.75657e-06
3.02632e-08
6.75916e-06
2.35742e-08
6.75893e-06
1.75113e-08
6.75697e-06
1.26601e-08
6.75408e-06
9.00204e-09
6.75082e-06
6.28789e-09
6.74736e-06
4.32657e-09
6.74419e-06
3.04777e-09
6.7413e-06
2.26651e-09
6.73853e-06
1.77055e-09
6.73606e-06
1.38081e-09
6.73399e-06
1.07502e-09
6.73204e-06
9.28997e-10
6.72986e-06
8.8209e-10
6.72752e-06
8.88767e-10
6.72489e-06
8.98936e-10
6.72195e-06
9.282e-10
6.71891e-06
1.11933e-09
6.71603e-06
1.41552e-09
6.71331e-06
1.82134e-09
6.7106e-06
2.4526e-09
6.7077e-06
3.46622e-09
6.70455e-06
4.88358e-09
6.70137e-06
6.70991e-09
6.69815e-06
9.11128e-09
6.69551e-06
1.24579e-08
6.69468e-06
1.71387e-08
6.6972e-06
2.31573e-08
6.7047e-06
2.98891e-08
3.58221e-08
6.73318e-06
2.81287e-08
6.7434e-06
2.67265e-08
6.74989e-06
2.32096e-08
6.75309e-06
1.8845e-08
6.75408e-06
1.4574e-08
6.75331e-06
1.09039e-08
6.75136e-06
8.02379e-09
6.74885e-06
5.85331e-09
6.74608e-06
4.22496e-09
6.74341e-06
3.04832e-09
6.7408e-06
2.19689e-09
6.73814e-06
1.56028e-09
6.73575e-06
1.1364e-09
6.73385e-06
8.793e-10
6.73199e-06
7.60352e-10
6.72986e-06
7.57035e-10
6.72753e-06
8.69723e-10
6.72492e-06
9.79643e-10
6.72214e-06
1.03847e-09
6.71921e-06
1.09999e-09
6.71643e-06
1.25005e-09
6.71394e-06
1.60194e-09
6.71161e-06
2.23784e-09
6.70912e-06
3.17501e-09
6.70638e-06
4.42824e-09
6.70377e-06
6.06965e-09
6.70149e-06
8.10063e-09
6.70019e-06
1.07241e-08
6.7007e-06
1.41809e-08
6.70393e-06
1.8433e-08
6.71063e-06
2.29246e-08
2.65994e-08
6.73178e-06
1.83921e-08
6.73988e-06
1.75655e-08
6.74552e-06
1.55078e-08
6.74882e-06
1.28781e-08
6.75041e-06
1.02522e-08
6.75043e-06
7.87647e-09
6.74919e-06
5.93063e-09
6.74722e-06
4.47445e-09
6.7449e-06
3.38571e-09
6.74255e-06
2.50701e-09
6.74016e-06
1.75748e-09
6.73771e-06
1.16068e-09
6.73549e-06
7.92501e-10
6.73373e-06
6.47743e-10
6.73199e-06
6.11128e-10
6.72997e-06
6.95589e-10
6.72764e-06
8.44301e-10
6.72498e-06
9.65171e-10
6.7222e-06
9.48063e-10
6.71936e-06
8.31031e-10
6.71678e-06
8.70365e-10
6.71457e-06
1.17335e-09
6.71254e-06
1.70282e-09
6.71037e-06
2.47205e-09
6.70802e-06
3.45336e-09
6.7058e-06
4.63832e-09
6.70411e-06
6.08688e-09
6.70365e-06
7.83225e-09
6.70495e-06
1.00491e-08
6.70841e-06
1.27136e-08
6.7143e-06
1.54548e-08
1.7589e-08
6.72837e-06
9.09646e-09
6.73525e-06
8.70715e-09
6.74031e-06
7.73047e-09
6.74362e-06
6.50043e-09
6.74545e-06
5.24078e-09
6.74591e-06
4.08279e-09
6.74515e-06
3.07404e-09
6.74355e-06
2.34814e-09
6.74144e-06
1.85293e-09
6.73922e-06
1.44445e-09
6.73699e-06
1.03534e-09
6.73476e-06
6.77702e-10
6.73277e-06
4.73114e-10
6.73111e-06
4.38337e-10
6.72949e-06
4.56884e-10
6.72754e-06
5.05902e-10
6.72518e-06
6.01094e-10
6.72238e-06
6.38718e-10
6.71951e-06
5.50097e-10
6.71682e-06
4.24643e-10
6.71451e-06
4.58944e-10
6.71252e-06
6.70618e-10
6.71073e-06
9.62483e-10
6.70877e-06
1.35784e-09
6.70663e-06
1.86524e-09
6.70467e-06
2.45134e-09
6.70328e-06
3.18459e-09
6.70329e-06
4.06956e-09
6.70503e-06
5.17495e-09
6.70857e-06
6.46306e-09
6.71385e-06
7.77901e-09
8.75755e-09
5.3722e-06
5.37848e-06
5.38328e-06
5.38655e-06
5.38849e-06
5.38908e-06
5.38861e-06
5.38725e-06
5.38523e-06
5.38301e-06
5.38083e-06
5.37876e-06
5.37694e-06
5.37534e-06
5.37376e-06
5.37186e-06
5.36944e-06
5.36652e-06
5.36362e-06
5.36109e-06
5.35896e-06
5.35706e-06
5.35538e-06
5.35354e-06
5.35147e-06
5.34966e-06
5.34843e-06
5.34866e-06
5.35058e-06
5.35414e-06
5.35907e-06
)
;

boundaryField
{
    wall
    {
        type            calculated;
        value           uniform 0;
    }
    outlet
    {
        type            cyclic;
        value           nonuniform List<scalar> 
16
(
5.29025e-06
6.6791e-06
6.70318e-06
6.71394e-06
6.71915e-06
6.72173e-06
6.72041e-06
5.36516e-06
5.3413e-06
6.70455e-06
6.71394e-06
6.71837e-06
6.72103e-06
6.72255e-06
6.72078e-06
5.36535e-06
)
;
    }
    inlet
    {
        type            cyclic;
        value           nonuniform List<scalar> 
16
(
-5.29025e-06
-6.6791e-06
-6.70318e-06
-6.71394e-06
-6.71915e-06
-6.72173e-06
-6.72041e-06
-5.36516e-06
-5.3413e-06
-6.70455e-06
-6.71394e-06
-6.71837e-06
-6.72103e-06
-6.72255e-06
-6.72078e-06
-5.36535e-06
)
;
    }
    procBoundary1to0
    {
        type            processor;
        value           nonuniform List<scalar> 
256
(
-4.76669e-07
-2.66532e-07
-1.34148e-07
-6.96675e-08
-3.89211e-08
-2.37864e-08
-1.60039e-08
-1.18148e-08
-9.41647e-09
-7.88876e-09
-6.81051e-09
-5.99782e-09
-5.38837e-09
-4.96909e-09
-4.75816e-09
-4.76498e-09
-4.95401e-09
-5.23022e-09
-5.44355e-09
-5.56449e-09
-5.707e-09
-6.01335e-09
-6.5908e-09
-7.5553e-09
-9.12335e-09
-1.17367e-08
-1.62249e-08
-2.42418e-08
-3.94416e-08
-7.0092e-08
-1.34421e-07
-2.66659e-07
-2.36469e-07
-1.65137e-07
-9.75521e-08
-5.63859e-08
-3.38287e-08
-2.16939e-08
-1.5084e-08
-1.13804e-08
-9.1924e-09
-7.75656e-09
-6.72646e-09
-5.95089e-09
-5.36883e-09
-4.96897e-09
-4.77316e-09
-4.78187e-09
-4.95684e-09
-5.22154e-09
-5.45268e-09
-5.60988e-09
-5.77185e-09
-6.06974e-09
-6.61434e-09
-7.51695e-09
-8.97319e-09
-1.13584e-08
-1.53411e-08
-2.21665e-08
-3.43446e-08
-5.67893e-08
-9.78001e-08
-1.65247e-07
-1.13127e-07
-9.15078e-08
-6.26924e-08
-4.08974e-08
-2.69441e-08
-1.85523e-08
-1.35943e-08
-1.06308e-08
-8.78152e-09
-7.51336e-09
-6.58245e-09
-5.88239e-09
-5.35304e-09
-4.98346e-09
-4.80455e-09
-4.81624e-09
-4.97083e-09
-5.21405e-09
-5.46136e-09
-5.65995e-09
-5.84625e-09
-6.13157e-09
-6.62806e-09
-7.43836e-09
-8.71553e-09
-1.07233e-08
-1.39142e-08
-1.90401e-08
-2.74385e-08
-4.12603e-08
-6.29025e-08
-9.15957e-08
-5.8164e-08
-5.13151e-08
-3.94898e-08
-2.8746e-08
-2.08111e-08
-1.54865e-08
-1.20488e-08
-9.82487e-09
-8.33751e-09
-7.26558e-09
-6.46421e-09
-5.85569e-09
-5.37755e-09
-5.0329e-09
-4.86822e-09
-4.88371e-09
-5.02413e-09
-5.24558e-09
-5.48709e-09
-5.70289e-09
-5.90453e-09
-6.17569e-09
-6.62258e-09
-7.34299e-09
-8.43297e-09
-1.00354e-08
-1.24135e-08
-1.59517e-08
-2.12468e-08
-2.90409e-08
-3.96439e-08
-5.13726e-08
-3.31277e-08
-3.07627e-08
-2.5837e-08
-2.06327e-08
-1.62714e-08
-1.30347e-08
-1.07532e-08
-9.14244e-09
-7.97329e-09
-7.0834e-09
-6.39895e-09
-5.86299e-09
-5.41699e-09
-5.08166e-09
-4.92803e-09
-4.9555e-09
-5.10254e-09
-5.3171e-09
-5.54255e-09
-5.7518e-09
-5.94277e-09
-6.18761e-09
-6.5922e-09
-7.24449e-09
-8.18095e-09
-9.43896e-09
-1.11377e-08
-1.34498e-08
-1.66163e-08
-2.08281e-08
-2.59068e-08
-3.07727e-08
-2.12447e-08
-2.03551e-08
-1.82306e-08
-1.56802e-08
-1.32825e-08
-1.13274e-08
-9.82912e-09
-8.67406e-09
-7.75513e-09
-6.99868e-09
-6.37913e-09
-5.86675e-09
-5.43035e-09
-5.10374e-09
-4.96491e-09
-5.01555e-09
-5.19215e-09
-5.42068e-09
-5.63282e-09
-5.81079e-09
-5.96699e-09
-6.18478e-09
-6.56693e-09
-7.1766e-09
-8.00216e-09
-9.01292e-09
-1.02238e-08
-1.1696e-08
-1.35365e-08
-1.57816e-08
-1.82344e-08
-2.03348e-08
-1.56149e-08
-1.52393e-08
-1.42475e-08
-1.29135e-08
-1.15235e-08
-1.02846e-08
-9.25648e-09
-8.40163e-09
-7.66143e-09
-6.99102e-09
-6.39167e-09
-5.86886e-09
-5.42782e-09
-5.11576e-09
-5.00032e-09
-5.0858e-09
-5.29966e-09
-5.54585e-09
-5.73469e-09
-5.85824e-09
-5.97227e-09
-6.1758e-09
-6.55473e-09
-7.15113e-09
-7.9156e-09
-8.76924e-09
-9.67532e-09
-1.06366e-08
-1.17287e-08
-1.29727e-08
-1.42341e-08
-1.52196e-08
-1.3321e-08
-1.31117e-08
-1.25232e-08
-1.16633e-08
-1.06952e-08
-9.7743e-09
-8.96068e-09
-8.25541e-09
-7.61649e-09
-6.99782e-09
-6.40535e-09
-5.86918e-09
-5.42422e-09
-5.12768e-09
-5.03249e-09
-5.13975e-09
-5.37631e-09
-5.62707e-09
-5.78915e-09
-5.87059e-09
-5.96174e-09
-6.1651e-09
-6.54543e-09
-7.13482e-09
-7.86781e-09
-8.63981e-09
-9.3978e-09
-1.01217e-08
-1.08837e-08
-1.17123e-08
-1.25166e-08
-1.31016e-08
)
;
    }
    procBoundary1to2
    {
        type            processor;
        value           nonuniform List<scalar> 
256
(
1.17184e-07
1.01651e-07
7.66007e-08
5.47869e-08
3.88814e-08
2.86604e-08
2.24181e-08
1.87907e-08
1.6656e-08
1.47748e-08
1.31007e-08
1.14986e-08
1.01982e-08
9.16299e-09
8.57433e-09
8.70205e-09
9.56889e-09
1.09979e-08
1.14569e-08
1.08854e-08
1.04254e-08
1.07003e-08
1.16285e-08
1.3063e-08
1.49697e-08
1.80137e-08
2.3014e-08
3.02734e-08
4.06874e-08
5.59304e-08
7.72119e-08
1.01904e-07
9.45287e-08
8.46462e-08
6.64264e-08
4.91803e-08
3.58713e-08
2.70367e-08
2.15736e-08
1.83322e-08
1.64324e-08
1.44664e-08
1.27163e-08
1.12019e-08
9.94538e-09
8.96943e-09
8.57932e-09
8.73333e-09
9.41608e-09
1.06326e-08
1.12917e-08
1.11932e-08
1.08842e-08
1.10644e-08
1.18336e-08
1.30199e-08
1.47214e-08
1.75981e-08
2.22413e-08
2.88051e-08
3.76978e-08
5.01893e-08
6.68354e-08
8.47207e-08
6.90987e-08
6.37002e-08
5.24835e-08
4.07667e-08
3.09973e-08
2.4312e-08
2.00887e-08
1.73736e-08
1.5654e-08
1.38221e-08
1.21181e-08
1.08762e-08
9.89354e-09
8.99911e-09
8.64051e-09
8.90169e-09
9.36029e-09
1.02234e-08
1.11436e-08
1.15409e-08
1.14145e-08
1.15064e-08
1.21573e-08
1.31766e-08
1.47552e-08
1.72098e-08
2.11022e-08
2.62934e-08
3.28246e-08
4.16266e-08
5.28054e-08
6.37211e-08
4.86876e-08
4.60231e-08
3.99171e-08
3.27587e-08
2.63515e-08
2.18582e-08
1.87362e-08
1.64521e-08
1.48881e-08
1.32259e-08
1.19208e-08
1.10944e-08
1.02008e-08
9.34231e-09
9.02054e-09
9.30355e-09
9.60053e-09
1.02125e-08
1.09853e-08
1.15021e-08
1.16763e-08
1.1845e-08
1.2319e-08
1.33173e-08
1.48627e-08
1.68124e-08
1.98053e-08
2.35271e-08
2.79237e-08
3.34565e-08
4.01826e-08
4.6072e-08
3.46982e-08
3.37627e-08
3.09598e-08
2.68821e-08
2.27368e-08
1.98204e-08
1.76943e-08
1.58079e-08
1.42934e-08
1.29211e-08
1.2028e-08
1.15536e-08
1.06433e-08
9.52923e-09
9.22256e-09
9.55329e-09
9.9064e-09
1.04577e-08
1.09595e-08
1.15912e-08
1.18007e-08
1.18155e-08
1.21197e-08
1.32505e-08
1.49555e-08
1.66175e-08
1.87084e-08
2.107e-08
2.38514e-08
2.71164e-08
3.06642e-08
3.34281e-08
2.60651e-08
2.58925e-08
2.49937e-08
2.30172e-08
2.04352e-08
1.85253e-08
1.71704e-08
1.5793e-08
1.44265e-08
1.31215e-08
1.22205e-08
1.15537e-08
1.05877e-08
9.43566e-09
9.1108e-09
9.43519e-09
1.00636e-08
1.08053e-08
1.13414e-08
1.18697e-08
1.18468e-08
1.17232e-08
1.21188e-08
1.33183e-08
1.49716e-08
1.66728e-08
1.82065e-08
1.95025e-08
2.09125e-08
2.26336e-08
2.43801e-08
2.54743e-08
2.16381e-08
2.1622e-08
2.14855e-08
2.0478e-08
1.90112e-08
1.77757e-08
1.68825e-08
1.59852e-08
1.49565e-08
1.36404e-08
1.24311e-08
1.13965e-08
1.0288e-08
9.29158e-09
9.02792e-09
9.62317e-09
1.05395e-08
1.15538e-08
1.19924e-08
1.19241e-08
1.15767e-08
1.15283e-08
1.20786e-08
1.35626e-08
1.54163e-08
1.70474e-08
1.83334e-08
1.87989e-08
1.92374e-08
2.00768e-08
2.10466e-08
2.14725e-08
1.98078e-08
1.98326e-08
1.9833e-08
1.92616e-08
1.82343e-08
1.73669e-08
1.64837e-08
1.58354e-08
1.52199e-08
1.41382e-08
1.27786e-08
1.14491e-08
1.02597e-08
9.51093e-09
9.39708e-09
1.00352e-08
1.11621e-08
1.22121e-08
1.23099e-08
1.17766e-08
1.1398e-08
1.16064e-08
1.22118e-08
1.37208e-08
1.5627e-08
1.70755e-08
1.81996e-08
1.83287e-08
1.8422e-08
1.88911e-08
1.9688e-08
1.98616e-08
)
;
    }
}


// ************************************************************************* //
