FoamFile
{version 2.0; format ascii;class Cloud<passiveParticle>; location 0;object  positions;}
2498
(
( 0.00164256 -0.00391025 0.00608276 ) 0 
( 0.000400057 -0.00501312 0.00508393 ) 0 
( 0.0124398 -0.0009015 0.00353582 ) 0 
( 0.000131299 -0.0133496 0.00514727 ) 0 
( 0.0109664 -0.004034 0.00456427 ) 0 
( 0.00320654 -0.00405665 0.00549243 ) 0 
( 0.00491458 -0.0036233 0.000499456 ) 0 
( 0.00527291 -0.0122646 0.00236044 ) 0 
( 0.00437455 -0.00420138 0.00699852 ) 0 
( 0.00831306 -0.00579198 0.00410406 ) 0 
( 0.00457233 -0.0014724 0.00589918 ) 0 
( 0.0102184 -0.00707069 0.00639782 ) 0 
( 0.00511672 -0.00871997 0.00497165 ) 0 
( 0.00482688 -0.0105107 0.000499514 ) 0 
( 0.00505866 -0.00528588 0.00395729 ) 0 
( 0.00910926 -0.00848674 0.00409791 ) 0 
( 0.00922779 -0.00205314 0.000499644 ) 0 
( 0.0122174 -0.002511 0.00598018 ) 0 
( 0.00463872 -0.00603616 0.00723288 ) 0 
( 0.00224919 -0.0131595 0.00232696 ) 0 
( 0.00517675 -0.00144581 0.00148085 ) 0 
( 0.00751285 -0.00480999 0.000499575 ) 0 
( 0.00896581 -0.00418297 0.00629138 ) 0 
( 0.00401277 -0.0012939 0.0031418 ) 0 
( 0.00103707 -0.00700191 0.00548393 ) 0 
( 0.0102235 -0.00752732 0.00221755 ) 0 
( 0.00097516 -0.0033091 0.00288275 ) 0 
( 0.00376022 -0.00647804 0.00705346 ) 0 
( 0.00415953 -0.00694236 0.00612468 ) 0 
( 0.00894853 -0.00277107 0.00130017 ) 0 
( 0.000646929 -0.00978023 0.00147834 ) 0 
( 6.54314e-05 -0.00735098 0.00277322 ) 0 
( 0.00493168 -0.00381427 0.00586016 ) 0 
( 0.00924158 -0.00211205 0.00377474 ) 0 
( 0.00903135 -0.00293964 0.00325472 ) 0 
( 0.013338 -0.000570868 0.00478478 ) 0 
( 0.00626333 -0.000958333 0.000499802 ) 0 
( 0.0112657 -0.0042512 0.00201448 ) 0 
( 0.00763873 -0.0109487 0.00127978 ) 0 
( 0.0073895 -0.00747853 0.0054096 ) 0 
( 0.000182495 -0.00471301 0.00810876 ) 0 
( 0.00411499 -0.00435983 0.00604626 ) 0 
( 0.00560513 -0.0111683 0.00672512 ) 0 
( 0.00134633 -0.00866115 0.00221197 ) 0 
( 0.00761737 -0.00844285 0.00527703 ) 0 
( 0.00773009 -0.00099669 0.000499616 ) 0 
( 0.00341101 -0.000350823 0.000499801 ) 0 
( 8.89831e-05 -0.0010511 0.0055885 ) 0 
( 0.00833852 -0.00981762 0.00347993 ) 0 
( 0.00416727 -0.00517891 0.00702736 ) 0 
( 0.00456065 -0.00738919 0.00364291 ) 0 
( 0.0133231 -0.000854411 0.00665134 ) 0 
( 0.00230788 -0.0112667 0.00646626 ) 0 
( 0.00183986 -0.00553883 0.00530782 ) 0 
( 0.00754121 -0.00372719 0.000499797 ) 0 
( 0.00058015 -0.000737342 0.000499624 ) 0 
( 0.00940008 -0.00948061 0.000499337 ) 0 
( 0.00860277 -0.00904167 0.00246033 ) 0 
( 0.00315603 -0.006165 0.00405684 ) 0 
( 0.0120467 -0.00350173 0.00579433 ) 0 
( 0.0015475 -0.00719219 0.00223956 ) 0 
( 0.00716295 -0.00114793 0.00519551 ) 0 
( 0.00793774 -0.0107338 0.00348702 ) 0 
( 0.00825605 -0.00149385 0.0056823 ) 0 
( 0.00938074 -0.00501146 0.00495874 ) 0 
( 0.00399503 -0.00120209 0.00512912 ) 0 
( 0.00888853 -0.0040358 0.00462984 ) 0 
( 0.00096712 -0.01042 0.00695676 ) 0 
( 0.00559486 -0.00908613 0.00576939 ) 0 
( 0.00368899 -0.00355764 0.00209057 ) 0 
( 0.00244161 -0.00685384 0.000499638 ) 0 
( 0.00828847 -0.00744759 0.000499801 ) 0 
( 0.0107196 -0.00344849 0.00376124 ) 0 
( 0.00602736 -0.00264152 0.0058376 ) 0 
( 0.00699564 -0.00109483 0.00319841 ) 0 
( 0.00368056 -0.00129568 0.0066214 ) 0 
( 0.0116475 -0.00466939 0.00283811 ) 0 
( 0.000456715 -0.0024544 0.00290535 ) 0 
( 0.00926815 -0.00726258 0.00615233 ) 0 
( 0.00179655 -0.00350252 0.00386292 ) 0 
( 0.00985224 -0.00426668 0.00674507 ) 0 
( 0.00726285 -0.00699279 0.000499682 ) 0 
( 0.00472129 -0.00396811 0.00206578 ) 0 
( 0.00212639 -0.0123586 0.00644459 ) 0 
( 0.00868567 -0.00887252 0.00613915 ) 0 
( 0.000492135 -0.0123417 0.000499796 ) 0 
( 0.0092266 -0.00158333 0.00546004 ) 0 
( 0.0109519 -0.00501495 0.0010978 ) 0 
( 0.00519788 -0.00521215 0.00714378 ) 0 
( 0.00333519 -0.00752559 0.0004998 ) 0 
( 0.0094707 -0.00825817 0.00500133 ) 0 
( 0.0015375 -0.0109321 0.00512247 ) 0 
( 0.00201802 -0.00505863 0.003839 ) 0 
( 0.001109 -0.00393408 0.00211358 ) 0 
( 0.00183629 -0.0105477 0.000499611 ) 0 
( 0.00541755 -0.00707976 0.00480609 ) 0 
( 0.00233608 -0.00516358 0.00106443 ) 0 
( 0.00726523 -0.00916442 0.00468134 ) 0 
( 0.00446528 -0.0123651 0.00138543 ) 0 
( 0.00161254 -0.00642521 0.00490433 ) 0 
( 0.00456338 -0.011477 0.000499771 ) 0 
( 0.000549722 -0.00371146 0.00740241 ) 0 
( 0.0106359 -0.00625249 0.00136814 ) 0 
( 0.00381335 -0.00292393 0.00356428 ) 0 
( 0.0013821 -0.00171539 0.00761374 ) 0 
( 0.00290451 -0.00774945 0.00583471 ) 0 
( 0.0117535 -0.00442087 0.00115821 ) 0 
( 0.00579944 -0.00780485 0.00117356 ) 0 
( 0.00762114 -0.00436906 0.00509796 ) 0 
( 0.00108721 -0.0133057 0.000499815 ) 0 
( 0.00195327 -0.00598123 0.000499733 ) 0 
( 0.00655927 -0.00270373 0.00700549 ) 0 
( 0.000174477 -0.00107596 0.00413374 ) 0 
( 0.0118573 -0.00613404 0.00145786 ) 0 
( 0.0043389 -0.00215354 0.00520551 ) 0 
( 0.00188713 -0.0114359 0.000955763 ) 0 
( 0.00447302 -0.00564917 0.00505474 ) 0 
( 0.011818 -0.00620961 0.00438709 ) 0 
( 0.00656914 -0.00448134 0.000499495 ) 0 
( 0.0109605 -0.00261548 0.00681017 ) 0 
( 0.00277783 -0.00489439 0.00515227 ) 0 
( 0.00805648 -0.00994535 0.0063398 ) 0 
( 0.00507663 -0.00463778 0.00136128 ) 0 
( 0.000977251 -0.0033467 0.00462683 ) 0 
( 0.00778434 -0.00496625 0.00431256 ) 0 
( 0.00295071 -0.00699783 0.00672753 ) 0 
( 0.00831112 -0.00436412 0.000902903 ) 0 
( 0.0030837 -0.00977061 0.0020181 ) 0 
( 0.00687636 -0.00967441 0.00690816 ) 0 
( 0.00783669 -0.00992951 0.00119512 ) 0 
( 0.0104042 -0.00529691 0.00629468 ) 0 
( 0.00113714 -0.00879334 0.00555504 ) 0 
( 0.00429834 -0.00146835 0.00195774 ) 0 
( 0.00267272 -0.010744 0.00462276 ) 0 
( 0.0116629 -0.00117221 0.00644335 ) 0 
( 0.00761987 -0.00937168 0.00564708 ) 0 
( 0.00698795 -0.00326763 0.00492837 ) 0 
( 0.0100216 -0.00568676 0.00545756 ) 0 
( 0.0131674 -0.00220103 0.00584537 ) 0 
( 0.00923361 -0.00740152 0.00227839 ) 0 
( 0.00587373 -0.0100595 0.00098504 ) 0 
( 0.00899746 -0.00671533 0.000499518 ) 0 
( 0.00380593 -0.0111007 0.00198891 ) 0 
( 0.00327551 -0.00504719 0.00648688 ) 0 
( 0.00471487 -0.00989502 0.00287103 ) 0 
( 0.00960504 -0.00689042 0.00316949 ) 0 
( 0.00364459 -0.00983764 0.00294412 ) 0 
( 0.00654389 -0.0063438 0.006131 ) 0 
( 0.0102545 -0.00260275 0.00610257 ) 0 
( 0.00431256 -0.00487584 0.00196076 ) 0 
( 0.0104705 -0.0048553 0.00195927 ) 0 
( 0.00448264 -0.0043983 0.00359895 ) 0 
( 0.00564192 -0.000481289 0.00298285 ) 0 
( 0.00213297 -0.00121159 0.00132862 ) 0 
( 0.00925857 -0.00694396 0.00710096 ) 0 
( 0.00896743 -0.00123496 0.00338096 ) 0 
( 0.00618214 -0.000434256 0.00134874 ) 0 
( 0.000203029 -0.00651871 0.00775832 ) 0 
( 0.00627198 -0.00843403 0.00300719 ) 0 
( 3.32386e-05 -0.00539767 0.00322043 ) 0 
( 0.00608557 -2.03799e-06 0.00547407 ) 0 
( 0.00230164 -0.00868128 0.00326558 ) 0 
( 0.00287437 -0.013037 0.00621649 ) 0 
( 0.000357934 -0.0005018 0.0020746 ) 0 
( 0.000906149 -0.00327389 0.0058508 ) 0 
( 0.00288952 -0.00975986 0.000499474 ) 0 
( 0.00384963 -0.0108118 0.00635782 ) 0 
( 0.0132163 -0.00188563 0.00307083 ) 0 
( 0.00129324 -0.00517945 0.00742708 ) 0 
( 0.00598819 -0.00155343 0.00353144 ) 0 
( 0.0053857 -0.00910762 0.000499701 ) 0 
( 0.00288064 -0.00639318 0.0075208 ) 0 
( 0.0126569 -0.00424671 0.00615911 ) 0 
( 0.000775122 -0.00385895 0.000499444 ) 0 
( 0.00112524 -0.00558033 0.00459736 ) 0 
( 0.0072369 -0.00819252 0.00311695 ) 0 
( 0.0041209 -0.00205391 0.00394914 ) 0 
( 0.00652849 -0.00751294 0.00271549 ) 0 
( 0.00199382 -0.0027207 0.00158344 ) 0 
( 0.00507201 -0.00725136 0.00157858 ) 0 
( 0.000161389 -0.00554158 0.0075508 ) 0 
( 0.0105648 -0.00816167 0.000500087 ) 0 
( 0.00048209 -0.00960045 0.00731735 ) 0 
( 0.0123107 -0.00189499 0.0022971 ) 0 
( 0.00167803 -0.00169759 0.00572551 ) 0 
( 0.00221019 -0.00692844 0.00153891 ) 0 
( 0.000279211 -0.00401633 0.0027263 ) 0 
( 0.000432619 -0.0041797 0.00453245 ) 0 
( 0.00371561 -0.0035406 0.00735696 ) 0 
( 0.00652561 -8.04941e-05 0.00636833 ) 0 
( 0.010483 -0.00368119 0.00564099 ) 0 
( 0.00293942 -0.00583443 0.00149497 ) 0 
( 0.00457816 -0.00473052 0.000499637 ) 0 
( 0.00467837 -0.0114101 0.00159088 ) 0 
( 0.00325159 -0.0106521 0.00128856 ) 0 
( 0.0108546 -0.00212073 0.000499788 ) 0 
( 0.00886019 -0.00998299 0.0011745 ) 0 
( 0.00291805 -0.0122667 0.00464004 ) 0 
( 0.000986053 -0.00799505 0.00687653 ) 0 
( 0.0106864 -0.00260864 0.0043043 ) 0 
( 0.00859071 -0.00499789 0.0067554 ) 0 
( 0.00229982 -0.00896211 0.00220263 ) 0 
( 0.000898178 -0.0039078 0.00368652 ) 0 
( 0.00800798 -0.00110526 0.0037993 ) 0 
( 0.0019718 -0.0103962 0.00584604 ) 0 
( 0.0115148 -0.00343884 0.00140722 ) 0 
( 0.00287312 -0.0104625 0.00628266 ) 0 
( 0.00238794 -0.010149 0.00127176 ) 0 
( 0.00687798 -0.00967338 0.00131531 ) 0 
( 0.00972472 -0.00450673 0.00416709 ) 0 
( 0.00711754 -0.011295 0.000499943 ) 0 
( 0.000792878 -0.0079875 0.00506763 ) 0 
( 0.0100402 -0.00579747 0.00446424 ) 0 
( 0.00273667 -0.00131231 0.00453184 ) 0 
( 0.00544777 -0.000633327 0.00199697 ) 0 
( 0.00739527 -0.00639293 0.00667373 ) 0 
( 0.00764766 -0.00166266 0.00269612 ) 0 
( 0.00696201 -0.00878899 0.00177402 ) 0 
( 0.00881385 -0.00753199 0.00412946 ) 0 
( 0.00241974 -0.00420354 0.00351151 ) 0 
( 0.0100553 -0.00878126 0.00364096 ) 0 
( 0.00737041 -0.0101485 0.00505575 ) 0 
( 0.00928663 -0.00473093 0.0032499 ) 0 
( 0.00654976 -0.00605716 0.00708897 ) 0 
( 0.0102174 -0.00684657 0.00737204 ) 0 
( 0.00555643 -0.00910498 0.00280363 ) 0 
( 0.00593247 -0.00289529 0.00104737 ) 0 
( 0.00518221 -0.00469708 0.00628742 ) 0 
( 0.00969825 -0.00472873 0.00587198 ) 0 
( 0.00158868 -0.00769199 0.00136479 ) 0 
( 0.00695918 -0.00161358 0.0019585 ) 0 
( 0.00466742 -0.00273248 0.00443954 ) 0 
( 0.00740682 -0.00933421 0.000499767 ) 0 
( 0.00255228 -0.00796129 0.00147792 ) 0 
( 0.00166662 -0.0132458 0.00641132 ) 0 
( 0.0058517 -0.010593 0.00590358 ) 0 
( 0.00639947 -0.0113053 0.00539868 ) 0 
( 0.00034011 -0.0111093 0.00300351 ) 0 
( 0.00128595 -0.0033284 0.00120553 ) 0 
( 0.000828938 -0.0101849 0.00314459 ) 0 
( 0.00230018 -0.00427804 0.00451578 ) 0 
( 0.00770468 -0.00386396 0.00423892 ) 0 
( 0.012051 -0.00037975 0.00429523 ) 0 
( 0.00184904 -0.0120842 0.00375352 ) 0 
( 0.00944336 -0.00823541 0.0060002 ) 0 
( 0.00955522 -0.000791074 0.00493604 ) 0 
( 0.00468734 -0.0104727 0.00452112 ) 0 
( 0.000676959 -0.0014361 0.00229442 ) 0 
( 0.00327924 -0.00202235 0.00821424 ) 0 
( 0.00410029 -0.00370118 0.00299054 ) 0 
( 0.0130482 -0.00279004 0.00346415 ) 0 
( 0.00269003 -0.0095408 0.00291866 ) 0 
( 0.00314081 -0.00677101 0.00120934 ) 0 
( 0.00570552 -0.0112039 0.00396681 ) 0 
( 0.0076514 -0.000285582 0.00147872 ) 0 
( 0.0051386 -0.0026318 0.00049963 ) 0 
( 0.00202021 -0.00709421 0.00311525 ) 0 
( 0.0117891 -0.000556793 0.00566582 ) 0 
( 0.00984926 -0.00785054 0.00330468 ) 0 
( 0.00804657 -0.00223838 0.00198253 ) 0 
( 0.00899317 -0.00503455 0.00127766 ) 0 
( 0.00542276 -0.0031731 0.00524465 ) 0 
( 0.00173367 -0.00126121 0.00320293 ) 0 
( 0.00637738 -0.0096447 0.00604252 ) 0 
( 0.00880142 -0.00555553 0.00295932 ) 0 
( 0.000674971 -0.0029359 0.00376084 ) 0 
( 0.0078425 -0.00470955 0.00615862 ) 0 
( 0.000640747 -0.00806925 0.00102278 ) 0 
( 0.00296794 -0.00252554 0.00411223 ) 0 
( 0.00571566 -0.00343897 0.00635402 ) 0 
( 0.00481896 -0.00253044 0.00605327 ) 0 
( 0.00595355 -0.000366531 0.00785106 ) 0 
( 0.013252 -0.0016172 0.00210755 ) 0 
( 0.00491095 -0.00262792 0.00741615 ) 0 
( 0.0130496 -0.00278813 0.000499725 ) 0 
( 0.00706092 -0.000213023 0.00553445 ) 0 
( 0.00985955 -0.00171652 0.00634384 ) 0 
( 0.00637632 -0.00732024 0.00599531 ) 0 
( 0.0101959 -0.00861794 0.00131409 ) 0 
( 0.0112538 -0.000233172 0.00246393 ) 0 
( 0.00733591 -0.0105374 0.00669991 ) 0 
( 0.000694381 -0.00271919 0.00736411 ) 0 
( 0.00458943 -0.00327999 0.006675 ) 0 
( 0.00214919 -0.00485626 0.00782981 ) 0 
( 0.0103665 -0.0084126 0.0026594 ) 0 
( 0.00306056 -0.0129913 0.000499741 ) 0 
( 0.00442972 -0.00579229 0.00256232 ) 0 
( 0.01248 -0.000936581 0.00252332 ) 0 
( 0.0074829 -0.00924235 0.00345336 ) 0 
( 0.00133233 -0.0084454 0.0031956 ) 0 
( 0.0113659 -0.00700332 0.00141166 ) 0 
( 0.00597599 -0.0045453 0.00325012 ) 0 
( 0.00776496 -0.00230145 0.00535642 ) 0 
( 0.00684545 -0.0105019 0.00582957 ) 0 
( 0.00692633 -0.00174908 0.000499795 ) 0 
( 0.00797497 -0.00148892 0.00472266 ) 0 
( 0.00416175 -0.012684 0.00499284 ) 0 
( 0.00234044 -0.00534587 0.00212896 ) 0 
( 0.0101775 -0.00480906 0.000499671 ) 0 
( 0.0031383 -0.00603432 0.00640811 ) 0 
( 0.00307197 -0.00047832 0.0021363 ) 0 
( 0.00536836 -0.00764435 0.00244903 ) 0 
( 0.00233187 -0.0058063 0.00315649 ) 0 
( 0.0093806 -0.0067007 0.0041321 ) 0 
( 0.00433168 -0.00806186 0.00163034 ) 0 
( 0.00821582 -0.00727002 0.00488672 ) 0 
( 0.00043896 -0.00484181 0.00613348 ) 0 
( 0.00119122 -0.00556448 0.00359344 ) 0 
( 0.0102194 -0.00191167 0.00371584 ) 0 
( 0.00148583 -0.0031919 0.0077503 ) 0 
( 0.0132913 -0.00125117 0.00400127 ) 0 
( 0.00248845 -0.00344452 0.00582304 ) 0 
( 0.00712204 -0.00256371 0.00222328 ) 0 
( 0.00333524 -0.0057436 0.003168 ) 0 
( 0.00189951 -0.00827907 0.00716795 ) 0 
( 0.00608754 -0.00353758 0.00458688 ) 0 
( 0.00366161 -0.00511067 0.00556671 ) 0 
( 0.00611544 -0.00257173 0.00484341 ) 0 
( 0.00764198 -0.0107759 0.00252963 ) 0 
( 0.000130272 -0.0124882 0.0056603 ) 0 
( 0.00605553 -0.00443405 0.00135586 ) 0 
( 0.00383267 -0.000206401 0.00377453 ) 0 
( 0.013017 -0.0029653 0.00497154 ) 0 
( 0.0016303 -0.0100039 0.0037138 ) 0 
( 0.0124755 -0.00213337 0.00509128 ) 0 
( 0.000623065 -0.00652442 0.00470783 ) 0 
( 0.00449439 -0.0108169 0.00543974 ) 0 
( 0.00116703 -0.00654988 0.00334353 ) 0 
( 0.0100682 -0.00406887 0.00770058 ) 0 
( 0.0128202 -0.00372476 0.000763246 ) 0 
( 0.0095816 -0.00543988 0.00214209 ) 0 
( 0.00348181 -0.0043069 0.00349098 ) 0 
( 0.000903177 -0.013318 0.0037222 ) 0 
( 0.00190259 -0.00943631 0.0055751 ) 0 
( 0.00701538 -0.0113567 0.00304924 ) 0 
( 0.00265112 -0.0122076 0.00560691 ) 0 
( 0.00662189 -0.00195243 0.00283673 ) 0 
( 0.00459586 -0.0125342 0.00410531 ) 0 
( 0.00774048 -0.00549181 0.00694141 ) 0 
( 0.00137877 -0.00209059 0.00277167 ) 0 
( 0.00834198 -0.00437064 0.0033843 ) 0 
( 0.0126215 -0.00152785 0.00688171 ) 0 
( 0.00982374 -0.000722098 0.00306814 ) 0 
( 0.00876251 -0.00805402 0.00672086 ) 0 
( 0.00391778 -0.00354891 0.000501694 ) 0 
( 0.00397566 -0.00243356 0.000499704 ) 0 
( 0.00214446 -0.00760787 0.00646858 ) 0 
( 0.00628806 -0.00986024 0.00210037 ) 0 
( 0.0044092 -0.000430062 0.00049959 ) 0 
( 0.00545496 -0.00977236 0.00651066 ) 0 
( 0.000752288 -0.00219466 0.00822451 ) 0 
( 0.00280329 -0.00885902 0.00640931 ) 0 
( 0.00756103 -0.00204286 0.00693238 ) 0 
( 0.000506735 -0.008811 0.00167967 ) 0 
( 0.0109991 -0.0048682 0.00545947 ) 0 
( 0.00558953 -0.00468203 0.0004998 ) 0 
( 0.000698587 -0.0116483 0.00582532 ) 0 
( 0.00921192 -0.00723152 0.00499628 ) 0 
( 0.000455638 -0.00506285 0.00406416 ) 0 
( 0.000284865 -0.000633573 0.00324282 ) 0 
( 0.0103584 -0.00840927 0.00453922 ) 0 
( 0.000340294 -0.00700302 0.000499643 ) 0 
( 0.000445397 -0.00280046 0.00132553 ) 0 
( 0.00470695 -0.00658754 0.00530857 ) 0 
( 0.0115306 -0.00121256 0.0023732 ) 0 
( 0.00331246 -0.00978128 0.00686798 ) 0 
( 0.00932846 -0.0079601 0.00128065 ) 0 
( 0.0101411 -0.00524518 0.00363703 ) 0 
( 0.0087094 -0.00119858 0.000499236 ) 0 
( 0.010542 -0.00136602 0.00452048 ) 0 
( 0.00328025 -0.0107948 0.00382958 ) 0 
( 0.000846817 -0.00167536 0.00677032 ) 0 
( 0.00360233 -0.0020513 0.00142093 ) 0 
( 9.76631e-05 -0.00459435 0.000499749 ) 0 
( 0.00381682 -0.00746503 0.00690491 ) 0 
( 0.00318564 -0.00415682 0.00133973 ) 0 
( 0.0117847 -0.00419302 0.00512116 ) 0 
( 0.00833812 -0.0104262 0.00190292 ) 0 
( 0.000820836 -0.0105499 0.00221427 ) 0 
( 2.87119e-05 -0.00737124 0.00487749 ) 0 
( 0.000792296 -0.00188162 0.00365645 ) 0 
( 0.00153995 -0.0026699 0.0053676 ) 0 
( 0.00962687 -0.00850728 0.000499467 ) 0 
( 0.000986049 -0.00750972 0.00312965 ) 0 
( 0.00415944 -0.00718865 0.00117511 ) 0 
( 0.00773005 -0.0029563 0.0065633 ) 0 
( 0.00103606 -0.00162699 0.000499733 ) 0 
( 0.00671822 -0.00391224 0.0030157 ) 0 
( 0.00935957 -0.00353974 0.0022334 ) 0 
( 0.0011058 -0.00943318 0.00440591 ) 0 
( 0.00310891 -0.00240743 0.00657063 ) 0 
( 0.00177742 -0.00159399 0.00451384 ) 0 
( 7.84378e-06 -0.0098377 0.000712103 ) 0 
( 0.0110265 -0.00385723 0.00290193 ) 0 
( 0.00246591 -0.000482716 0.00404372 ) 0 
( 0.00209768 -0.00276382 0.00454309 ) 0 
( 0.00307243 -0.0120694 0.00658884 ) 0 
( 0.00167543 -0.00752992 0.00492434 ) 0 
( 0.00518353 -0.00398011 0.00302146 ) 0 
( 0.00851765 -0.00342278 0.000499797 ) 0 
( 0.0107524 -0.00779287 0.00141029 ) 0 
( 0.00359597 -0.00655925 0.00488459 ) 0 
( 0.0113429 -0.00704 0.00632005 ) 0 
( 0.00672383 -0.00609854 0.0044009 ) 0 
( 0.00985024 -0.00658284 0.00224589 ) 0 
( 0.0021121 -0.00804228 0.00401093 ) 0 
( 0.0121079 -0.00275445 0.00182954 ) 0 
( 0.00919554 -0.00452562 0.00226362 ) 0 
( 0.00089328 -0.00574325 0.00555621 ) 0 
( 0.00344869 -0.003701 0.00639495 ) 0 
( 0.00553488 -0.00762479 0.00390104 ) 0 
( 0.00126081 -0.00245613 0.00630348 ) 0 
( 0.0082162 -0.000847864 0.0028469 ) 0 
( 0.00677786 -0.00513667 0.00467027 ) 0 
( 0.00157294 -0.000462376 0.000499799 ) 0 
( 0.00354571 -0.0121154 0.0016883 ) 0 
( 0.00897226 -0.00159798 0.00678902 ) 0 
( 0.00308539 -0.00978148 0.00384888 ) 0 
( 0.00622678 -0.00483042 0.00548207 ) 0 
( 0.00281768 -0.00239948 0.000808431 ) 0 
( 0.00679311 -0.00350975 0.0064619 ) 0 
( 0.000202173 -0.00315196 0.0022295 ) 0 
( 0.00998936 -0.00257511 0.00236922 ) 0 
( 0.00410579 -0.00638641 0.0032984 ) 0 
( 0.000763017 -0.00587667 0.00166258 ) 0 
( 0.00550261 -0.00588083 0.00049953 ) 0 
( 0.00313263 -0.00678044 0.00574267 ) 0 
( 0.0110159 -0.0042165 0.000499503 ) 0 
( 0.000209879 -0.0110633 0.00400945 ) 0 
( 0.00100534 -0.00267811 0.00049973 ) 0 
( 0.00237819 -0.00785168 0.000499637 ) 0 
( 0.0106065 -0.000403405 0.00123277 ) 0 
( 0.000828799 -0.00895328 0.0066387 ) 0 
( 0.00695358 -0.0067815 0.00218301 ) 0 
( 0.00621024 -0.00162146 0.00450763 ) 0 
( 0.0089866 -0.00987243 0.00454127 ) 0 
( 0.00508962 -0.00725968 0.00594214 ) 0 
( 0.00362324 -0.00973084 0.00117738 ) 0 
( 0.0063784 -0.0107345 0.00457796 ) 0 
( 0.00741242 -0.0028507 0.00750497 ) 0 
( 0.00201918 -0.00480879 0.00683979 ) 0 
( 0.00702362 -0.00267237 0.00591539 ) 0 
( 0.00339735 -0.00267905 0.00268887 ) 0 
( 0.000361159 -0.0133452 0.00612044 ) 0 
( 0.00698137 -0.00429704 0.00586306 ) 0 
( 0.00259573 -0.00659786 0.00484562 ) 0 
( 0.0112934 -0.00309078 0.00231799 ) 0 
( 0.00641834 -0.0106151 0.00358596 ) 0 
( 0.00586041 -0.00139341 0.00249929 ) 0 
( 0.00815889 -0.00371752 0.00174024 ) 0 
( 0.0117738 -0.00237415 0.00440112 ) 0 
( 0.00222013 -0.0113385 0.00308423 ) 0 
( 0.00268282 -0.00159518 0.0061727 ) 0 
( 0.00356066 -0.00545575 0.00463385 ) 0 
( 0.00263809 -0.0120415 0.0004997 ) 0 
( 0.00639484 -0.0117188 0.00702348 ) 0 
( 0.00394693 -0.0117736 0.00408643 ) 0 
( 0.00394609 -0.00605431 0.00136087 ) 0 
( 0.00069917 -0.00667541 0.00235274 ) 0 
( 0.0038068 -0.00881334 0.00638409 ) 0 
( 0.00729589 -0.0038392 0.00740903 ) 0 
( 0.00547748 -0.0108955 0.0049809 ) 0 
( 0.00413855 -0.0126924 0.00227189 ) 0 
( 0.00174208 -0.00852071 0.00480712 ) 0 
( 0.00360089 -0.00895535 0.00735173 ) 0 
( 0.00359088 -0.00649386 0.00218675 ) 0 
( 0.000103286 -0.010533 0.00744681 ) 0 
( 0.00247044 -0.00200655 0.00520023 ) 0 
( 0.00522983 -0.0113759 0.00582213 ) 0 
( 0.00297479 -0.000190255 0.00323419 ) 0 
( 0.00910876 -0.000888069 0.00217202 ) 0 
( 0.00157867 -0.00410282 0.0029801 ) 0 
( 0.00152004 -0.00973826 0.00099374 ) 0 
( 0.0085421 -0.00930723 0.00525057 ) 0 
( 0.00490959 -0.00935285 0.00368809 ) 0 
( 7.40443e-05 -0.000598299 0.00807065 ) 0 
( 0.00271532 -0.011024 0.000499515 ) 0 
( 0.00237473 -0.00180817 0.00374125 ) 0 
( 0.0119866 -0.0037872 0.00317156 ) 0 
( 0.00169919 -0.00940023 0.00291978 ) 0 
( 0.0106971 -0.00152195 0.00292307 ) 0 
( 0.00142896 -0.0132733 0.00457477 ) 0 
( 0.0119138 -0.00602436 0.00536489 ) 0 
( 0.003924 -0.001721 0.0075117 ) 0 
( 0.00590839 -0.0037313 0.000499731 ) 0 
( 0.00701924 -0.0113558 0.00200466 ) 0 
( 0.0027239 -0.0116227 0.00390017 ) 0 
( 0.00857855 -0.000719904 0.00513765 ) 0 
( 0.00607819 -0.0063445 0.00246417 ) 0 
( 0.00259528 -0.00901877 0.00498768 ) 0 
( 0.00758182 -0.00615582 0.00172138 ) 0 
( 0.00360562 -0.00449864 0.000499407 ) 0 
( 0.00130027 -0.00417346 0.00788341 ) 0 
( 0.000262069 -0.00671651 0.00145423 ) 0 
( 0.0024604 -0.0044805 0.00600518 ) 0 
( 0.000794008 -0.00924065 0.00347415 ) 0 
( 0.00629342 -0.000630082 0.00376346 ) 0 
( 0.0117153 -0.00545096 0.000499803 ) 0 
( 0.012227 -0.00535957 0.00645756 ) 0 
( 0.00585499 -0.0119447 0.000499356 ) 0 
( 0.0017256 -0.00436327 0.00137627 ) 0 
( 0.00980139 -0.00760627 0.00427776 ) 0 
( 0.000476378 -0.00822798 0.00604849 ) 0 
( 0.00243648 -0.0094017 0.00716469 ) 0 
( 0.00605855 -0.00717101 0.0019019 ) 0 
( 0.000992783 -0.011438 0.00178856 ) 0 
( 0.0133023 -0.00112791 0.00123195 ) 0 
( 0.0058993 -0.00702127 0.00755792 ) 0 
( 0.0114209 -0.00216229 0.00266637 ) 0 
( 0.00412408 -0.00983761 0.00206659 ) 0 
( 0.0048511 -0.00161721 0.000499671 ) 0 
( 0.00143582 -0.000828504 0.00701723 ) 0 
( 0.00399494 -0.00495035 0.00292293 ) 0 
( 0.00665451 -0.00534642 0.00623564 ) 0 
( 0.0112112 -0.0070049 0.00436223 ) 0 
( 0.000283037 -6.55185e-05 0.0011779 ) 0 
( 0.0120551 -0.00252 0.000499794 ) 0 
( 0.00590445 -0.00332402 0.00279906 ) 0 
( 0.000997201 -0.0107059 0.00597732 ) 0 
( 0.00528096 -0.00821791 0.00615311 ) 0 
( 0.00993357 -0.00701944 0.00135027 ) 0 
( 0.00622792 -0.00818647 0.00647221 ) 0 
( 0.0108042 -0.00784067 0.00605808 ) 0 
( 0.00195767 -0.0103407 0.00684395 ) 0 
( 0.00265263 -0.00198622 0.00174499 ) 0 
( 0.00185347 -0.00333258 0.00240301 ) 0 
( 0.00941811 -0.00190205 0.00190024 ) 0 
( 0.000411136 -0.0133438 0.00280096 ) 0 
( 0.00582888 -0.00698167 0.00319346 ) 0 
( 0.00502103 -0.00176678 0.00339386 ) 0 
( 0.00488019 -0.000755141 0.00525598 ) 0 
( 0.00714186 -0.00821752 0.00687628 ) 0 
( 0.00332465 -0.0095413 0.00589759 ) 0 
( 0.00777682 -0.000693232 0.00604063 ) 0 
( 0.00264336 -0.00326316 0.00679391 ) 0 
( 0.00340386 -0.0045023 0.00225227 ) 0 
( 0.00723509 -0.00302039 0.00397405 ) 0 
( 0.00485158 -0.00175381 0.00789803 ) 0 
( 0.0056125 -0.000578554 0.0061399 ) 0 
( 0.0069181 -0.000514257 0.00762276 ) 0 
( 0.0093311 -0.00251736 0.00662481 ) 0 
( 0.00536485 -0.00407381 0.00704806 ) 0 
( 0.00675313 -0.00579391 0.00049945 ) 0 
( 0.00343587 -0.011828 0.00322857 ) 0 
( 0.00324499 -0.00155006 0.000499493 ) 0 
( 0.00165734 -0.000303989 0.00348183 ) 0 
( 0.0112032 -0.00207158 0.0036379 ) 0 
( 0.00814278 -0.0105787 0.000499515 ) 0 
( 0.00280219 -0.00343539 0.00482142 ) 0 
( 0.00830927 -0.00198575 0.00343291 ) 0 
( 0.00630322 -0.00362066 0.00556575 ) 0 
( 0.00949498 -0.00301631 0.00049979 ) 0 
( 0.00492319 -0.000956618 0.0067599 ) 0 
( 0.010871 -0.00133229 0.00714779 ) 0 
( 0.00338729 -0.00164368 0.00233033 ) 0 
( 0.00278461 -0.00491998 0.00291698 ) 0 
( 0.00357202 -0.00753137 0.00511907 ) 0 
( 0.00615599 -0.00688322 0.00415366 ) 0 
( 0.00661627 -0.0106662 0.0012693 ) 0 
( 0.00489003 -0.00685232 0.00286662 ) 0 
( 0.010207 -0.00458853 0.00288593 ) 0 
( 0.00658153 -0.00100684 0.00599656 ) 0 
( 0.0118573 -0.00367675 0.000499156 ) 0 
( 0.00477273 -0.0047515 0.00537728 ) 0 
( 0.0101819 -0.00863486 0.00654299 ) 0 
( 0.000856437 -0.0103489 0.000499548 ) 0 
( 0.00164583 -0.00621922 0.00253004 ) 0 
( 0.00764438 -0.00359383 0.00324781 ) 0 
( 0.00691802 -0.00880525 0.00609522 ) 0 
( 0.00471573 -0.00030407 0.00331583 ) 0 
( 0.00217216 -0.00704288 0.0056442 ) 0 
( 0.000244396 -0.00920192 0.00536574 ) 0 
( 0.00269465 -0.00545723 0.00718982 ) 0 
( 0.0105034 -0.00579884 0.00228823 ) 0 
( 0.00353926 -0.00930606 0.00482579 ) 0 
( 0.0122829 -0.00523085 0.00140889 ) 0 
( 0.00460806 -0.00223437 0.001248 ) 0 
( 0.0117905 -0.00154637 0.00552252 ) 0 
( 0.0073122 -0.00450196 0.00356344 ) 0 
( 0.00146925 -0.00826819 0.000499651 ) 0 
( 0.00429727 -0.00905372 0.00147067 ) 0 
( 0.0057282 -0.00684379 0.00658916 ) 0 
( 0.00700031 -0.000984113 0.00118273 ) 0 
( 0.00810204 -0.00116006 0.00702223 ) 0 
( 0.0109816 -0.00583389 0.00504431 ) 0 
( 0.0126527 -0.000337933 0.00611962 ) 0 
( 0.00733274 -0.00169443 0.00602315 ) 0 
( 0.00760824 -0.0062304 0.0035467 ) 0 
( 0.00746661 -0.0070325 0.00412675 ) 0 
( 0.00639482 -0.00935806 0.000499305 ) 0 
( 0.00388046 -0.00917161 0.00388938 ) 0 
( 0.00863536 -0.0018219 0.00127744 ) 0 
( 0.00858876 -0.000521626 0.00122438 ) 0 
( 0.00293982 -0.00584786 0.00541072 ) 0 
( 0.012943 -0.00226068 0.00134238 ) 0 
( 0.00148392 -0.0117104 0.00685256 ) 0 
( 0.00290923 -0.00664706 0.00321628 ) 0 
( 0.00771481 -0.00607103 0.000499803 ) 0 
( 0.00183324 -0.0059261 0.00149081 ) 0 
( 0.00402295 -0.0127296 0.000566343 ) 0 
( 0.00142797 -0.00192486 0.00136981 ) 0 
( 0.000193367 -0.00460171 0.00711326 ) 0 
( 0.00125411 -0.00672489 0.00132832 ) 0 
( 0.00559254 -0.000377643 0.00466074 ) 0 
( 0.00861438 -0.00563631 0.00198048 ) 0 
( 0.00128252 -0.0113134 0.00273738 ) 0 
( 0.00695055 -0.00601509 0.00282511 ) 0 
( 0.00551666 -0.0121571 0.00420259 ) 0 
( 0.00399473 -0.0037173 0.00414478 ) 0 
( 0.0114317 -0.00523484 0.00194692 ) 0 
( 0.00212549 -0.00911509 0.000499445 ) 0 
( 0.00364189 -0.00727795 0.00296097 ) 0 
( 0.000439574 -0.0107532 0.00131308 ) 0 
( 0.00364129 -0.0128441 0.00686383 ) 0 
( 0.00262292 -0.00628615 0.00232881 ) 0 
( 0.000162393 -0.00729632 0.00586813 ) 0 
( 0.00205012 -0.0131916 0.00362837 ) 0 
( 0.00433423 -0.00484037 0.00448332 ) 0 
( 0.00525734 -0.00278147 0.00177608 ) 0 
( 0.00411367 -0.00989373 0.00539549 ) 0 
( 0.0110175 -0.0053702 0.00317233 ) 0 
( 0.00605722 -0.00522143 0.00398227 ) 0 
( 0.00505023 -0.0123584 0.0058618 ) 0 
( 0.00117327 -0.00238612 0.00443102 ) 0 
( 0.00328914 -0.00194773 0.00336187 ) 0 
( 0.00711822 -0.00115203 0.00683522 ) 0 
( 0.0123791 -0.00159188 0.00425624 ) 0 
( 0.0018438 -0.00357507 0.00507008 ) 0 
( 0.00128057 -0.00710637 0.00650594 ) 0 
( 0.00368297 -0.00293344 0.00468308 ) 0 
( 0.0102789 -0.0085189 0.00552989 ) 0 
( 0.0050526 -0.00635235 0.00201637 ) 0 
( 0.0132637 -0.00151831 0.00509488 ) 0 
( 0.00219416 -0.00113248 0.00759666 ) 0 
( 0.00489663 -0.00627032 0.00629563 ) 0 
( 0.00552683 -0.00510031 0.0048212 ) 0 
( 0.00161703 -0.0124471 0.00511025 ) 0 
( 0.000558364 -0.00261424 0.00518541 ) 0 
( 0.00790504 -0.00825263 0.00621547 ) 0 
( 0.00828238 -0.00469739 0.00189429 ) 0 
( 0.0110314 -0.00311309 0.000499796 ) 0 
( 0.00676108 -0.0075281 0.0046336 ) 0 
( 0.00938345 -0.00644485 0.00558921 ) 0 
( 0.00169608 -0.00509281 0.00286218 ) 0 
( 0.00477448 -0.0114719 0.00456433 ) 0 
( 0.0107596 -0.000757122 0.00633769 ) 0 
( 0.00124197 -0.00977418 0.00624509 ) 0 
( 0.00196905 -0.00387797 0.00720187 ) 0 
( 0.00136687 -0.00732191 0.00750991 ) 0 
( 0.011736 -0.00636343 0.00244518 ) 0 
( 0.00830552 -0.00728019 0.00588247 ) 0 
( 0.0107344 -0.00621843 0.00664079 ) 0 
( 0.00568908 -0.0120079 0.00517709 ) 0 
( 0.000266277 -0.00277219 0.00646231 ) 0 
( 0.00304581 -0.00271576 0.00753274 ) 0 
( 0.00476802 -0.00650282 0.000770083 ) 0 
( 0.00660974 -0.00891971 0.00382322 ) 0 
( 0.0117209 -0.000562015 0.000724648 ) 0 
( 0.00707159 -0.0112899 0.0076215 ) 0 
( 0.00925709 -0.00441804 0.000499798 ) 0 
( 0.00824589 -0.00725942 0.00219598 ) 0 
( 0.00761472 -0.00890236 0.0025225 ) 0 
( 0.00956852 -0.00930997 0.00248943 ) 0 
( 0.00357208 -0.00190859 0.00583889 ) 0 
( 0.00251925 -0.000803308 0.000499806 ) 0 
( 0.00868023 -0.00170971 0.00254679 ) 0 
( 0.00109526 -0.0114274 0.00371295 ) 0 
( 0.00936048 -0.00332469 0.00721389 ) 0 
( 0.00858436 -0.00550945 0.000499278 ) 0 
( 0.0123457 -0.00508087 0.00550473 ) 0 
( 0.00671967 -0.00234038 0.00131549 ) 0 
( 0.00177456 -0.00384069 0.000499605 ) 0 
( 0.00778432 -0.0108456 0.0058556 ) 0 
( 0.0095697 -0.00930861 0.00699928 ) 0 
( 0.00084022 -0.00949852 0.00241778 ) 0 
( 0.000594678 -0.0133372 0.00137913 ) 0 
( 0.00788599 -0.00524533 0.0032201 ) 0 
( 0.00280395 -0.00366175 0.00774898 ) 0 
( 0.00922416 -0.00860785 0.00311241 ) 0 
( 0.000982926 -0.00623514 0.000499788 ) 0 
( 0.00315025 -0.000870645 0.00778277 ) 0 
( 0.00170878 -0.0025414 0.00360106 ) 0 
( 0.0029515 -0.00172039 0.00727972 ) 0 
( 0.00753172 -0.0100218 0.00407735 ) 0 
( 0.00386243 -0.00607782 0.00572035 ) 0 
( 0.0100565 -0.00120384 0.00222401 ) 0 
( 0.0084031 -0.00205701 0.00747078 ) 0 
( 0.00858125 -0.00918387 0.00708326 ) 0 
( 0.0107809 -0.00502249 0.00449593 ) 0 
( 0.0029767 -0.00823905 0.00233944 ) 0 
( 0.0029671 -0.0115841 0.00233524 ) 0 
( 0.00163802 -0.0122901 0.000499576 ) 0 
( 0.0121762 -0.00547443 0.00256975 ) 0 
( 0.00460324 -0.00190258 0.00680097 ) 0 
( 0.00174831 -0.00976204 0.00196676 ) 0 
( 0.00141252 -0.013275 0.00286254 ) 0 
( 0.0116882 -0.00645056 0.000499817 ) 0 
( 0.00061271 -0.000178857 0.00408151 ) 0 
( 0.0108988 -0.00770776 0.00506126 ) 0 
( 0.00205781 -0.0092236 0.00416987 ) 0 
( 0.00619516 -0.000797301 0.00698182 ) 0 
( 0.00650545 -0.0116576 0.00120183 ) 0 
( 0.00387148 -0.00284621 0.00609553 ) 0 
( 0.00616152 -0.0118431 0.00323415 ) 0 
( 0.010935 -0.00590427 0.00403116 ) 0 
( 0.00207249 -0.000436651 0.0024495 ) 0 
( 0.00759773 -0.00351881 0.00574802 ) 0 
( 0.0122226 -0.00273632 0.00283108 ) 0 
( 0.0108239 -0.00735743 0.00300335 ) 0 
( 0.00573837 -0.00318005 0.00731909 ) 0 
( 0.00547387 -0.00220695 0.00416891 ) 0 
( 0.0100581 -0.00544337 0.00126311 ) 0 
( 0.00666155 -0.00630607 0.00135326 ) 0 
( 0.00198777 -0.00286383 0.000499792 ) 0 
( 0.000903383 -0.00168057 0.00509379 ) 0 
( 0.00703934 -0.00223046 0.00467227 ) 0 
( 0.00744215 -0.00988642 0.00211289 ) 0 
( 0.0029254 -0.00574086 0.000499637 ) 0 
( 0.0053896 -0.00368841 0.00137664 ) 0 
( 0.00151141 -0.00723913 0.0039818 ) 0 
( 0.00223238 -0.00624772 0.00677297 ) 0 
( 0.00250872 -0.00712448 0.00399835 ) 0 
( 0.00995736 -0.00227808 0.0011448 ) 0 
( 0.00112551 -0.000635435 0.00270129 ) 0 
( 0.00958152 -0.00587909 0.000499698 ) 0 
( 0.000996331 -0.0114521 0.000499799 ) 0 
( 0.00647925 -0.00430516 0.00408009 ) 0 
( 0.000376681 -0.00388996 0.0064336 ) 0 
( 0.00789347 -0.00271012 0.00285078 ) 0 
( 0.0087342 -0.00738116 0.00314425 ) 0 
( 0.00409965 -0.00549101 0.00376122 ) 0 
( 0.00795734 -0.00777514 0.00367134 ) 0 
( 0.00573441 -0.00309643 0.00376106 ) 0 
( 0.0101368 -0.00680755 0.00477758 ) 0 
( 0.00277063 -0.00313476 0.00205753 ) 0 