FoamFile
{version 2.0; format ascii;class vectorField; location 0;object  v;}
2470
(
( 0.000303718 -0.0010146 0.00657392 )  
( 0.000255252 8.3566e-05 0.00610063 )  
( -1.22364e-06 0.000595891 0.00584149 )  
( 0.000407826 0.000245076 0.00653357 )  
( -0.00129462 0.00111511 -2.0978e-07 )  
( -0.000929387 0.0010677 0.0066219 )  
( 0.000515324 0.00284405 0.00624533 )  
( -0.000237719 0.00156731 0.00584855 )  
( -0.000126258 0.00225572 0.0067821 )  
( -2.52926e-05 0.000542734 0.00667071 )  
( -0.000541246 0.00195874 0.00361734 )  
( -0.0017028 0.00570764 -0.00424562 )  
( 0.000493632 -0.000314942 -0.000129796 )  
( -0.000902387 0.000985741 0.00655402 )  
( -0.000460768 0.000276239 0.00441821 )  
( 0.000678523 0.00067254 0.00729038 )  
( 0.000547382 -0.000501023 -0.00147941 )  
( -0.000321541 0.000568039 0.0069175 )  
( -0.00467961 -0.00082857 0.00982074 )  
( -0.000281909 3.52949e-05 -8.35313e-06 )  
( 0.000719677 0.000835128 0.00629589 )  
( 1.6077e-05 0.00199374 0.00521448 )  
( 0.000932034 0.000341557 0.00606504 )  
( 0.000181058 -0.000158579 0.00607075 )  
( -5.09027e-05 0.000598025 0.00631047 )  
( -0.000558802 -0.000831421 0.00682129 )  
( -0.000825688 0.000232996 -0.000400861 )  
( 0.00282119 0.00204231 0.00639269 )  
( 0.000226355 0.000839642 0.00644357 )  
( -0.00211647 -0.000381572 0.00801073 )  
( 0.000530591 0.000115782 -5.60268e-05 )  
( 0.000166563 -0.000229347 -3.41861e-05 )  
( 0.000703679 -0.00171525 0.00935576 )  
( 0.000278715 8.37465e-05 0.00469207 )  
( -0.00133763 0.00115974 0.00348014 )  
( -0.000824545 0.00320099 0.006898 )  
( -0.000228331 -7.64538e-05 0.00424412 )  
( -0.000848134 -6.54529e-05 0.00535671 )  
( 8.12932e-05 -0.000822616 0.00480172 )  
( -0.000159548 -0.000342684 6.20738e-05 )  
( -0.000550598 0.00107757 0.00521065 )  
( -0.000190168 0.00276769 0.00491404 )  
( 0.000130322 -0.000136209 0.00370032 )  
( -0.000281705 9.79635e-05 0.00398485 )  
( 5.84153e-05 -0.000137237 0.00389835 )  
( -0.00217157 -0.000358425 0.00855741 )  
( -0.000233898 0.00115417 0.00628868 )  
( -0.00071168 0.0005948 0.00576001 )  
( 0.00183652 -0.000927206 0.00633503 )  
( -0.00107192 0.00160527 0.00728941 )  
( 0.00166761 0.000345319 0.00459178 )  
( 0.00126952 -0.00151725 -0.00126037 )  
( 0.000297013 0.00105927 0.00633476 )  
( 0.000159533 0.000860852 0.0052301 )  
( 1.15295e-05 0.000210772 -3.87474e-05 )  
( -0.000183439 0.000373533 0.0063817 )  
( -0.00071381 -0.000658499 0.00778773 )  
( 0.00124814 0.000125094 4.20952e-05 )  
( 0.000149924 -0.000282132 0.00643352 )  
( 0.00165803 0.000211501 -0.000470643 )  
( 0.000748572 -7.96376e-05 0.00598527 )  
( 0.000460278 2.9118e-06 0.000464459 )  
( 0.000284066 -0.000454998 0.00830458 )  
( 0.000817864 -0.000363279 0.0045481 )  
( 0.000136593 4.21257e-05 -5.60388e-06 )  
( -0.00120426 -5.07767e-05 0.00662279 )  
( 0.00256359 0.00130243 0.000631542 )  
( -0.000549438 -0.000632169 -8.91007e-06 )  
( -0.00156336 0.000621226 0.00559637 )  
( 0.000422022 -0.000621466 0.00435701 )  
( -0.000159904 0.000763476 0.00628241 )  
( 0.000268948 0.000165011 -7.253e-05 )  
( 0.000568189 0.000247766 0.00646771 )  
( 0.002157 0.0059434 0.00815743 )  
( 6.23278e-05 0.000461653 -7.15549e-05 )  
( 0.000534241 -0.000724528 0.00226394 )  
( 0.00205489 -0.00121658 0.00775017 )  
( 0.00110634 0.0002861 0.000198474 )  
( 0.00287076 -0.000388401 0.00664306 )  
( 0.000521694 0.0014812 0.00532976 )  
( 0.000495528 -0.0013306 0.00611318 )  
( 1.67578e-05 0.000422961 -6.63097e-05 )  
( -0.00141523 0.000860068 0.00580312 )  
( 0.00110853 -0.00448443 -0.00420926 )  
( 0.000167279 -0.000579265 0.00621019 )  
( -0.00106744 0.00100742 0.00546341 )  
( -0.000307417 -0.000143524 0.00668842 )  
( 0.000707386 0.000318758 0.00616897 )  
( -7.61934e-05 2.50489e-05 -0.000933261 )  
( -0.000601516 0.000305345 0.000836064 )  
( 0.000416133 0.000528689 0.00769643 )  
( -0.00147733 -0.00127669 -0.000258071 )  
( 9.63326e-05 0.00127075 0.0063769 )  
( 7.64136e-05 0.000408232 0.00951875 )  
( 0.00155439 -0.00119806 0.00558725 )  
( 0.000183168 9.07251e-05 -0.000162354 )  
( -2.56914e-05 0.000673281 -0.000914023 )  
( 0.00255916 0.000743638 0.00641096 )  
( 0.00037414 -0.00265582 0.00741238 )  
( -0.000832627 -0.000472193 0.00426138 )  
( -4.24786e-05 0.000509726 0.00616179 )  
( 0.00144601 0.00115552 -9.85781e-05 )  
( -0.00107422 0.000177135 0.00576852 )  
( 0.000320898 0.00151382 0.00499956 )  
( -0.000594169 0.000793042 -0.000451581 )  
( -0.0017506 0.00517491 0.00591596 )  
( 0.000497642 0.000233539 0.00667455 )  
( -0.001456 0.00176912 0.00824763 )  
( -0.000398956 0.00153051 0.00638069 )  
( -0.00156819 0.00131462 0.00770961 )  
( -0.00121662 0.000599358 0.00572895 )  
( 0.000906583 0.000295488 0.00677926 )  
( -0.00231097 -0.000220832 0.00554303 )  
( 0.000657866 0.000154586 -0.00181889 )  
( 0.000691049 -0.000436961 4.67832e-05 )  
( 0.00108224 -0.000165418 0.000102845 )  
( -0.00111407 0.000698145 0.00654457 )  
( 0.000177369 0.000622672 -0.000376419 )  
( -0.00100907 0.000843478 0.00684135 )  
( 0.00103549 0.000222922 -0.000732268 )  
( -0.000991339 9.01646e-05 0.00556613 )  
( -0.00114398 0.0037849 0.00725035 )  
( 0.000875301 -8.35653e-05 0.00551435 )  
( 1.08651e-06 0.000713031 0.00608488 )  
( 0.000987458 -0.000879814 0.00534703 )  
( 0.000723894 -0.000263315 -1.69775e-05 )  
( -0.000133432 -0.00276395 0.00704576 )  
( -0.000810623 0.000591522 0.00715206 )  
( 0.00017041 0.00381393 0.00529651 )  
( -0.000341936 0.000546578 0.00631284 )  
( -0.000333193 0.000201859 6.76012e-05 )  
( -0.000219729 -0.000308406 0.00647437 )  
( -0.000343399 0.000851517 0.0055605 )  
( 0.00405128 0.000676139 0.00723066 )  
( -0.000751273 0.000483027 0.00387949 )  
( 0.00154737 0.000308736 -0.00170461 )  
( 0.000842424 -0.000174153 0.00621947 )  
( -0.00095994 0.003154 0.00491734 )  
( -0.00148328 0.00149409 0.00588237 )  
( 0.0011882 0.00199893 0.00702373 )  
( 0.00163283 0.00134504 0.00585202 )  
( 0.00102345 -0.00134858 0.00598688 )  
( -0.00162286 0.000341855 0.00789194 )  
( 0.00116473 -7.81706e-05 -0.000241522 )  
( 7.78589e-05 -0.00026691 -4.11564e-05 )  
( -0.000224827 -6.34961e-05 0.00342751 )  
( 0.000358862 -0.000261062 -0.000282742 )  
( 0.000455594 -0.000259887 -0.000181353 )  
( 0.000565777 0.00149734 0.00553935 )  
( 0.0028571 -0.000291767 0.00781297 )  
( 0.000413753 -0.000155583 0.00249906 )  
( 0.00028322 0.00262578 0.0062717 )  
( 0.00143125 -0.000240769 0.00614537 )  
( -0.000331481 0.00107542 0.00687236 )  
( -0.000479765 -0.000483072 0.00433271 )  
( 0.000679963 0.000976974 0.00633389 )  
( 0.000719975 0.00115115 0.00440745 )  
( -0.000450602 0.000715264 0.00654375 )  
( 0.000351434 0.000335088 0.000207333 )  
( 0.000922418 -0.000797786 0.00647902 )  
( 0.000609701 0.00101437 0.00830371 )  
( 0.000350395 -7.29907e-06 0.00625646 )  
( 0.00232502 0.00268188 0.00557128 )  
( -0.000418115 0.000191786 0.00602851 )  
( 0.000169785 0.000977097 0.00109083 )  
( 0.00165109 0.00231157 0.00645091 )  
( 7.33252e-06 -0.000313846 0.00612304 )  
( 0.00107504 0.00149464 0.00526963 )  
( 0.000296158 0.00038322 1.48401e-05 )  
( -0.000935472 0.000701447 0.00292582 )  
( 0.00062036 0.000943577 0.00339428 )  
( -0.000202959 0.00163425 0.00845839 )  
( 0.000108514 3.42951e-05 2.7403e-05 )  
( 0.000256783 0.000242937 0.00654208 )  
( -0.000593231 -0.0013003 -0.000925987 )  
( 0.00281778 0.00150534 0.0001997 )  
( 0.00163787 0.00136691 0.00767048 )  
( -0.000574966 0.000745976 0.00567493 )  
( 0.000971444 0.000973289 0.0050327 )  
( -0.000257631 8.31164e-05 0.00660155 )  
( -8.41854e-05 -0.000191917 0.00547812 )  
( -0.000152131 6.79265e-05 9.92489e-05 )  
( 0.00153567 0.000323578 0.00655914 )  
( 0.000986999 -0.000247483 -0.000937685 )  
( 0.000228448 0.000757095 0.00530768 )  
( 0.000986847 0.00249046 0.00607826 )  
( -0.00181607 -0.000931793 0.00849877 )  
( 0.000505714 0.000646104 0.0045305 )  
( 0.00159844 0.000371468 0.00486453 )  
( 0.000487355 -0.000191041 0.000245053 )  
( -0.00135295 -0.000433219 0.0107712 )  
( -0.000385172 0.000442321 0.00670997 )  
( 0.00207412 0.00304435 0.00674281 )  
( 0.00157161 -0.00225336 0.0124419 )  
( 6.81602e-05 -0.000504333 0.00654258 )  
( 0.000948911 -0.000237636 0.00342433 )  
( -0.0016721 0.00187525 -7.18452e-05 )  
( -0.000542592 0.000698697 0.00651121 )  
( 0.00188333 0.000949021 0.00653212 )  
( 0.00100567 0.00156793 0.00304558 )  
( -0.000165383 -2.26239e-05 5.26512e-05 )  
( 0.000159802 6.93689e-05 -5.87564e-05 )  
( 0.00068564 0.0019654 0.00438834 )  
( 0.000775903 0.000439183 0.00654836 )  
( -0.000212297 2.0065e-05 -0.000334476 )  
( 0.000946035 -0.000639909 0.00603973 )  
( 0.000944989 -0.000999161 0.000682446 )  
( -9.38201e-05 0.000365745 0.00481449 )  
( 0.00203297 0.00288566 0.011021 )  
( -0.00109316 -0.00133343 -0.000160264 )  
( -0.000749069 0.00139226 0.00651625 )  
( -0.000300155 0.000610462 -0.000320514 )  
( -0.00275621 -0.00152377 0.0051622 )  
( 0.000311845 0.000204891 -7.46477e-05 )  
( 0.000469454 -0.000902235 0.00501346 )  
( 0.00128118 -0.000147986 0.00456049 )  
( -0.00119391 -0.000639299 0.00652575 )  
( 0.00131277 0.00129668 -8.02902e-06 )  
( 0.000406547 0.00232492 0.00627745 )  
( 0.00263792 -0.00118697 0.00828144 )  
( 0.0016305 -0.00111078 0.00555864 )  
( 0.000328816 -9.02813e-05 -2.09746e-05 )  
( 0.000476495 0.0023956 -0.000477556 )  
( -0.00055676 4.52664e-05 0.00465445 )  
( -0.000781775 0.00110644 0.00275787 )  
( 0.00169505 0.000753342 0.00778391 )  
( -0.000117467 7.15991e-05 -0.000110721 )  
( 0.00284443 0.00343246 0.0107953 )  
( 0.00106701 -0.000124388 0.00450779 )  
( 0.000429241 0.000962797 5.37576e-06 )  
( -5.20577e-05 0.000419989 0.00474052 )  
( -0.000388524 0.000791079 0.0057988 )  
( 3.07181e-05 0.000820581 4.23926e-05 )  
( 0.00234835 0.00232146 0.0053405 )  
( 0.0022741 -0.00144369 -0.000604628 )  
( 0.000197917 -0.0017778 0.00486817 )  
( 0.00122065 -5.8569e-05 0.00621077 )  
( 0.000840497 0.00052293 0.00615447 )  
( -0.000601849 -6.07772e-05 0.00277419 )  
( 0.00159774 -0.00320127 0.00477901 )  
( 0.000552965 -3.083e-05 2.64056e-05 )  
( 0.000722048 0.0021266 0.00330887 )  
( -0.000188419 -0.000350526 7.2395e-05 )  
( 0.000940448 -0.000120308 -0.000499407 )  
( -2.11386e-05 -0.000547864 -4.55117e-05 )  
( -0.000840536 -0.00377565 0.00345359 )  
( 0.00019383 0.000168589 -2.95299e-05 )  
( 0.00101626 0.000261953 0.00931589 )  
( 0.00082718 0.000572955 0.00701455 )  
( -0.000541641 0.000625657 0.00666008 )  
( -0.000131493 7.36581e-05 -0.000128108 )  
( -0.000302442 -0.00169904 0.0066803 )  
( -0.000830338 0.00150401 0.00483275 )  
( 0.000271809 -0.000353578 0.0062714 )  
( -6.88372e-05 -0.00138642 0.000176897 )  
( 3.41739e-05 -4.62766e-05 0.00607868 )  
( -0.000402456 0.000816428 0.0058216 )  
( -0.000755084 -0.000627994 0.00654667 )  
( 0.000483883 0.000285837 -0.000180678 )  
( 0.00245659 0.00158725 0.00688253 )  
( -0.000775582 0.00160758 0.00337799 )  
( 0.00217461 0.00167988 0.00606913 )  
( -2.16415e-06 -0.00039654 9.85839e-06 )  
( 0.000820778 -0.000657038 0.00225016 )  
( 0.000914007 0.00441545 0.0128002 )  
( -5.51763e-05 4.34679e-05 -6.89085e-05 )  
( 0.000448628 0.00103148 0.00659072 )  
( 0.000799242 0.000704582 0.00625543 )  
( -5.77293e-05 0.00105692 -3.32022e-05 )  
( -0.000602371 0.000337596 0.00608725 )  
( -0.000593619 0.00132741 0.00315787 )  
( -0.000150021 0.000108673 -0.00106394 )  
( 0.00120257 0.000860461 7.78923e-06 )  
( 7.91206e-05 0.000139484 0.00640676 )  
( 0.000362235 -0.000568105 -0.000318661 )  
( -8.22315e-05 0.000979853 -0.000888329 )  
( 0.00263528 0.00155022 0.0062456 )  
( -0.000230186 0.000143473 0.0066495 )  
( 0.00015855 0.00213623 0.00012036 )  
( -0.00256977 0.00120621 1.43853e-07 )  
( 0.00282638 -0.00149172 0.0057211 )  
( -9.15157e-05 0.000150154 6.29472e-06 )  
( -0.000168116 9.56625e-05 7.33436e-05 )  
( -0.0025306 0.00183456 0.00681301 )  
( 0.000903952 -0.00133637 0.00540739 )  
( -0.000500495 0.0012518 -0.000283068 )  
( -0.000860184 0.00111941 0.00561583 )  
( 2.87037e-06 0.00170574 0.00598078 )  
( 0.000946381 0.000428318 0.00591606 )  
( 0.000319651 0.0016399 0.00539091 )  
( 0.000169355 -0.000265208 0.00572305 )  
( 8.19652e-05 0.000688116 -0.000344153 )  
( -0.000271995 0.00019805 0.00740658 )  
( 0.00156388 0.000687652 -0.00100668 )  
( 0.0017635 0.0025096 0.00980058 )  
( 0.00180423 0.0019115 0.00428591 )  
( -0.000118187 0.000195504 0.00825086 )  
( -0.00106983 0.000750386 0.00633679 )  
( -0.00066925 -0.00122271 0.0063832 )  
( -0.000428174 -0.000912974 0.00410186 )  
( 0.00133938 0.00360855 0.00357571 )  
( -0.000255789 -0.00397079 0.00769796 )  
( 0.000252329 0.00146051 0.00389476 )  
( -0.00010321 0.000929712 0.00597972 )  
( -0.000664567 0.000979277 0.0053079 )  
( -8.85895e-05 0.000349408 0.000199663 )  
( 0.000445962 0.000798378 -0.000488956 )  
( -0.000332174 -0.000379758 -9.14516e-05 )  
( -0.000130483 0.000379682 -0.000213096 )  
( 0.000486417 -0.00331955 0.00795235 )  
( 0.000959061 0.000621732 0.00402697 )  
( 0.000432068 0.000617224 0.00683735 )  
( 0.00533307 0.000648147 0.00523252 )  
( 0.00237847 -0.000543852 -0.000157434 )  
( 0.00077949 0.00117971 0.00415628 )  
( 0.000138984 -0.000137541 0.00520582 )  
( 0.00214147 -5.35353e-05 0.0051093 )  
( -0.000742894 -0.000826906 0.00991573 )  
( -1.54693e-05 0.000675083 0.00607235 )  
( 0.00316246 -0.00126349 0.00953466 )  
( 0.000411635 0.000236471 0.0040549 )  
( 0.000225449 -4.73842e-05 0.00658343 )  
( 0.00113169 -0.00151966 0.00553368 )  
( 0.00158295 -8.0686e-05 0.00491047 )  
( 0.000444972 0.00028429 0.00421356 )  
( 0.000185495 0.00118906 0.00510151 )  
( -0.000284401 0.000638328 0.00571763 )  
( 0.000232193 6.35754e-05 0.00411672 )  
( 0.00248924 0.0029871 0.00952162 )  
( -0.00157867 -0.000196397 0.00441534 )  
( 0.00113114 -9.05449e-05 -4.37181e-05 )  
( -0.000596664 0.000497016 0.00598136 )  
( -0.000387902 0.00106277 -0.00336686 )  
( -0.000333111 -0.000953002 0.00414824 )  
( 0.000978176 0.000564595 2.19252e-05 )  
( 0.000536163 -0.000297958 0.00589482 )  
( 0.00204582 -0.000509011 -0.00181876 )  
( 7.40483e-05 0.000350386 0.00622802 )  
( -0.000227393 0.000720308 0.00389745 )  
( -0.00068009 0.000199363 5.92037e-05 )  
( 0.00014891 -0.000200175 0.00394513 )  
( 0.00107055 -0.000479614 -0.000613129 )  
( -0.00300724 0.00338042 0.00750759 )  
( -0.000725452 0.000845823 0.000288539 )  
( 0.000464922 -0.00102193 -0.000121941 )  
( 0.000892832 0.002244 0.00953395 )  
( 6.00136e-05 7.75746e-05 0.00011294 )  
( 0.00156967 0.0013639 0.00569077 )  
( 0.000842352 5.04846e-05 0.00481212 )  
( 0.00200332 0.000458042 0.00906419 )  
( -0.000635594 -0.000263188 0.00595699 )  
( 0.000278975 0.00131035 0.00663665 )  
( 0.000152902 0.0012811 0.00586863 )  
( 0.000223112 -0.00106197 -3.59816e-05 )  
( 0.00192916 -0.000148215 0.00590111 )  
( 0.0021318 0.0004935 -0.00246669 )  
( -0.00117232 -0.000444702 0.00363336 )  
( 0.000299306 0.0013757 -0.000394914 )  
( -0.000374226 0.000422866 -8.0958e-06 )  
( -0.000248375 0.000619922 0.0041567 )  
( 0.00131356 0.000587372 0.00394234 )  
( -0.00101327 0.00143861 -0.00131225 )  
( -0.000830212 0.00198744 0.0071678 )  
( 0.000859465 8.07675e-05 0.00381983 )  
( -6.89391e-05 1.68613e-05 -0.000353078 )  
( 0.00218022 0.00192586 0.00526895 )  
( 0.00230303 -0.00221504 0.00326525 )  
( -2.77604e-05 -0.000174655 0.00675376 )  
( -0.000453736 0.000758044 0.00665178 )  
( -0.000756662 0.0011457 0.00723844 )  
( 0.000443297 -3.83909e-05 2.76129e-06 )  
( 0.000308068 0.00161375 0.00536006 )  
( 0.000209641 -0.000123049 -9.19821e-05 )  
( 0.00265669 -0.00043037 0.00423277 )  
( 0.000626952 -0.000971662 0.00586743 )  
( -0.000600144 0.00139232 -0.00130181 )  
( 0.000263358 0.00239544 0.00499164 )  
( 0.000771807 0.00159552 0.00595275 )  
( 0.00251168 0.00139968 0.00664738 )  
( -0.000789528 0.000609438 0.00425679 )  
( 0.000579236 -0.00163134 0.00900264 )  
( -0.000649426 0.00101958 0.00694282 )  
( -0.00086794 0.000510462 -0.000493565 )  
( -2.22442e-05 -8.97996e-05 7.87155e-05 )  
( 0.00172946 -0.00233772 0.00605502 )  
( -6.54844e-05 0.000624795 -0.00022949 )  
( -8.03186e-05 0.00342979 0.00779446 )  
( 0.00105502 -0.0005865 0.0039149 )  
( 0.000641551 -0.000712034 0.00708315 )  
( 0.00185761 0.00113331 0.0077602 )  
( 0.00095713 -7.67658e-05 0.00484583 )  
( 0.000550546 -1.16064e-05 -0.000182047 )  
( 0.00145057 0.00260692 0.00717538 )  
( 0.00139116 -0.000687467 0.00283619 )  
( -0.00139575 0.00067231 0.00712102 )  
( 0.000429546 -0.000523161 0.0075644 )  
( -1.02198e-05 3.9205e-05 0.00567209 )  
( 3.92089e-05 0.000476745 1.47165e-05 )  
( -0.00214255 -9.31584e-05 0.00014325 )  
( 0.00056044 0.000907202 0.00617567 )  
( -0.000423335 0.00122823 0.00593572 )  
( -0.00072931 0.000524631 0.00588936 )  
( 0.000264078 -5.26666e-05 7.33249e-05 )  
( 0.000178557 0.000445392 0.00604329 )  
( -0.0010981 0.00165823 0.00740642 )  
( 0.0018584 -5.30368e-06 0.0056347 )  
( 0.000115744 0.00160279 0.00176001 )  
( -0.00474289 0.00164905 0.0115483 )  
( 0.000462116 -0.0011863 0.00383523 )  
( 0.000676465 0.00331062 0.00433638 )  
( 0.000896161 0.000512047 0.00661706 )  
( -0.000322834 0.000184764 0.00649625 )  
( -0.00108895 0.000625054 0.00722723 )  
( 0.000420011 9.82237e-05 0.0060327 )  
( 0.000315885 -9.80659e-05 0.00671461 )  
( -0.000261013 -1.69728e-05 0.00610387 )  
( 0.00025341 0.000173791 5.24146e-05 )  
( -0.00180163 0.00200737 0.0136799 )  
( 0.00078757 -0.000161851 0.00603884 )  
( 0.00106123 0.00201414 0.000280557 )  
( 0.00313745 0.00349936 -0.00222889 )  
( 0.00157629 -0.00169571 0.00604941 )  
( -0.000902732 -0.00147525 0.00503393 )  
( 0.000307399 0.000830004 0.00478065 )  
( 0.001269 0.001088 0.00411456 )  
( 0.00091272 -0.0004705 0.00660739 )  
( -0.000438209 0.000237291 6.53691e-05 )  
( 0.000791995 0.00131858 0.00507829 )  
( 0.000421715 -0.000499961 0.00501554 )  
( -0.000890636 0.000859874 0.00565919 )  
( 0.00108304 -0.000897459 -0.00048499 )  
( -0.00113818 2.11124e-05 -6.65021e-05 )  
( 0.000417918 7.45432e-05 0.00423944 )  
( 0.0018108 -0.00100635 0.00566235 )  
( -2.06786e-06 1.54337e-05 4.4275e-05 )  
( 0.000303578 -0.000178583 0.000269196 )  
( 0.000379497 0.00258909 0.00684807 )  
( -0.00070627 0.000855911 0.00546263 )  
( 0.001619 0.000124301 0.00810882 )  
( -0.000321146 0.000396244 0.00607295 )  
( 0.00163145 -0.00042257 0.00671087 )  
( 8.17748e-05 0.000106115 0.00789668 )  
( 0.00271141 0.00167445 0.00657332 )  
( 0.00120937 0.000214305 0.00613201 )  
( 0.00114092 0.000935433 0.00503856 )  
( 7.47954e-05 0.000116978 -5.85593e-05 )  
( -0.00050191 0.000985272 0.00618207 )  
( -0.00121928 2.64244e-05 -0.000807284 )  
( 0.000752958 -8.32755e-05 0.00727569 )  
( -0.00208159 -0.000149154 0.00926318 )  
( 0.00203988 -9.71695e-05 0.00484052 )  
( 0.000680036 0.000348434 0.000256114 )  
( 0.000189687 -0.000293056 0.00666565 )  
( 0.0031613 -0.000350426 0.00796311 )  
( 0.000507746 0.000548013 0.00503743 )  
( -0.00030228 0.000642116 0.00779877 )  
( -0.000361912 -0.000279885 0.00633459 )  
( 0.000388168 -0.00013445 0.00631044 )  
( 0.00094734 -0.000418192 -0.00062411 )  
( 0.000361154 -0.00141737 0.000776782 )  
( 0.000920973 -0.00143969 0.00376208 )  
( -0.000837917 -0.000541006 -0.000573918 )  
( 0.000194861 -6.92879e-05 -3.15495e-06 )  
( 0.000930359 0.00156943 0.00659317 )  
( 0.000608146 0.00022131 0.00518883 )  
( -0.000590445 0.000723112 0.00636249 )  
( 0.00126362 -0.000535787 0.00481704 )  
( 1.32245e-05 -0.000728422 0.0058481 )  
( -0.000543934 0.000472127 0.00845083 )  
( 2.04987e-05 0.000233421 2.64116e-05 )  
( -0.000193176 0.000825249 0.00669097 )  
( 0.000174458 0.00011465 -0.000209135 )  
( -0.000239937 0.00402113 -0.00144359 )  
( -3.58513e-05 0.000861351 0.00370809 )  
( 0.000115628 -0.000169856 0.00189018 )  
( 0.000189214 0.00036737 7.23206e-05 )  
( 0.00313122 -0.000232163 0.00513973 )  
( 0.000645867 5.68254e-05 0.0067777 )  
( 0.000706868 0.000456457 -0.000131805 )  
( -1.54722e-05 -3.57763e-05 -0.000440347 )  
( 0.000393818 8.42715e-05 -8.10204e-05 )  
( -0.000947206 0.000561435 0.00525272 )  
( -0.000773528 -0.000932866 0.00607491 )  
( 0.000367523 0.000958755 0.00523974 )  
( 0.00231199 -0.000372922 -0.000483478 )  
( -0.000435545 0.00159268 0.00649526 )  
( 0.00198016 -0.00019266 0.00430121 )  
( -1.36076e-05 0.000519205 0.000184265 )  
( 0.000583561 0.000736133 0.000109015 )  
( -0.00333234 0.000335304 0.00691612 )  
( 0.000491765 0.00205233 0.00578322 )  
( 0.000686834 4.73686e-05 0.00736377 )  
( -0.000897198 -0.000546233 0.004506 )  
( -0.00171158 0.00166943 -0.00301405 )  
( 0.00388744 0.000466059 0.00856475 )  
( -0.00206271 0.0054926 0.00475656 )  
( 0.000847073 0.00135192 7.21426e-05 )  
( -3.87415e-05 -6.10907e-05 0.00430931 )  
( 0.000829584 0.000410851 0.00658206 )  
( -0.000241376 0.000120162 0.00498939 )  
( 0.00059379 0.000460053 0.00717436 )  
( 0.000455125 0.000342321 0.00491598 )  
( -0.00011833 0.000628854 6.85278e-06 )  
( 0.00028155 0.00144961 0.00525673 )  
( 0.00323215 -0.000148239 0.00749718 )  
( 0.000923208 0.00312454 0.00672048 )  
( 0.000353093 -0.000450754 0.00851156 )  
( -0.000733721 -0.00114659 0.0072388 )  
( -0.000372356 0.00144715 0.00429179 )  
( -0.000342992 0.00254433 0.00702601 )  
( -3.44911e-05 -1.03802e-05 -1.81907e-05 )  
( 0.00122795 0.000428568 0.00426756 )  
( 0.000114424 0.000237932 -3.69179e-05 )  
( 0.000155272 8.02991e-05 0.00333048 )  
( -0.000735909 -0.000488555 0.00502624 )  
( 0.00373305 0.00721697 0.0123449 )  
( 0.000884588 3.43952e-05 0.00719943 )  
( 0.00023387 0.00486237 0.00858875 )  
( 0.0015661 0.000962144 0.00749412 )  
( -0.000623556 -0.000338158 0.00184005 )  
( -4.85968e-05 0.000181647 0.00616524 )  
( 0.00035885 -0.000194052 0.00600951 )  
( 0.000468888 0.00072726 0.00621296 )  
( -0.00146011 -0.000217308 0.00665629 )  
( -0.00124879 0.00343917 0.0055703 )  
( 0.00170105 4.91722e-05 -0.000547583 )  
( -0.000600801 -0.000374444 -2.72303e-05 )  
( -0.000603295 0.00190169 0.00548173 )  
( -0.000624312 0.000358083 -2.15776e-05 )  
( -0.000203642 0.000304334 -1.34735e-05 )  
( 0.000788545 0.000509859 0.00769158 )  
( 0.000604143 0.00141666 0.00686194 )  
( 0.000660086 0.00237222 0.00763947 )  
( -2.84651e-05 0.000542802 3.26446e-05 )  
( 0.000725061 -0.000757524 -0.000605938 )  
( 0.000917613 -9.32589e-05 0.00630104 )  
( 0.00118088 -0.00141613 0.00629739 )  
( -6.54221e-05 0.000339885 0.00616659 )  
( 0.00110282 0.0032352 0.00660246 )  
( -0.0014517 0.00103506 0.00687489 )  
( 0.000363423 0.000596403 -0.00133 )  
( 0.000668006 -4.12462e-05 0.00727852 )  
( -4.32439e-05 3.88002e-05 -1.24728e-05 )  
( -0.000237395 -0.000511617 -1.18196e-05 )  
( 0.000144906 0.000334783 4.03334e-05 )  
( -0.00190406 0.0021317 0.000382322 )  
( -0.000776017 0.00020999 0.00797726 )  
( -0.000829 -0.0011671 -6.88464e-05 )  
( 0.00167658 -0.00140327 -0.000590781 )  
( 0.000616457 0.00275495 0.00729366 )  
( 0.00165854 0.000298338 0.00596167 )  
( 0.00256989 -0.00189648 0.00545268 )  
( 0.00209452 0.000170987 0.00672036 )  
( -0.000285801 0.00041845 0.0063694 )  
( -0.00106176 0.00152001 0.00991363 )  
( 0.000762328 0.000628023 -7.61148e-05 )  
( -0.00191104 0.00140184 0.00791374 )  
( -0.000223062 0.000803277 0.00552935 )  
( -0.00108218 -0.00118454 0.00648048 )  
( -0.000837928 8.46096e-05 -0.000701601 )  
( -0.000282395 -0.000516222 0.000115554 )  
( -0.00089704 6.01869e-05 5.26267e-05 )  
( -0.000885131 -0.00220197 -0.00287771 )  
( -0.000767933 0.00041435 -4.32943e-06 )  
( 0.000964499 -0.000473085 -1.8515e-06 )  
( -0.000843084 0.000296003 0.00217377 )  
( 8.23703e-05 0.000136797 -9.3444e-05 )  
( 0.00126379 -0.0014936 0.0061167 )  
( 0.00152567 0.000328209 -0.000953614 )  
( 0.000775961 -0.00143583 0.00681352 )  
( -0.000167717 4.89781e-05 0.0043162 )  
( 2.61163e-05 -0.000438904 0.00637963 )  
( -0.0011656 -0.00210839 -0.00277481 )  
( -0.000116125 -2.41497e-05 5.07236e-05 )  
( -0.000983492 0.00139904 -0.000698505 )  
( 0.000417443 0.00112248 0.00471821 )  
( -0.000274159 2.57804e-05 0.00646885 )  
( -0.000714889 0.000733542 8.27755e-05 )  
( 0.000409347 -0.00262128 0.00693395 )  
( 0.000129569 0.000371605 -2.03706e-05 )  
( 0.00023634 -0.000105047 0.00350918 )  
( 0.00236053 -0.000926411 0.00322312 )  
( 0.00121183 -0.000100183 0.00467706 )  
( 0.000205979 -5.43953e-05 -0.000148961 )  
( 0.00227463 -0.000123743 0.00499288 )  
( 0.000471221 -0.00165043 0.00607976 )  
( 0.00229479 -0.00018789 0.0063335 )  
( -0.000243122 -0.000110058 0.00509155 )  
( 0.0015096 0.00160196 0.0037569 )  
( 0.000274355 0.000206753 0.00424576 )  
( 0.000934978 -0.000389025 -7.01197e-06 )  
( 0.00054419 0.000520158 0.00755603 )  
( -0.000924647 -0.000489467 0.00902886 )  
( -0.000585613 0.000755165 0.00855183 )  
( 0.00268031 0.00336344 0.00809665 )  
( -0.003622 0.00351043 0.00661665 )  
( -0.0014037 0.00238592 0.00336602 )  
( -0.000395988 0.000555311 0.0104785 )  
( 4.43896e-05 0.000327203 0.00658936 )  
( 0.000346225 -0.00223702 0.000212037 )  
( 0.00465164 -0.00166226 0.00648658 )  
( 5.49717e-05 2.15484e-05 -5.10752e-05 )  
( 0.000149893 -0.000226615 3.5287e-05 )  
( -0.000423444 0.000545142 0.00587413 )  
( 0.000381698 0.000471887 0.00631153 )  
( 0.00214006 0.000157117 0.0049096 )  
( 0.000351387 0.001153 0.00500175 )  
( 0.00149793 -0.00116418 0.00460724 )  
( 0.000169418 -0.00250751 0.00671394 )  
( -0.00131318 7.81389e-05 0.000254745 )  
( 0.000866321 -0.00105847 0.000882786 )  
( -0.000258767 0.000562312 0.00594111 )  
( -0.000111133 -9.34373e-05 5.12673e-05 )  
( -2.30438e-05 -0.000178718 0.00608826 )  
( -0.000264209 -0.000603621 0.00652788 )  
( 0.00103639 0.000663454 0.00382653 )  
( -0.00167943 -0.000359537 0.00583508 )  
( 0.0018328 0.000891058 0.0048809 )  
( 0.00046519 -0.000183753 -9.89024e-05 )  
( -0.000128401 -1.0272e-05 -9.20804e-05 )  
( -0.000425588 0.00174556 0.00513324 )  
( -0.000196853 0.000456341 0.00517819 )  
( -0.00163661 0.00112702 0.00651483 )  
( 0.000220272 0.00197427 0.00472769 )  
( 0.00214943 0.00251518 0.00478341 )  
( 0.00186982 -0.000228245 0.00561695 )  
( 0.00119444 0.000304407 0.00569224 )  
( 0.000718281 0.000520251 0.00453142 )  
( 0.000798464 -0.00113411 0.00671112 )  
( 0.000141221 0.000982054 -3.66403e-05 )  
( 0.000199853 -5.06533e-05 0.0089564 )  
( 0.000512629 0.000138311 5.02766e-05 )  
( -0.00156126 0.00124739 0.00583499 )  
( -7.73547e-05 0.000530221 0.00451375 )  
( -0.000336844 0.00132031 0.00575655 )  
( 0.000635289 0.000498984 -0.000738288 )  
( 0.00705853 0.00424856 0.00924786 )  
( -0.00250362 -0.000795736 0.00358963 )  
( 0.000463821 0.00189742 0.0120578 )  
( 5.56248e-05 -0.000914514 0.00579933 )  
( 0.00011002 0.00118493 0.00736719 )  
( 0.00154931 0.00585263 -0.00256973 )  
( 0.00143634 -8.71881e-06 0.0101033 )  
( -0.000155996 0.000963278 0.000114128 )  
( 0.00160579 0.00394718 0.00823957 )  
( -0.000732671 0.000305674 -4.85971e-05 )  
( 0.00131015 0.00109854 0.00722226 )  
( 0.00111007 0.00290955 0.00273026 )  
( 0.000650198 -0.000795885 0.00630177 )  
( 0.000288445 1.21476e-05 -4.03215e-05 )  
( 0.00031578 0.00189055 -4.60874e-05 )  
( -0.00118544 0.0016181 0.00730339 )  
( 0.00195382 0.00150825 0.00473342 )  
( 0.00168727 0.00156565 0.0063205 )  
( -0.000206977 0.000116886 9.43762e-05 )  
( 0.00076707 0.000591705 0.00580355 )  
( 9.86611e-05 0.00109318 0.00618222 )  
( 0.000497962 0.000256852 4.82745e-05 )  
( 0.000349764 0.000146862 0.00413156 )  
( -0.00112567 0.0014618 0.00596648 )  
( 0.00169832 0.00171797 0.00676774 )  
( -0.00183129 0.00104495 0.00425309 )  
( -0.000237947 0.00157465 0.000109343 )  
( -0.000662021 0.00156339 0.000611712 )  
( -0.00155528 0.00475761 0.00749167 )  
( 0.00164373 0.000416951 0.00642155 )  
( -0.000863874 -0.0020843 -0.000532673 )  
( -0.000622853 0.00185339 0.00608394 )  
( 0.0011278 0.000565992 4.15761e-06 )  
( -0.000123616 -2.32588e-05 4.56049e-05 )  
( -0.000143536 -5.11685e-05 0.00617604 )  
( 0.000503381 -0.00101324 0.00410219 )  
( 0.00013498 0.00167117 0.000308381 )  
( 0.000394073 -3.41023e-05 0.00415209 )  
( 0.000408725 -0.000197541 0.00558899 )  
( 0.00155787 0.000947052 0.00602749 )  
( 0.000109337 8.09446e-05 0.000159748 )  
( 0.000287106 -0.000117953 5.13091e-05 )  
( -0.00212597 0.000295296 0.00649337 )  
( -0.00105095 0.000658426 0.00397901 )  
( 0.00021731 -0.000890356 0.00460792 )  
( 0.000114702 0.000467946 -9.23867e-05 )  
( 0.000740795 -0.000567084 0.00591563 )  
( 0.000715079 0.00410213 -0.00637535 )  
( 0.00199048 0.00280639 0.00727568 )  
( 0.000302988 6.69879e-06 -0.000197587 )  
( 0.00108655 0.00104472 0.0050453 )  
( 0.000452713 0.00375082 0.00613054 )  
( 0.000975422 -0.000963339 0.00420897 )  
( 0.000780413 -0.00090526 0.00549905 )  
( 0.00208256 0.00300798 0.00588178 )  
( -0.000310869 -8.22592e-05 0.00674842 )  
( -0.000257993 -8.79881e-05 0.00673794 )  
( 0.00377857 -0.000859444 2.77928e-07 )  
( 0.000327574 0.000356125 8.78561e-05 )  
( -0.000649422 -0.000138111 0.00641256 )  
( 0.000163545 0.000284998 0.00613815 )  
( 0.000407211 0.00129649 0.0053817 )  
( 0.00038733 0.000426723 0.000248804 )  
( -0.00193198 -0.00145428 -0.00196945 )  
( -8.96184e-05 4.06144e-05 2.52896e-05 )  
( 1.50731e-05 -0.000172061 2.96837e-05 )  
( 0.000140756 -0.00123284 0.00609943 )  
( -0.00122406 0.000101035 -0.000522567 )  
( 0.00312401 0.00240898 0.0148614 )  
( -0.000957944 0.00155761 -0.000604777 )  
( 0.00309281 0.00440352 0.0039338 )  
( 4.60911e-05 0.000604107 0.00635211 )  
( -0.00132113 0.000373068 6.97397e-05 )  
( -0.000190704 0.000686476 0.00385439 )  
( -6.3126e-06 -0.000354043 0.000131168 )  
( 2.78315e-05 -1.1409e-05 0.00622998 )  
( 0.00196485 0.00188426 0.00515416 )  
( 0.000652677 0.00265924 0.00640275 )  
( 0.000369517 0.000131411 0.00455422 )  
( 0.00315503 -0.00162003 0.00802246 )  
( -0.000669794 0.00138992 0.00506937 )  
( -0.000741018 -0.00107677 0.00590287 )  
( -0.000140628 0.000805182 5.9207e-05 )  
( -0.000165356 0.000814654 0.00711297 )  
( -0.000360031 -0.00185555 0.00675782 )  
( -0.000577142 0.00128949 0.00736549 )  
( 0.00032603 0.00109302 6.19941e-05 )  
( 0.000154839 0.000871636 2.15322e-05 )  
( -0.000425341 0.000709046 0.00476721 )  