/*--------------------------------*- C++ -*----------------------------------*\
| =========                 |                                                 |
| \\      /  F ield         | OpenFOAM: The Open Source CFD Toolbox           |
|  \\    /   O peration     | Version:  2506                                  |
|   \\  /    A nd           | Website:  www.openfoam.com                      |
|    \\/     M anipulation  |                                                 |
\*---------------------------------------------------------------------------*/
FoamFile
{
    version     2.0;
    format      ascii;
    arch        "LSB;label=32;scalar=64";
    class       volScalarField;
    location    "0.01";
    object      Ksl;
}
// * * * * * * * * * * * * * * * * * * * * * * * * * * * * * * * * * * * * * //

dimensions      [1 -3 -1 0 0 0 0];

internalField   nonuniform List<scalar> 
512
(
0
0.31428
1.35642
0
0
0
0
0
0
0
0
0
0
0
0
0
0.038849
0
0
0
0
0
0
0
0
1.20948
0
0
0
0
0
0
0
0
0
0
0
0
0
0
0
0
0
0
0
3.55435
0
0
0
0
0
0
0
0
0
0
0
0
0
0
0.72074
0
0
0
0
0
2.29755
0
1.20073
3.5205
0
0
0
0
0
0
0
0
0.121766
0
0
3.55582
0
0
0
0
0
0
0
0
0
0
0
0
0
0
0
0
0.121578
0
0
0
0
0
0
3.5291
0
0
1.20554
0
0
0
0
0
0
1.20493
0
0
0.479096
0
0
3.54373
0
0
0
3.53026
0
0
0
0
0
0
3.53456
0.241732
0
0
0
0
0
0
0
0
0
0
0
0.723129
1.09004e-16
3.53971
0
1.20068
5.43101
0
0
0
0
0
0
0
0
0
0
0
1.21478
0
0
0.964681
3.54817
0
3.5429
0
0
0
1.21768
0
0
1.20481
0
0
1.2107
0
0
0
0
0
3.56119
0
0
0
0
0
0
0.121832
0
0
0
0
0
0
0
0
0
0
0
0
0
0.727752
3.53996
0
0
0
0
0
0
0
0
0
0
0
0
0
0
0
0
0
0
0
0
3.05428
0
0
0
0
0
0
0
0
0.875158
0
0
0
0
0
0
0
0
0
0
0
0
0.00725535
0
0
1.38571
0
0
0
0.580807
5.43918
1.37146
0.739083
0.158155
13.4953
4.37445
6.64176
3.6131
3.3185
6.54594
0.80914
4.70831
5.83563
2.45144
3.78831
3.45194
11.6616
0.295893
3.91925
3.99217
7.92753
7.29595
3.31493
2.212
7.18919
5.6414
1.05057
7.48311
3.87116
2.5603
6.71147
3.75578
3.84342
5.43777
7.52429
3.71793
13.8212
14.7308
3.80443
5.87537
6.62876
0.900341
3.845
7.46534
3.81168
3.54859
5.25879
9.70081
10.4668
6.04191
13.1122
6.33619
7.13911
7.54514
5.02473e-16
13.7818
13.7118
0.546582
7.75504
9.87294
1.13004
7.34893
7.12738
6.08507
12.315
8.99126
6.60189
6.2072
6.22968
10.7172
4.7863
0.63455
9.7976
7.59127
7.76081
4.68382
4.04187
10.1945
9.03547
3.72326
3.33976
1.08086
4.24306
0.749271
12.1909
4.74931
6.44168
3.91219
5.28183
13.5592
9.15466
3.71253
0.064684
12.6378
6.44824
0
6.83848e-16
7.24514
7.36401
4.01503
14.535
6.98527
9.11933
1.66299
3.70584
2.7343
13.8887
2.63862
0.10807
5.96116
10.8571
3.85948
3.60421
11.4296
13.7354
0.992443
16.8673
4.17947
0.0879258
0.548141
11.2288
4.70073
8.4625
3.80776
8.45845
4.81247
5.79223
6.07086
9.36575
5.56862
0.215718
10.5059
0.70169
17.4012
10.8267
8.97297
8.75299
12.4665
12.3416
5.11685
7.62998
8.15096
5.42826
0.0956627
7.17335
9.23146
7.71567
8.07696
12.7436
7.84842
7.33364
5.5926
4.84652
11.0667
9.728
0.52084
4.5394
2.36939
9.29463
11.3637
4.65268
6.22252
5.21375
7.38023
6.52028
2.90307
11.1146
1.27063
6.99837
2.85798
0.283827
9.01087
11.1612
4.13474
15.1313
10.323
0.397951
6.27808
9.76725
0.266018
0
1.01244
3.44444
3.6224
0.233834
0
3.7476
7.30416
3.67142
9.28541
10.9174
0.569981
9.94545
12.42
10.5991
7.51576
3.46877
7.43763
6.08888
4.23379
9.90864
8.60221
3.67404
1.28927
6.64252
10.8957
9.51894
11.2982
11.0864
2.12757
3.68727
0.211666
7.88067
14.5487
4.45333
7.89895
17.2693
4.35367
1.04365
0
7.53891
1.59285
4.70731
0.0949376
0.282607
5.71473
1.95419
0.978863
6.07841
7.21799
0.6313
2.61208
7.53509
3.80337
0.152544
5.30243
3.11845
5.93172
0.0949482
4.7992
2.1517
0.184659
6.86717
7.7048
2.97141
4.94739
7.39351
2.78903
5.3939
3.3398
11.3501
2.23554
4.8327
5.37374
6.88341
)
;

boundaryField
{
    wall
    {
        type            zeroGradient;
    }
    outlet
    {
        type            cyclic;
    }
    inlet
    {
        type            cyclic;
    }
    procBoundary3to2
    {
        type            processor;
        value           uniform 0;
    }
}


// ************************************************************************* //
