/*--------------------------------*- C++ -*----------------------------------*\
| =========                 |                                                 |
| \\      /  F ield         | OpenFOAM: The Open Source CFD Toolbox           |
|  \\    /   O peration     | Version:  2506                                  |
|   \\  /    A nd           | Website:  www.openfoam.com                      |
|    \\/     M anipulation  |                                                 |
\*---------------------------------------------------------------------------*/
FoamFile
{
    version     2.0;
    format      ascii;
    arch        "LSB;label=32;scalar=64";
    class       volScalarField;
    location    "0.01";
    object      voidfraction;
}
// * * * * * * * * * * * * * * * * * * * * * * * * * * * * * * * * * * * * * //

dimensions      [0 0 0 0 0 0 0];

internalField   nonuniform List<scalar> 
512
(
1
0.999908
0.999732
1
1
1
1
1
1
1
1
1
1
1
1
1
0.999991
1
1
1
1
1
1
1
1
0.999908
1
1
1
1
1
1
1
1
1
1
1
1
1
1
1
1
1
1
1
0.999732
1
1
1
1
1
1
1
1
1
1
1
1
1
1
0.999945
1
1
1
1
1
0.999824
1
0.999908
0.999732
1
1
1
1
1
1
1
1
0.999991
1
1
0.999732
1
1
1
1
1
1
1
1
1
1
1
1
1
1
1
1
0.999991
1
1
1
1
1
1
0.999732
1
1
0.999908
1
1
1
1
1
1
0.999908
1
1
0.999963
1
1
0.999732
1
1
1
0.999732
1
1
1
1
1
1
0.999732
0.999982
1
1
1
1
1
1
1
1
1
1
1
0.999945
1
0.999732
1
0.999908
0.999584
1
1
1
1
1
1
1
1
1
1
1
0.999908
1
1
0.999926
0.999732
1
0.999732
1
1
1
0.999908
1
1
0.999908
1
1
0.999908
1
1
1
1
1
0.999732
1
1
1
1
1
1
0.999991
1
1
1
1
1
1
1
1
1
1
1
1
1
0.999945
0.999732
1
1
1
1
1
1
1
1
1
1
1
1
1
1
1
1
1
1
1
1
0.999732
1
1
1
1
1
1
1
1
0.999908
1
1
1
1
1
1
1
1
1
1
1
1
0.999991
1
1
0.999732
1
1
1
0.999196
0.998854
0.999455
0.999464
0.999556
0.99829
0.999196
0.998392
0.999196
0.999187
0.998928
0.999464
0.998392
0.998928
0.999464
0.999196
0.99841
0.998123
0.999464
0.999196
0.999556
0.998567
0.997939
0.999473
0.998373
0.998752
0.998946
0.999713
0.998955
0.999196
0.999464
0.99866
0.999196
0.999094
0.998992
0.998928
0.999187
0.99841
0.99865
0.999196
0.998105
0.998475
0.998345
0.999455
0.99914
0.999196
0.999464
0.99866
0.998382
0.998281
0.998946
0.99866
0.998928
0.999196
0.998549
1
0.998641
0.99841
0.999196
0.998928
0.998706
0.999639
0.998678
0.999196
0.998928
0.998382
0.999316
0.999196
0.999556
0.999464
0.998401
0.998123
0.999464
0.998918
0.998401
0.998142
0.999418
0.999196
0.998946
0.99866
0.999732
0.99902
0.999464
0.998604
0.999732
0.998928
0.999196
0.999214
0.99866
0.999288
0.998641
0.998881
0.999464
0.999824
0.998623
0.999482
1
1
0.998946
0.998983
0.998928
0.998392
0.999214
0.998715
0.99866
0.999732
0.99902
0.998549
0.999122
0.999732
0.998918
0.998392
0.998928
0.999676
0.998401
0.998049
0.999362
0.99841
0.998872
0.999732
0.999464
0.998031
0.998918
0.997652
0.999187
0.99866
0.999408
0.999519
0.998567
0.998123
0.998752
0.999408
0.998928
0.999695
0.997781
0.99902
0.998392
0.999196
0.998392
0.997587
0.998946
0.999445
0.998401
0.998918
0.999732
0.998678
0.999316
0.99865
0.99866
0.998207
0.999436
0.999196
0.99866
0.998937
0.998401
0.99841
0.999455
0.999464
0.999519
0.998928
0.998807
0.997606
0.999436
0.998715
0.999464
0.99902
0.999205
0.998613
0.998928
0.999464
0.999029
0.999455
0.998752
0.998928
0.999445
0.998512
0.998641
0.998955
0.999288
0.998123
0.999464
1
0.999464
0.999676
0.99963
0.999455
1
0.999464
0.998946
0.999445
0.99914
0.998937
0.999408
0.999214
0.998114
0.998604
0.998928
0.999196
0.999066
0.998465
0.999177
0.998835
0.998928
0.999639
0.999639
0.999251
0.998142
0.998918
0.998863
0.99866
0.998928
0.999464
0.999732
0.998835
0.99866
0.998983
0.997966
0.998114
0.998918
0.999297
1
0.998401
0.998928
0.998392
0.999732
0.999455
0.99865
0.999307
0.999639
0.998669
0.999473
0.998891
0.998734
0.998743
0.998937
0.999732
0.99902
0.99902
0.999196
0.999732
0.998983
0.99866
0.999732
0.99866
0.998401
0.998743
0.99866
0.998928
0.999408
0.997652
0.998928
0.998031
0.999464
0.998918
0.998392
0.998928
)
;

boundaryField
{
    wall
    {
        type            zeroGradient;
    }
    outlet
    {
        type            cyclic;
    }
    inlet
    {
        type            cyclic;
    }
    procBoundary3to2
    {
        type            processor;
        value           uniform 1;
    }
}


// ************************************************************************* //
