/*--------------------------------*- C++ -*----------------------------------*\
| =========                 |                                                 |
| \\      /  F ield         | OpenFOAM: The Open Source CFD Toolbox           |
|  \\    /   O peration     | Version:  2506                                  |
|   \\  /    A nd           | Website:  www.openfoam.com                      |
|    \\/     M anipulation  |                                                 |
\*---------------------------------------------------------------------------*/
FoamFile
{
    version     2.0;
    format      ascii;
    arch        "LSB;label=32;scalar=64";
    class       surfaceScalarField;
    location    "0.08";
    object      phi;
}
// * * * * * * * * * * * * * * * * * * * * * * * * * * * * * * * * * * * * * //

dimensions      [0 3 -1 0 0 0 0];

oriented        oriented;

internalField   nonuniform List<scalar> 
3120
(
-1.84533e-09
-1.3383e-09
5.00791e-08
-1.82379e-09
8.91231e-10
-4.54528e-10
2.97198e-08
3.73999e-09
1.81615e-09
4.31074e-08
-1.42503e-09
5.45425e-08
3.97431e-10
4.87322e-09
4.19551e-08
5.10745e-10
2.80102e-09
7.15657e-09
3.54273e-08
-8.69972e-10
1.17655e-09
5.29263e-08
1.43678e-09
4.17303e-08
1.14476e-09
-1.1891e-09
4.65853e-08
5.8062e-09
-3.01582e-09
-1.70377e-09
5.72258e-08
-2.26623e-09
2.3794e-09
4.78041e-08
2.80013e-09
3.93736e-08
-1.93937e-09
4.16313e-08
-1.04721e-09
8.67321e-09
2.83517e-09
3.68475e-08
4.05052e-09
-2.44067e-09
5.83573e-08
-2.45378e-09
4.56727e-08
5.84298e-10
7.58341e-09
5.57326e-09
3.12221e-08
2.90864e-09
-1.42412e-09
-5.42724e-10
5.23676e-08
-4.09722e-09
-3.41972e-09
5.58739e-08
-2.98259e-10
5.20336e-08
9.77223e-10
1.07466e-09
4.43452e-08
1.13136e-09
-1.97379e-09
-4.64671e-10
3.83003e-08
1.2101e-10
1.01033e-09
4.64015e-08
3.57575e-09
3.72634e-08
1.49909e-09
6.13084e-09
3.58184e-08
4.21174e-09
-5.53833e-10
7.98625e-09
5.08279e-08
7.14102e-10
5.11007e-09
4.24365e-08
9.42297e-10
4.58462e-08
2.01677e-09
4.7159e-08
-7.86416e-10
-6.27201e-10
-3.67834e-09
5.40966e-08
-3.56764e-09
-2.09253e-09
6.17311e-08
1.50558e-10
3.20894e-08
5.95896e-09
-1.08533e-09
-1.47299e-09
4.36863e-08
-5.12977e-09
-2.19309e-09
-3.78045e-09
6.287e-08
-5.12935e-10
-2.09695e-09
5.81771e-08
-2.79245e-09
5.72115e-08
-2.78803e-09
-4.58386e-09
5.66211e-08
-6.377e-09
-3.47375e-10
-4.09298e-09
3.61722e-08
-9.59629e-10
-6.97028e-10
4.56138e-08
2.58801e-09
2.36463e-08
-3.14503e-09
-2.41442e-09
4.08108e-08
-4.01676e-09
2.34426e-09
8.46351e-10
4.03993e-08
2.72973e-09
-1.93627e-09
4.32903e-08
-1.33693e-09
5.2098e-08
-2.71024e-09
5.56036e-08
6.06886e-10
-8.75568e-09
-8.72032e-10
5.54466e-08
-2.34185e-09
4.49324e-09
4.57927e-08
8.63692e-09
2.4599e-08
5.96736e-09
-9.06891e-10
-6.68609e-10
5.20475e-08
-2.8765e-09
1.29816e-08
1.01305e-09
4.62557e-08
-3.83031e-09
-8.84805e-10
8.07429e-08
3.2235e-09
5.23204e-08
1.29752e-09
4.67034e-09
5.41477e-08
-4.163e-09
5.92026e-09
2.12948e-10
3.23496e-08
7.98145e-10
-2.05289e-09
5.19039e-08
3.88813e-11
2.94135e-08
-1.30998e-09
-6.73587e-09
6.34528e-08
-9.92581e-09
4.86814e-09
-5.69922e-09
4.01334e-08
2.87446e-09
-7.77144e-09
5.10025e-08
-1.43603e-09
5.7731e-08
-4.75984e-09
5.48141e-08
5.29505e-09
-6.48149e-09
3.27123e-09
3.52968e-08
6.41948e-09
4.09959e-09
3.32893e-08
3.90355e-09
3.54691e-08
-7.29138e-09
1.05507e-09
6.48959e-10
5.27687e-08
-2.00658e-09
3.65884e-09
1.21637e-09
3.87591e-08
1.23737e-10
1.69725e-09
7.40169e-08
2.0226e-09
4.2101e-08
1.22998e-09
7.10289e-09
4.85007e-08
-2.03692e-09
1.19938e-10
6.61462e-10
3.40145e-08
1.57119e-09
2.07274e-09
5.00771e-08
-8.39699e-10
3.37214e-08
-3.02987e-09
-6.59668e-09
9.01616e-08
-9.9793e-09
5.35935e-11
-2.14748e-09
3.98589e-08
-1.87485e-09
-2.53627e-09
5.75399e-08
8.09375e-10
5.09282e-08
1.02912e-09
4.64353e-08
4.41352e-09
-3.66056e-09
2.24623e-10
3.64703e-08
-2.51647e-09
1.73013e-09
3.24557e-08
-3.20817e-09
3.99638e-08
-5.00722e-09
4.27437e-09
-6.73925e-10
4.99439e-08
-6.84635e-09
-6.97602e-09
3.52315e-10
5.1142e-08
1.23417e-09
1.8336e-09
5.98464e-08
2.20343e-09
4.44197e-08
4.13346e-09
5.88255e-09
3.65008e-08
1.30992e-09
-4.66543e-09
1.84977e-10
4.29808e-08
8.40598e-10
-2.07632e-10
4.66123e-08
7.01893e-10
3.91367e-08
1.77097e-09
-7.97546e-09
1.04399e-07
-2.15036e-09
-9.74591e-09
-2.48532e-09
5.4046e-08
3.79905e-09
1.50283e-09
4.22845e-08
3.84633e-09
4.99423e-08
4.14931e-09
5.18096e-08
-1.83328e-08
8.33729e-10
-3.33621e-09
4.55593e-08
-4.08884e-09
3.73736e-09
3.05413e-08
-3.65637e-09
5.74883e-08
-1.66055e-09
-1.12415e-09
1.44342e-09
4.82385e-08
2.86906e-09
-9.22119e-10
2.24495e-09
4.86654e-08
8.41041e-10
1.32221e-09
5.5677e-08
2.50709e-10
4.87892e-08
-1.92894e-09
-1.10232e-08
4.97203e-08
1.17622e-09
-4.46744e-10
-1.82201e-09
4.55651e-08
-2.34082e-10
8.03545e-10
4.69182e-08
-1.32858e-09
4.2362e-08
1.90831e-09
1.44914e-09
7.67636e-08
1.32544e-08
1.1722e-09
-4.10876e-10
5.3371e-08
-1.13517e-09
1.20909e-09
4.41862e-08
-1.48219e-10
4.83041e-08
5.30602e-10
5.04709e-08
-6.20366e-11
2.31867e-09
2.75128e-09
4.54905e-08
-2.56271e-09
-3.62765e-09
4.07006e-08
-2.57141e-09
5.09116e-08
2.95152e-09
-7.43503e-09
5.25845e-10
4.82674e-08
7.15123e-09
-8.01192e-09
1.32504e-09
4.77628e-08
-6.63668e-09
1.87639e-09
5.24756e-08
3.81873e-09
4.7596e-08
-7.71113e-09
6.25906e-10
4.93429e-08
7.98834e-09
-7.22305e-09
1.98814e-09
4.44133e-08
-4.94812e-09
2.33491e-09
4.4184e-08
3.17818e-09
4.17077e-08
-5.4082e-09
5.71009e-09
6.79318e-08
9.15552e-09
-5.75375e-09
4.64861e-09
5.10557e-08
-3.69687e-09
4.32138e-09
4.01423e-08
3.92746e-09
4.51002e-08
-6.19198e-09
5.33073e-08
3.98545e-09
5.08034e-09
-7.63507e-09
4.75228e-08
4.05874e-09
-4.70606e-09
3.69881e-08
5.10479e-09
4.46239e-08
6.47348e-09
-2.03259e-10
-2.37369e-09
4.84395e-08
1.38099e-09
5.11765e-10
-7.02017e-10
4.74233e-08
1.98038e-09
1.10686e-10
4.84028e-08
-1.82792e-09
4.61925e-08
1.58054e-09
-4.62408e-09
4.93538e-08
6.58385e-10
1.38595e-09
-2.79823e-09
4.67038e-08
3.78513e-10
-5.28367e-10
4.58311e-08
-2.81984e-09
4.44831e-08
3.87532e-09
1.12849e-09
5.58011e-08
2.5022e-09
3.59513e-09
-1.27064e-09
4.98073e-08
-8.23006e-10
-9.4785e-10
4.49798e-08
-1.64114e-09
4.65515e-08
2.2158e-09
5.10961e-08
1.30826e-09
-1.84853e-10
2.26973e-09
4.85908e-08
-2.39323e-09
-2.78772e-09
4.41187e-08
-3.02121e-09
4.69812e-08
-1.14934e-09
7.99739e-10
-1.31118e-09
4.84459e-08
-2.08563e-10
8.95115e-10
-8.08294e-10
4.7744e-08
1.24329e-09
-6.70908e-10
4.74277e-08
-1.73124e-09
4.6572e-08
1.20822e-09
-1.96982e-09
4.90433e-08
-2.39218e-10
1.03994e-09
-1.72394e-09
4.77875e-08
3.15707e-10
-1.14225e-09
4.70272e-08
-2.41124e-09
4.65133e-08
1.61033e-09
5.25593e-10
5.09169e-08
7.77414e-10
1.62893e-09
-8.98135e-10
4.89627e-08
-6.20433e-10
-1.16006e-09
4.72471e-08
-1.87284e-09
4.74926e-08
3.68076e-10
4.97401e-08
7.67898e-10
7.44604e-10
5.78598e-10
4.87543e-08
-1.2725e-09
-1.77064e-09
4.73361e-08
-2.02844e-09
4.80423e-08
-1.52442e-09
8.1434e-10
-8.08148e-10
4.8566e-08
-4.80447e-10
8.38489e-10
-7.47856e-10
4.815e-08
6.90893e-10
-8.6188e-10
4.77723e-08
-1.38372e-09
4.73863e-08
8.20641e-10
-1.10524e-09
4.88906e-08
-3.71155e-10
7.08251e-10
-1.16472e-09
4.83167e-08
1.98032e-10
-1.18055e-09
4.78563e-08
-1.73197e-09
4.76381e-08
7.92052e-10
-4.17317e-10
4.951e-08
-7.3407e-11
6.75294e-10
-9.01737e-10
4.8816e-08
-2.79423e-10
-1.16029e-09
4.81814e-08
-1.55996e-09
4.81726e-08
2.85427e-10
4.92539e-08
-2.87208e-10
7.04709e-11
1.91708e-10
4.88841e-08
-9.3802e-10
-7.98091e-10
4.84075e-08
-1.24208e-09
4.8588e-08
-1.26018e-09
5.56966e-10
-4.27148e-10
4.8723e-08
-4.39937e-10
5.29203e-10
-5.02709e-10
4.8486e-08
3.32626e-10
-6.49782e-10
4.82537e-08
-9.34034e-10
4.8069e-08
4.6048e-10
-5.63446e-10
4.88768e-08
-3.1083e-10
3.70765e-10
-7.11909e-10
4.86154e-08
4.8926e-11
-8.57217e-10
4.83856e-08
-1.13955e-09
4.82839e-08
3.19914e-10
-3.64729e-10
4.91097e-08
-1.18838e-10
2.15264e-10
-6.4408e-10
4.88525e-08
-2.17418e-10
-8.56277e-10
4.8613e-08
-1.09608e-09
4.85973e-08
3.45949e-11
4.90916e-08
-3.09961e-10
7.26097e-11
-6.54821e-11
4.89563e-08
-6.16507e-10
-4.94423e-10
4.87959e-08
-8.16133e-10
4.88689e-08
-9.2849e-10
3.05706e-10
-2.29231e-10
4.88553e-08
-2.68255e-10
2.62851e-10
-3.07961e-10
4.87293e-08
1.19979e-10
-4.16215e-10
4.86068e-08
-5.72192e-10
4.85229e-08
2.18915e-10
-3.21651e-10
4.89278e-08
-1.77934e-10
1.49243e-10
-4.32785e-10
4.88093e-08
-3.72246e-11
-5.48577e-10
4.87042e-08
-7.02641e-10
4.8663e-08
1.08187e-10
-2.83779e-10
4.90293e-08
-6.62129e-11
2.69452e-11
-4.30385e-10
4.89308e-08
-1.88966e-10
-5.63588e-10
4.88436e-08
-6.98939e-10
4.88455e-08
-4.28352e-11
4.90597e-08
-2.6441e-10
5.48996e-11
-1.21861e-10
4.9014e-08
-4.09492e-10
-3.36269e-10
4.89692e-08
-5.22831e-10
4.90143e-08
-6.06371e-10
1.41752e-10
-1.30015e-10
4.89526e-08
-1.34572e-10
1.04716e-10
-1.87123e-10
4.88893e-08
1.43159e-11
-2.57717e-10
4.88303e-08
-3.45773e-10
4.87955e-08
8.13907e-11
-1.93082e-10
4.89879e-08
-7.91145e-11
3.16813e-11
-2.64213e-10
4.89354e-08
-7.3718e-11
-3.40018e-10
4.88911e-08
-4.26203e-10
4.88795e-08
1.03622e-11
-1.99524e-10
4.90379e-08
-1.31133e-11
-4.60813e-11
-2.79178e-10
4.90016e-08
-1.59945e-10
-3.57035e-10
4.8974e-08
-4.328e-10
4.89855e-08
-7.29601e-11
4.90695e-08
-1.94257e-10
5.73749e-11
-1.29431e-10
4.90587e-08
-2.67899e-10
-2.40137e-10
4.9054e-08
-3.31477e-10
4.90878e-08
-3.826e-10
5.29543e-11
-7.97696e-11
4.90201e-08
-5.70729e-11
2.55481e-11
-1.17104e-10
4.899e-08
-2.85999e-11
-1.61213e-10
4.89641e-08
-2.11872e-10
4.89526e-08
1.431e-11
-1.21549e-10
4.90382e-08
-2.34022e-11
-1.95277e-11
-1.6488e-10
4.90163e-08
-7.94699e-11
-2.11432e-10
4.90004e-08
-2.60492e-10
4.90017e-08
-2.96629e-11
-1.35886e-10
4.90653e-08
1.61519e-11
-6.68575e-11
-1.80652e-10
4.9054e-08
-1.28777e-10
-2.2542e-10
4.90494e-08
-2.68e-10
4.90636e-08
-7.60616e-11
4.90892e-08
-1.3626e-10
5.63156e-11
-1.13915e-10
4.90911e-08
-1.75706e-10
-1.7326e-10
4.9099e-08
-2.11469e-10
4.91252e-08
-2.41089e-10
9.80981e-12
-5.30446e-11
4.90654e-08
-1.69244e-11
-9.16097e-12
-7.66064e-11
4.90522e-08
-4.10396e-11
-1.03746e-10
4.90424e-08
-1.33529e-10
4.9041e-08
-1.43281e-11
-8.00243e-11
4.90753e-08
3.85901e-12
-3.66328e-11
-1.05945e-10
4.90676e-08
-7.09423e-11
-1.33767e-10
4.90641e-08
-1.62094e-10
4.90701e-08
-4.07384e-11
-9.24325e-11
4.90912e-08
2.69822e-11
-6.49276e-11
-1.17918e-10
4.90899e-08
-9.94715e-11
-1.43614e-10
4.90934e-08
-1.67679e-10
4.91067e-08
-6.72079e-11
4.91077e-08
-9.43656e-11
5.04568e-11
-9.17359e-11
4.91136e-08
-1.16077e-10
-1.24481e-10
4.91242e-08
-1.36144e-10
4.91441e-08
-1.5285e-10
-8.74976e-12
-3.77485e-11
4.90952e-08
1.90567e-12
-2.14195e-11
-5.23964e-11
4.90903e-08
-3.99894e-11
-6.8998e-11
4.90878e-08
-8.68138e-11
4.90902e-08
-2.36755e-11
-5.46167e-11
4.91012e-08
1.44774e-11
-3.82013e-11
-7.00847e-11
4.90998e-08
-5.78713e-11
-8.65767e-11
4.91013e-08
-1.03104e-10
4.9108e-08
-3.94856e-11
-6.35289e-11
4.9111e-08
2.84988e-11
-5.49671e-11
-7.80988e-11
4.91135e-08
-7.45425e-11
-9.28059e-11
4.91193e-08
-1.0646e-10
4.91303e-08
-5.47082e-11
4.91221e-08
-6.53193e-11
4.21437e-11
-7.03122e-11
4.91287e-08
-7.73858e-11
-8.87238e-11
4.91386e-08
-8.85472e-11
4.91534e-08
-9.77793e-11
-1.50377e-11
-2.79631e-11
4.91145e-08
9.3134e-12
-2.34435e-11
-3.70109e-11
4.91136e-08
-3.42322e-11
-4.70949e-11
4.91142e-08
-5.7749e-11
4.91177e-08
-2.42281e-11
-3.83172e-11
4.91186e-08
1.71036e-11
-3.36192e-11
-4.75051e-11
4.91198e-08
-4.49255e-11
-5.72074e-11
4.9123e-08
-6.68464e-11
4.91291e-08
-3.36552e-11
-4.4131e-11
4.9125e-08
2.55883e-11
-4.34931e-11
-5.24636e-11
4.91286e-08
-5.46637e-11
-6.08288e-11
4.91344e-08
-6.85481e-11
4.91431e-08
-4.24483e-11
4.91325e-08
-4.53178e-11
3.35868e-11
-5.2269e-11
4.91385e-08
-5.20259e-11
-6.27059e-11
4.91467e-08
-5.8147e-11
4.91576e-08
-6.31405e-11
-1.5559e-11
-2.10329e-11
4.9127e-08
1.11143e-11
-2.11468e-11
-2.65706e-11
4.91278e-08
-2.74828e-11
-3.26087e-11
4.91298e-08
-3.88688e-11
4.91333e-08
-2.11742e-11
-2.72657e-11
4.913e-08
1.59547e-11
-2.72378e-11
-3.26955e-11
4.91322e-08
-3.37687e-11
-3.83433e-11
4.91357e-08
-4.3892e-11
4.91408e-08
-2.67731e-11
-3.08282e-11
4.91344e-08
2.11169e-11
-3.30001e-11
-3.55789e-11
4.91381e-08
-3.93861e-11
-4.02913e-11
4.91431e-08
-4.45989e-11
4.91498e-08
-3.18615e-11
4.91395e-08
-3.14591e-11
2.58275e-11
-3.79952e-11
4.91447e-08
-3.51671e-11
-4.39048e-11
4.91511e-08
-3.84583e-11
4.91591e-08
-4.10875e-11
-1.35518e-11
-1.57178e-11
4.9135e-08
1.02618e-11
-1.72383e-11
-1.9086e-11
4.91365e-08
-2.09874e-11
-2.26637e-11
4.91388e-08
-2.62992e-11
4.91421e-08
-1.69647e-11
-1.93951e-11
4.91373e-08
1.32821e-11
-2.0849e-11
-2.25949e-11
4.91397e-08
-2.46415e-11
-2.58599e-11
4.9143e-08
-2.90183e-11
4.91472e-08
-2.02857e-11
-2.14767e-11
4.91405e-08
1.64287e-11
-2.41938e-11
-2.41742e-11
4.91438e-08
-2.78485e-11
-2.68089e-11
4.9148e-08
-2.91808e-11
4.91531e-08
-2.32334e-11
4.91441e-08
-2.17314e-11
1.9201e-11
-2.70289e-11
4.91483e-08
-2.37602e-11
-3.03638e-11
4.91534e-08
-2.54897e-11
4.91592e-08
-2.68286e-11
-1.06257e-11
-1.14401e-11
4.91401e-08
8.31401e-12
-1.29935e-11
-1.34842e-11
4.91418e-08
-1.52043e-11
-1.56053e-11
4.91441e-08
-1.774e-11
4.91469e-08
-1.26974e-11
-1.35623e-11
4.9142e-08
1.01923e-11
-1.5136e-11
-1.54451e-11
4.91443e-08
-1.73524e-11
-1.73358e-11
4.91471e-08
-1.91385e-11
4.91506e-08
-1.46667e-11
-1.47247e-11
4.91444e-08
1.20957e-11
-1.70824e-11
-1.62494e-11
4.91472e-08
-1.91891e-11
-1.77184e-11
4.91507e-08
-1.90128e-11
4.91547e-08
-1.63726e-11
4.9147e-08
-1.47616e-11
1.37112e-11
-1.86924e-11
4.91505e-08
-1.58533e-11
-2.05816e-11
4.91545e-08
-1.6739e-11
4.91589e-08
-1.7388e-11
-7.61132e-12
-7.88751e-12
4.91433e-08
6.07896e-12
-9.07118e-12
-9.11359e-12
4.91449e-08
-1.03627e-11
-1.03604e-11
4.9147e-08
-1.16186e-11
4.91495e-08
-8.85607e-12
-9.07011e-12
4.91449e-08
7.22564e-12
-1.03322e-11
-1.0166e-11
4.9147e-08
-1.16296e-11
-1.12533e-11
4.91495e-08
-1.22807e-11
4.91523e-08
-1.00116e-11
-9.68807e-12
4.91468e-08
8.35492e-12
-1.14572e-11
-1.05334e-11
4.91493e-08
-1.26801e-11
-1.13401e-11
4.91522e-08
-1.20336e-11
4.91554e-08
-1.0983e-11
4.91489e-08
-9.63168e-12
9.28288e-12
-1.23599e-11
4.91518e-08
-1.01893e-11
-1.34389e-11
4.9155e-08
-1.06231e-11
4.91585e-08
-1.09114e-11
-4.95439e-12
-4.87364e-12
4.91451e-08
4.02783e-12
-5.81654e-12
-5.58033e-12
4.91467e-08
-6.54999e-12
-6.27809e-12
4.91485e-08
-6.98094e-12
4.91507e-08
-5.67343e-12
-5.50512e-12
4.91466e-08
4.68375e-12
-6.52344e-12
-6.11405e-12
4.91485e-08
-7.25868e-12
-6.70754e-12
4.91507e-08
-7.26313e-12
4.91532e-08
-6.32191e-12
-5.81974e-12
4.91483e-08
5.32215e-12
-7.14159e-12
-6.26607e-12
4.91505e-08
-7.82985e-12
-6.68576e-12
4.9153e-08
-7.03299e-12
4.91557e-08
-6.84837e-12
4.915e-08
-5.756e-12
5.8447e-12
-7.6235e-12
4.91525e-08
-6.02249e-12
-8.22023e-12
4.91553e-08
-6.22024e-12
4.91583e-08
-6.32789e-12
-3.10572e-12
-2.50074e-12
2.56875e-12
-3.59581e-12
-2.86547e-12
-4.00255e-12
-3.23261e-12
-3.59343e-12
-3.4797e-12
-2.85819e-12
2.90933e-12
-3.96948e-12
-3.15718e-12
-4.36762e-12
-3.4512e-12
-3.72363e-12
-3.80395e-12
-3.05721e-12
3.22618e-12
-4.2814e-12
-3.26389e-12
-4.65132e-12
-3.45881e-12
-3.6136e-12
-4.05487e-12
-3.06097e-12
3.47621e-12
-4.51546e-12
-3.17237e-12
-4.83686e-12
-3.24531e-12
-3.2712e-12
2.08324e-09
8.79045e-10
2.08167e-08
5.30269e-09
-1.99864e-09
3.51812e-10
4.61639e-08
8.6739e-10
6.04372e-09
3.61315e-08
-2.76498e-09
5.52064e-08
1.11715e-09
6.17845e-09
2.28184e-08
6.34837e-09
3.17579e-09
1.917e-09
4.25142e-08
-5.64319e-09
2.37216e-09
6.70148e-08
3.98469e-09
4.4254e-08
-4.14477e-10
8.28837e-09
3.72018e-08
2.97989e-09
2.81955e-09
-3.26992e-09
5.40743e-08
-2.06755e-09
2.28787e-09
6.4877e-08
6.41873e-09
6.54045e-08
-3.08123e-09
5.50894e-08
4.45381e-09
4.07892e-09
4.84853e-08
3.62468e-10
7.16676e-08
8.61709e-08
1.87258e-10
-1.04512e-09
2.01503e-08
7.37856e-10
6.274e-10
-4.26235e-09
4.64185e-08
2.89232e-09
-1.35474e-10
3.41526e-08
3.00429e-09
6.44527e-08
-9.13235e-10
-7.37241e-10
2.23731e-08
1.05063e-09
4.04443e-09
1.64526e-09
3.1649e-08
5.74677e-09
3.41925e-09
6.17577e-08
-1.6483e-09
5.68577e-08
3.46345e-10
-1.11753e-09
3.65683e-08
6.67439e-10
4.00049e-09
-2.72233e-09
5.47877e-08
2.00502e-09
4.06928e-09
6.62225e-08
-4.459e-09
7.05555e-08
6.8565e-10
5.22302e-08
1.73787e-09
8.07181e-09
4.03652e-08
-9.38153e-10
8.57963e-08
7.78581e-08
-3.2115e-09
-8.19602e-09
3.71114e-08
-4.94672e-09
6.20862e-09
2.54555e-09
3.2111e-08
-8.01175e-10
-6.08215e-09
5.58815e-08
1.63478e-09
6.97709e-08
2.0717e-09
-5.28075e-09
1.94172e-08
-2.03104e-09
1.15032e-09
-3.87338e-09
3.89893e-08
7.06663e-09
9.77988e-10
4.87813e-08
7.71231e-09
6.26718e-08
3.54273e-09
-1.33441e-08
4.23003e-08
-1.21135e-09
2.39381e-09
5.65715e-09
4.64062e-08
7.49408e-09
-1.05716e-08
7.26717e-08
-5.73463e-09
9.54141e-08
6.2933e-09
3.59537e-08
-1.18898e-09
-1.59891e-09
5.44233e-08
8.87501e-09
6.60608e-08
8.06654e-08
5.87283e-09
1.02249e-09
4.13197e-08
-5.80858e-09
1.17039e-09
1.57446e-09
4.16584e-08
-7.23066e-09
-5.88516e-09
7.40713e-08
1.69671e-09
3.99662e-08
3.50534e-09
-7.12766e-09
2.49667e-08
-9.04575e-10
-1.87256e-09
-7.93243e-09
5.38741e-08
1.28202e-09
-3.80476e-09
4.35463e-08
1.09212e-08
4.6395e-08
1.85021e-09
3.76358e-09
2.9354e-08
2.04878e-10
-6.9774e-10
-1.56703e-09
4.25887e-08
9.47221e-09
-3.48617e-09
6.21832e-08
1.10052e-08
9.44189e-08
5.21437e-10
3.87043e-08
8.16389e-10
-8.42282e-10
5.43865e-08
8.22104e-09
5.37161e-08
1.00792e-07
-4.13806e-09
-7.39258e-09
6.11678e-08
-3.9039e-09
-2.43993e-09
-3.66214e-09
4.11059e-08
-1.58842e-09
-1.07488e-09
7.10865e-08
-9.49957e-10
2.65377e-08
-5.67246e-10
-1.75425e-09
2.43582e-08
-4.46263e-09
-3.7451e-10
9.65143e-10
4.90541e-08
-2.20064e-10
-6.1192e-09
4.84362e-08
-1.25909e-08
5.3543e-08
6.04657e-10
-4.32284e-09
3.25952e-08
-1.27725e-09
-3.30836e-09
-4.53237e-09
5.19992e-08
-3.98452e-09
1.1695e-08
4.50451e-08
1.10854e-08
4.93408e-08
-5.32402e-11
3.98919e-08
-4.3162e-09
3.60186e-09
4.69931e-08
-1.40819e-08
8.49711e-08
9.84574e-08
6.47839e-09
-1.42669e-09
2.89816e-08
8.80162e-09
-5.25211e-09
-3.60807e-09
5.23557e-08
6.99941e-09
1.64633e-09
5.35322e-08
-4.18035e-09
3.54163e-08
4.1792e-10
-1.58987e-09
2.33972e-08
7.06298e-10
1.41464e-10
5.77608e-09
3.99464e-08
1.34254e-09
-2.71389e-10
4.91528e-08
-3.01706e-09
5.25313e-08
2.77524e-09
-1.13726e-09
3.22772e-08
-2.90986e-09
-2.97128e-09
-8.85923e-09
7.23811e-08
-3.1852e-10
-1.71493e-08
5.92703e-08
-1.92322e-08
6.24024e-08
2.32779e-10
4.15808e-08
-2.38974e-09
-1.03914e-08
5.05523e-08
-1.10853e-08
6.94226e-08
5.89253e-08
1.56539e-09
-3.49072e-09
3.05775e-08
2.6749e-10
3.74994e-09
2.59536e-09
4.50123e-08
1.05058e-09
8.07837e-10
5.28524e-08
-9.86231e-10
4.83724e-08
-1.09381e-09
-2.51641e-09
2.53548e-08
-1.83915e-09
-2.02502e-09
2.29939e-09
4.11739e-08
-1.76381e-09
-8.26077e-11
4.97818e-08
-4.26418e-10
5.121e-08
-8.95894e-10
-2.00501e-09
3.39507e-08
-1.28893e-09
1.23111e-09
8.99352e-09
6.35599e-08
3.66506e-10
-7.85284e-10
6.08375e-08
9.25208e-10
6.23223e-08
-3.19297e-10
4.19849e-08
-1.4936e-09
2.60918e-11
5.64614e-08
3.25359e-09
6.85486e-08
5.99738e-08
-1.66966e-09
7.38226e-09
2.84757e-08
3.74103e-10
-4.28479e-09
7.23408e-09
4.44528e-08
-2.61944e-09
9.34957e-09
4.6942e-08
7.88569e-09
4.59413e-08
-1.78585e-09
4.12653e-09
3.0761e-08
-3.64143e-10
-4.04854e-09
3.72502e-09
4.6946e-08
-3.28176e-09
7.85375e-09
5.05107e-08
6.25775e-09
5.10345e-08
-2.40074e-09
2.93906e-09
3.73041e-08
2.35255e-10
-1.58827e-09
6.26837e-09
6.02044e-08
-2.71127e-09
4.8117e-09
6.50029e-08
3.18493e-09
6.37493e-08
-1.37953e-09
4.58825e-08
4.21575e-10
-1.86071e-09
6.32114e-08
-2.38508e-09
7.38847e-08
6.03821e-08
-4.51847e-10
1.8185e-09
2.873e-08
-3.13264e-10
9.23734e-10
-8.20931e-10
4.15057e-08
-8.70539e-10
-1.36007e-09
4.70744e-08
3.11735e-11
4.92591e-08
-7.93877e-10
1.41993e-10
3.37381e-08
-5.0593e-10
4.61518e-10
-2.22553e-09
4.70959e-08
-2.65039e-10
-3.21848e-09
5.30957e-08
-6.38937e-10
5.59078e-08
-2.07787e-09
-5.22209e-10
3.96443e-08
4.01651e-10
8.75397e-11
-1.36605e-11
5.58287e-08
4.76857e-10
-1.60436e-09
6.29994e-08
2.13568e-09
6.46092e-08
-1.54001e-09
4.60857e-08
8.156e-10
2.90253e-10
6.13677e-08
2.28756e-09
7.0283e-08
6.67637e-08
-8.7855e-10
6.33392e-10
2.96604e-08
8.31869e-11
-4.65568e-10
-8.6573e-10
4.06855e-08
-1.2711e-09
-1.43179e-09
4.72834e-08
-1.03454e-09
5.08796e-08
-1.24607e-09
1.68445e-10
3.53719e-08
7.72383e-11
-7.45556e-10
-1.31006e-09
4.70398e-08
-1.09704e-09
-2.05124e-09
5.40664e-08
-8.95023e-10
5.77533e-08
-1.73411e-09
-1.03774e-11
4.1213e-08
3.45066e-10
-8.64601e-10
-3.47582e-10
5.39969e-08
-6.47013e-10
-1.01663e-09
6.1747e-08
7.76623e-10
6.49159e-08
-1.60726e-09
4.71763e-08
5.06398e-10
-7.7708e-10
6.01898e-08
-5.88554e-12
6.84951e-08
6.97399e-08
-2.83441e-10
-3.83311e-11
2.95145e-08
1.80686e-10
-2.80788e-10
-6.13261e-10
4.03584e-08
-8.69266e-10
-9.05978e-10
4.7536e-08
-8.3694e-10
5.14191e-08
-4.36913e-10
6.21363e-11
3.55307e-08
1.78116e-10
-3.581e-10
-5.0408e-10
4.68521e-08
-7.86451e-10
-8.18253e-10
5.44073e-08
-4.1346e-10
5.8396e-08
-6.04745e-10
8.88115e-11
4.1544e-08
2.47537e-10
-3.9999e-10
-1.33404e-10
5.3422e-08
-5.85696e-10
-3.22185e-10
6.14368e-08
3.47223e-10
6.53007e-08
-5.89458e-10
4.7572e-08
2.83083e-10
-3.2703e-10
5.97941e-08
-2.91046e-10
6.81369e-08
7.14212e-08
-2.811e-10
-1.86248e-10
2.95074e-08
1.64851e-10
-3.53254e-10
-4.77271e-10
4.02912e-08
-6.664e-10
-6.50679e-10
4.76837e-08
-6.86231e-10
5.15881e-08
-3.48721e-10
-8.15365e-11
3.56101e-08
1.64952e-10
-3.87165e-10
-3.38304e-10
4.67518e-08
-6.44825e-10
-4.81058e-10
5.44956e-08
-3.72261e-10
5.85778e-08
-4.01725e-10
-1.0919e-11
4.16967e-08
1.7872e-10
-3.9324e-10
-1.34764e-10
5.32103e-08
-5.60261e-10
-1.9548e-10
6.13186e-08
1.81659e-11
6.54764e-08
-4.01634e-10
4.77817e-08
1.81192e-10
-3.53118e-10
5.9611e-08
-4.36969e-10
6.80253e-08
7.21044e-08
-2.12066e-10
-1.82635e-10
2.95039e-08
1.33944e-10
-2.92356e-10
-3.23279e-10
4.0285e-08
-4.63842e-10
-4.23603e-10
4.77557e-08
-4.76378e-10
5.16522e-08
-2.371e-10
-1.00999e-10
3.56344e-08
1.31063e-10
-3.08776e-10
-2.19372e-10
4.67195e-08
-4.66293e-10
-2.94564e-10
5.45242e-08
-2.84538e-10
5.86238e-08
-2.54402e-10
-3.54918e-11
4.17553e-08
1.30318e-10
-3.09446e-10
-9.88464e-11
5.31451e-08
-4.36135e-10
-1.29829e-10
6.12808e-08
-7.01806e-11
6.55397e-08
-2.53395e-10
4.78737e-08
1.25922e-10
-2.92431e-10
5.95513e-08
-3.90757e-10
6.79939e-08
7.23565e-08
-1.62517e-10
-1.42011e-10
2.9509e-08
1.05045e-10
-2.26132e-10
-2.12437e-10
4.02929e-08
-3.20522e-10
-2.71259e-10
4.77897e-08
-3.1321e-10
5.16742e-08
-1.7053e-10
-8.65093e-11
3.5648e-08
1.01209e-10
-2.33495e-10
-1.43504e-10
4.67133e-08
-3.27171e-10
-1.86544e-10
5.45331e-08
-2.01545e-10
5.86249e-08
-1.74739e-10
-3.71156e-11
4.17828e-08
9.76351e-11
-2.32524e-10
-6.86635e-11
5.31281e-08
-3.17101e-10
-8.76084e-11
6.12666e-08
-7.63655e-11
6.55467e-08
-1.72141e-10
4.79159e-08
9.2654e-11
-2.24882e-10
5.95354e-08
-3.00826e-10
6.79823e-08
7.24304e-08
-1.22857e-10
-1.02168e-10
2.95172e-08
8.03799e-11
-1.689e-10
-1.40294e-10
4.03033e-08
-2.21921e-10
-1.75426e-10
4.78065e-08
-2.04126e-10
5.16796e-08
-1.24931e-10
-6.5302e-11
3.56589e-08
7.70039e-11
-1.72411e-10
-9.5809e-11
4.6716e-08
-2.27379e-10
-1.22308e-10
5.45349e-08
-1.39633e-10
5.86127e-08
-1.24916e-10
-3.02686e-11
4.17989e-08
7.35511e-11
-1.71155e-10
-4.75935e-11
5.3126e-08
-2.23937e-10
-6.05278e-11
6.12577e-08
-6.38259e-11
6.5532e-08
-1.22084e-10
4.79381e-08
6.94648e-11
-1.67047e-10
5.95327e-08
-2.17575e-10
6.79725e-08
7.2435e-08
-9.13217e-11
-7.13089e-11
2.9525e-08
6.04384e-11
-1.23164e-10
-9.30846e-11
4.03121e-08
-1.53571e-10
-1.14293e-10
4.78151e-08
-1.32762e-10
5.16786e-08
-9.13782e-11
-4.65418e-11
3.56676e-08
5.7809e-11
-1.24775e-10
-6.42528e-11
4.67205e-08
-1.5706e-10
-8.11457e-11
5.45342e-08
-9.49712e-11
5.85986e-08
-9.01887e-11
-2.22901e-11
4.18098e-08
5.50541e-11
-1.23577e-10
-3.26244e-11
5.31278e-08
-1.55615e-10
-4.1638e-11
6.12504e-08
-4.76009e-11
6.55122e-08
-8.76898e-11
4.79515e-08
5.19728e-11
-1.21022e-10
5.95335e-08
-1.52665e-10
6.79627e-08
7.24177e-08
-6.68595e-11
-4.92631e-11
2.95312e-08
4.48427e-11
-8.83504e-11
-6.20818e-11
4.03186e-08
-1.0606e-10
-7.49025e-11
4.78195e-08
-8.63855e-11
5.16756e-08
-6.62828e-11
-3.23426e-11
3.56744e-08
4.2899e-11
-8.89431e-11
-4.31098e-11
4.67246e-08
-1.07966e-10
-5.39282e-11
5.45326e-08
-6.36468e-11
5.85863e-08
-6.49281e-11
-1.56705e-11
4.18175e-08
4.08297e-11
-8.78555e-11
-2.21239e-11
5.31301e-08
-1.0706e-10
-2.82811e-11
6.12444e-08
-3.34486e-11
6.5494e-08
-6.28946e-11
4.79604e-08
3.85663e-11
-8.6072e-11
5.95349e-08
-1.05365e-10
6.7954e-08
7.23973e-08
-4.83729e-11
-3.39778e-11
2.95358e-08
3.29224e-11
-6.26677e-11
-4.16481e-11
4.03231e-08
-7.30505e-11
-4.93832e-11
4.78216e-08
-5.63787e-11
5.16722e-08
-4.76675e-11
-2.22822e-11
3.56794e-08
3.15084e-11
-6.27346e-11
-2.89855e-11
4.67275e-08
-7.39399e-11
-3.58824e-11
5.45308e-08
-4.23295e-11
5.85765e-08
-4.64593e-11
-1.08125e-11
4.18229e-08
2.99868e-11
-6.17814e-11
-1.49336e-11
5.31319e-08
-7.31976e-11
-1.90541e-11
6.12395e-08
-2.28339e-11
6.54793e-08
-4.48695e-11
4.79664e-08
2.83367e-11
-6.04615e-11
5.95359e-08
-7.20576e-11
6.79468e-08
7.23796e-08
-3.46125e-11
-2.34586e-11
2.9539e-08
2.39014e-11
-4.40216e-11
-2.80766e-11
4.03258e-08
-5.00961e-11
-3.27193e-11
4.78223e-08
-3.69315e-11
5.1669e-08
-3.39583e-11
-1.53372e-11
3.56828e-08
2.28833e-11
-4.38436e-11
-1.95482e-11
4.67294e-08
-5.04169e-11
-2.39122e-11
5.4529e-08
-2.80654e-11
5.85689e-08
-3.29691e-11
-7.42639e-12
4.18267e-08
2.17765e-11
-4.30391e-11
-1.0086e-11
5.3133e-08
-4.97776e-11
-1.27965e-11
6.12355e-08
-1.53764e-11
6.54681e-08
-3.17583e-11
4.79705e-08
2.05787e-11
-4.20442e-11
5.95363e-08
-4.89512e-11
6.79412e-08
7.23659e-08
-2.44187e-11
-1.61496e-11
2.9541e-08
1.70773e-11
-3.05455e-11
-1.89258e-11
4.03274e-08
-3.4081e-11
-2.16868e-11
4.78223e-08
-2.41971e-11
5.16661e-08
-2.38754e-11
-1.05316e-11
3.5685e-08
1.63615e-11
-3.02806e-11
-1.31711e-11
4.67304e-08
-3.4116e-11
-1.59038e-11
5.45273e-08
-1.85241e-11
5.85632e-08
-2.31029e-11
-5.08764e-12
4.18291e-08
1.55682e-11
-2.96293e-11
-6.80558e-12
5.31335e-08
-3.35803e-11
-8.55609e-12
6.12323e-08
-1.02506e-11
6.546e-08
-2.2202e-11
4.79732e-08
1.47077e-11
-2.88824e-11
5.95364e-08
-3.29684e-11
6.79368e-08
7.23558e-08
-1.6816e-11
-1.0933e-11
2.95423e-08
1.18776e-11
-2.07489e-11
-1.25886e-11
4.03283e-08
-2.28021e-11
-1.42069e-11
4.7822e-08
-1.56737e-11
5.16639e-08
-1.63986e-11
-7.10629e-12
3.56865e-08
1.13934e-11
-2.04836e-11
-8.74313e-12
4.6731e-08
-2.271e-11
-1.04268e-11
5.4526e-08
-1.2039e-11
5.85592e-08
-1.58236e-11
-3.42009e-12
4.18307e-08
1.0841e-11
-1.99828e-11
-4.51348e-12
5.31337e-08
-2.22822e-11
-5.62457e-12
6.123e-08
-6.70457e-12
6.54543e-08
-1.5172e-11
4.7975e-08
1.02376e-11
-1.94367e-11
5.95364e-08
-2.18356e-11
6.79337e-08
7.23488e-08
-1.10806e-11
-7.09182e-12
2.95432e-08
7.89064e-12
-1.35315e-11
-8.04953e-12
4.03289e-08
-1.47274e-11
-8.97082e-12
4.78218e-08
-9.79068e-12
5.16625e-08
-1.07822e-11
-4.58272e-12
3.56875e-08
7.57623e-12
-1.3312e-11
-5.56482e-12
4.67314e-08
-1.45965e-11
-6.56858e-12
5.45251e-08
-7.51917e-12
5.85567e-08
-1.03805e-11
-2.18881e-12
4.18318e-08
7.20668e-12
-1.29545e-11
-2.86218e-12
5.31339e-08
-1.42786e-11
-3.54335e-12
6.12285e-08
-4.19271e-12
6.54507e-08
-9.93353e-12
4.79762e-08
6.79974e-12
-1.25786e-11
5.95363e-08
-1.39657e-11
6.79317e-08
7.23443e-08
-6.77562e-12
-4.21175e-12
2.95437e-08
4.84157e-12
-8.22845e-12
-4.72813e-12
4.03293e-08
-8.91259e-12
-5.22202e-12
4.78216e-08
-5.64967e-12
5.16616e-08
-6.58563e-12
-2.69632e-12
3.56881e-08
4.64926e-12
-8.07913e-12
-3.24744e-12
4.67316e-08
-8.80142e-12
-3.81282e-12
5.45246e-08
-4.33747e-12
5.85552e-08
-6.33478e-12
-1.27506e-12
4.18325e-08
4.42194e-12
-7.85572e-12
-1.66076e-12
5.3134e-08
-8.59649e-12
-2.05121e-12
6.12276e-08
-2.42614e-12
6.54486e-08
-6.06008e-12
4.79769e-08
4.17325e-12
-7.62606e-12
5.95363e-08
-8.40945e-12
6.79305e-08
7.23416e-08
-3.85702e-12
-2.19754e-12
2.72902e-12
-4.73957e-12
-2.45386e-12
-5.1627e-12
-2.70711e-12
-2.93244e-12
-3.75751e-12
-1.37593e-12
2.62678e-12
-4.66202e-12
-1.66289e-12
-5.10654e-12
-1.96994e-12
-2.26045e-12
-3.62714e-12
-6.34995e-13
2.5104e-12
-4.55142e-12
-8.33403e-13
-5.00996e-12
-1.04692e-12
-1.28204e-12
-3.4893e-12
2.38527e-12
-4.44078e-12
-4.93758e-12
9.53577e-09
1.96599e-09
5.93125e-08
4.60649e-09
-1.67944e-09
7.97412e-08
-1.44308e-08
2.13694e-09
8.89939e-08
1.20355e-09
3.03502e-08
1.01048e-09
8.23171e-09
5.95063e-08
6.64762e-09
6.50397e-09
4.76395e-08
-1.35867e-08
-4.26949e-09
8.11192e-08
3.85805e-09
3.18361e-08
-1.01405e-08
2.55267e-09
7.53766e-08
-1.25e-08
-2.40919e-09
6.31789e-08
-7.5185e-09
-3.79599e-10
3.63415e-08
-1.30611e-09
4.30667e-08
-1.78755e-08
7.08525e-08
-2.49077e-09
2.66812e-08
-1.15247e-08
5.1031e-08
3.07648e-08
-1.1531e-08
-2.58334e-09
8.07898e-08
-8.47886e-10
6.82381e-10
6.75496e-08
-1.2302e-09
-3.19949e-10
8.53657e-08
-4.78036e-11
3.21746e-08
-1.33812e-09
-5.22533e-09
6.33807e-08
-9.61076e-09
-5.36991e-09
6.19646e-08
-6.36132e-09
-5.93228e-09
8.34822e-08
-4.28469e-10
2.69868e-08
-8.63269e-09
-4.70704e-09
8.38799e-08
-5.30224e-09
-1.31959e-09
5.57984e-08
-4.16244e-09
-1.56488e-09
3.08344e-08
1.85754e-09
4.083e-08
2.86715e-10
6.78003e-08
-4.6277e-09
3.09435e-08
2.56296e-09
4.33262e-08
3.52961e-08
2.85086e-09
-4.03916e-09
8.94751e-08
-1.00305e-08
-6.80923e-09
9.26646e-08
7.31571e-09
-4.29169e-09
6.5778e-08
-4.67406e-10
3.5201e-08
-1.22005e-08
-1.36634e-08
8.27907e-08
-1.34246e-08
-7.21394e-09
6.35935e-08
8.26845e-09
1.45207e-09
5.60455e-08
-5.44097e-10
2.8955e-08
1.76898e-08
-2.79733e-09
5.86189e-08
7.75099e-09
-1.52392e-09
6.00474e-08
1.97134e-09
-2.40344e-09
4.04696e-08
-8.5884e-10
3.90994e-08
1.45251e-08
5.29882e-08
1.10838e-09
4.16251e-08
8.85738e-09
3.11428e-08
2.95924e-08
1.00829e-08
-7.94189e-09
7.79818e-08
4.46911e-09
-7.27356e-09
1.04954e-07
7.54538e-09
-2.35499e-09
6.55438e-08
-9.74991e-10
4.41672e-08
2.32055e-09
-2.38923e-09
7.25714e-08
7.7981e-09
1.47911e-09
4.93634e-08
7.72366e-09
1.52964e-09
5.22354e-08
-6.21355e-10
3.21621e-08
9.63508e-09
5.68812e-09
4.42021e-08
1.10857e-08
4.30236e-09
5.57735e-08
5.55549e-09
3.60488e-09
4.39247e-08
6.43374e-10
3.34644e-08
-3.61699e-09
6.42242e-08
1.03102e-08
3.22051e-08
-1.08968e-09
4.5243e-08
1.6856e-08
7.52277e-10
-5.83886e-10
6.9004e-08
1.36351e-08
3.07322e-09
8.06262e-08
9.3195e-09
1.03669e-09
6.75084e-08
5.92472e-10
5.15435e-08
8.2708e-09
3.53694e-09
6.12627e-08
8.20161e-09
3.76792e-09
4.87379e-08
5.74744e-09
5.09042e-10
5.52172e-08