/*--------------------------------*- C++ -*----------------------------------*\
| =========                 |                                                 |
| \\      /  F ield         | OpenFOAM: The Open Source CFD Toolbox           |
|  \\    /   O peration     | Version:  2506                                  |
|   \\  /    A nd           | Website:  www.openfoam.com                      |
|    \\/     M anipulation  |                                                 |
\*---------------------------------------------------------------------------*/
FoamFile
{
    version     2.0;
    format      ascii;
    arch        "LSB;label=32;scalar=64";
    class       volScalarField;
    location    "0.08";
    object      p;
}
// * * * * * * * * * * * * * * * * * * * * * * * * * * * * * * * * * * * * * //

dimensions      [0 2 -2 0 0 0 0];

internalField   nonuniform List<scalar> 
1152
(
19.0125
18.86
18.8533
19.3217
18.9318
18.8157
19.1465
19.2137
18.9092
18.7224
18.8274
19.0686
18.8335
18.7185
18.8259
18.9361
16.2054
16.2357
16.3463
16.2134
16.2159
16.2393
16.082
16.1292
16.2435
16.2358
16.3923
15.9242
16.1953
16.3942
16.3759
16.0732
12.6291
13.111
13.5633
12.649
12.4336
13.3252
12.7385
12.418
13.0594
13.4085
12.7873
11.9097
13.0749
12.9402
12.7814
11.9185
8.99692
9.0506
9.08528
8.84919
8.81147
8.79756
8.94987
8.92915
8.80321
9.01889
8.75842
8.12995
8.81334
9.23274
8.60884
7.79863
5.21636
5.19412
4.80662
5.02422
5.24124
5.12074
5.31572
5.15544
4.86748
4.85071
5.45707
5.56927
4.46494
5.2514
5.41822
5.31413
1.36349
1.59021
1.71392
1.90115
1.42569
1.68112
1.95513
2.14022
1.46526
1.77585
1.84968
2.19241
1.71225
1.81295
2.30005
2.99878
1.01194
1.01621
1.01295
1.01004
1.01855
1.0155
1.01039
0.965337
1.02027
1.01698
1.00251
1.04771
1.02704
1.00418
1.00499
1.05351
1.00561
1.00529
1.00531
1.00555
1.00604
1.00555
1.00593
1.00816
1.00565
1.00526
1.00576
1.00714
1.00509
1.00449
1.00437
1.00471
1.01042
1.01043
1.00996
1.00996
1.01061
1.01025
1.00944
1.00919
1.01047
1.01022
1.00956
1.01152
1.01008
1.00913
1.00824
1.01009
1.00771
1.0077
1.00756
1.00761
1.00774
1.00761
1.0074
1.00744
1.00771
1.00766
1.00752
1.00813
1.00752
1.00727
1.007
1.00786
1.00754
1.00749
1.00742
1.00743
1.00748
1.00741
1.00733
1.00737
1.00746
1.00742
1.00738
1.00753
1.0073
1.00724
1.00716
1.00741
1.00683
1.00681
1.00678
1.00678
1.00681
1.00678
1.00674
1.00675
1.00679
1.00677
1.00674
1.00679
1.0067
1.00668
1.00665
1.00672
1.00624
1.00622
1.0062
1.00619
1.00622
1.0062
1.00618
1.00617
1.0062
1.00619
1.00616
1.00617
1.00615
1.00613
1.00612
1.00613
1.00566
1.00565
1.00563
1.00562
1.00565
1.00563
1.00562
1.0056
1.00563
1.00562
1.0056
1.00559
1.0056
1.00559
1.00557
1.00556
1.0051
1.00509
1.00507
1.00506
1.00508
1.00507
1.00506
1.00505
1.00507
1.00506
1.00505
1.00504
1.00505
1.00504
1.00503
1.00502
1.00454
1.00453
1.00452
1.00451
1.00453
1.00452
1.00451
1.0045
1.00452
1.00451
1.0045
1.00449
1.00451
1.0045
1.00449
1.00448
1.00399
1.00399
1.00398
1.00397
1.00399
1.00398
1.00397
1.00397
1.00398
1.00397
1.00397
1.00396
1.00397
1.00396
1.00395
1.00395
1.00345
1.00345
1.00344
1.00344
1.00345
1.00344
1.00344
1.00343
1.00344
1.00344
1.00343
1.00342
1.00344
1.00343
1.00342
1.00342
1.00292
1.00291
1.00291
1.0029
1.00291
1.00291
1.00291
1.0029
1.00291
1.00291
1.0029
1.0029
1.0029
1.0029
1.0029
1.00289
1.00238
1.00238
1.00238
1.00237
1.00238
1.00238
1.00237
1.00237
1.00238
1.00237
1.00237
1.00237
1.00237
1.00237
1.00237
1.00236
1.00185
1.00185
1.00185
1.00184
1.00185
1.00185
1.00185
1.00184
1.00185
1.00185
1.00184
1.00184
1.00185
1.00184
1.00184
1.00184
1.00132
1.00132
1.00132
1.00132
1.00132
1.00132
1.00132
1.00132
1.00132
1.00132
1.00132
1.00131
1.00132
1.00132
1.00131
1.00131
1.00079
1.00079
1.00079
1.00079
1.00079
1.00079
1.00079
1.00079
1.00079
1.00079
1.00079
1.00079
1.00079
1.00079
1.00079
1.00079
1.00026
1.00026
1.00026
1.00026
1.00026
1.00026
1.00026
1.00026
1.00026
1.00026
1.00026
1.00026
1.00026
1.00026
1.00026
1.00026
18.684
18.7034
18.8306
18.9242
19.1804
18.8509
18.8815
18.8276
18.9026
18.8473
18.9211
18.9544
18.956
18.8542
18.7118
18.7826
16.0059
16.1147
16.2447
16.1529
15.8285
15.9966
16.1936
16.1227
16.0174
16.2441
16.1356
16.1572
15.95
16.0336
16.2312
16.2145
12.924
13.0308
12.5566
12.2349
12.0884
12.3317
12.5404
12.5586
12.6083
12.4244
12.5029
12.8108
12.8679
13.0868
13.5585
12.9026
8.86582
9.17672
9.26328
9.58982
9.51885
9.21767
9.02115
9.0535
8.85355
8.94347
8.78711
8.7378
8.69645
9.07174
8.47836
8.98304
5.55066
5.56045
5.33375
5.00969
5.74521
5.72216
5.24005
5.26179
5.2043
5.04937
4.89265
5.02391
5.08661
4.5461
4.74137
4.88723
1.9073
1.52465
1.43579
1.34847
1.84742
1.5572
1.26586
1.25427
1.44886
1.2309
0.893608
1.28551
1.70016
1.45074
1.24902
1.4286
1.02712
1.0055
1.01906
1.02074
1.01309
1.02003
1.02221
1.02232
1.018
1.02479
1.05629
1.02295
1.01242
1.01312
1.02433
1.01817
1.0056
1.00558
1.00609
1.00631
1.00484
1.00586
1.00669
1.00664
1.00549
1.00677
1.00627
1.00616
1.00443
1.00512
1.00619
1.00519
1.0112
1.0107
1.01085
1.01088
1.01056
1.0106
1.01056
1.01065
1.0109
1.01059
1.00985
1.01026
1.00983
1.00974
1.01003
1.01001
1.00779
1.00778
1.00777
1.00775
1.00765
1.00776
1.00776
1.00776
1.00787
1.00791
1.00775
1.00773
1.00747
1.00753
1.00757
1.00754
1.00774
1.00768
1.00765
1.00762
1.00761
1.00757
1.00756
1.00754
1.00767
1.00761
1.00755
1.0075
1.00738
1.00735
1.00736
1.00733
1.00689
1.00688
1.00687
1.00685
1.00686
1.00686
1.00685
1.00684
1.0069
1.0069
1.00687
1.00683
1.00675
1.00675
1.00674
1.00672
1.00629
1.00628
1.00627
1.00626
1.00627
1.00626
1.00625
1.00624
1.00628
1.00627
1.00625
1.00623
1.00618
1.00618
1.00617
1.00616
1.00569
1.00569
1.00568
1.00567
1.00568
1.00568
1.00567
1.00566
1.00568
1.00568
1.00566
1.00565
1.00563
1.00562
1.00562
1.00561
1.00512
1.00511
1.00511
1.0051
1.00511
1.00511
1.0051
1.00509
1.00511
1.0051
1.00509
1.00508
1.00508
1.00507
1.00507
1.00506
1.00456
1.00455
1.00455
1.00455
1.00455
1.00455
1.00455
1.00454
1.00455
1.00454
1.00454
1.00453
1.00453
1.00453
1.00452
1.00452
1.004
1.004
1.004
1.004
1.004
1.004
1.004
1.00399
1.004
1.004
1.00399
1.00399
1.00399
1.00399
1.00398
1.00398
1.00346
1.00346
1.00346
1.00346
1.00346
1.00346
1.00346
1.00345
1.00345
1.00345
1.00345
1.00345
1.00345
1.00345
1.00344
1.00344
1.00292
1.00292
1.00292
1.00292
1.00292
1.00292
1.00292
1.00292
1.00292
1.00292
1.00291
1.00291
1.00291
1.00291
1.00291
1.00291
1.00239
1.00239
1.00239
1.00238
1.00239
1.00239
1.00238
1.00238
1.00238
1.00238
1.00238
1.00238
1.00238
1.00238
1.00238
1.00238
1.00185
1.00185
1.00185
1.00185
1.00185
1.00185
1.00185
1.00185
1.00185
1.00185
1.00185
1.00185
1.00185
1.00185
1.00185
1.00185
1.00132
1.00132
1.00132
1.00132
1.00132
1.00132
1.00132
1.00132
1.00132
1.00132
1.00132
1.00132
1.00132
1.00132
1.00132
1.00132
1.00079
1.00079
1.00079
1.00079
1.00079
1.00079
1.00079
1.00079
1.00079
1.00079
1.00079
1.00079
1.00079
1.00079
1.00079
1.00079
1.00026
1.00026
1.00026
1.00026
1.00026
1.00026
1.00026
1.00026
1.00026
1.00026
1.00026
1.00026
1.00026
1.00026
1.00026
1.00026
18.8168
18.969
19.0967
19.2214
19.0175
19.0011
19.0073
18.8982
19.0433
19.0377
18.9353
18.9192
19.0375
19.1061
18.9529
19.0567
16.3241
16.2081
16.4795
15.9474
16.2192
16.2637
16.2731
16.1968
15.8646
16.2183
16.2631
16.5597
16.1982
16.1057
16.2878
16.2446
13.0408
13.2507
12.941
12.8241
12.755
12.835
13.2413
13.1367
12.7358
13.1236
13.1466
12.5516
12.7193
13.0699
13.1025
12.9874
8.83396
9.12523
9.02035
9.18594
9.08845
8.93453
9.08092
9.07387
9.32992
8.87542
9.23864
8.95982
9.1017
9.16098
9.05405
8.92686
5.33569
5.13219
5.36047
5.17427
5.25899
5.20681
5.28357
5.31507
5.26991
5.15362
5.21533
5.01853
4.96659
4.9539
5.12804
5.01383
2.18469
1.99177
1.85371
2.15322
1.88071
2.11399
1.98749
1.81175
1.60735
1.80784
1.45198
1.54069
0.949295
1.59997
1.66007
1.70825
1.0143
1.0174
1.01379
1.02251
1.01812
1.01815
1.00673
1.01029
1.02215
1.01466
1.01182
1.01894
1.06046
1.02004
1.01092
1.01402
1.0047
1.00405
1.00371
1.00332
1.00509
1.00444
1.0042
1.00352
1.00553
1.00466
1.0046
1.00417
1.00627
1.00491
1.00468
1.00447
1.01061
1.01065
1.00982
1.01079
1.01061
1.01049
1.00946
1.01017
1.01072
1.01054
1.00991
1.01047
1.01086
1.01074
1.01007
1.01015
1.0076
1.00765
1.00733
1.0076
1.00767
1.0077
1.00739
1.00756
1.00769
1.00771
1.00751
1.00768
1.00771
1.00772
1.00754
1.0076
1.00765
1.00761
1.00743
1.00751
1.00762
1.00756
1.00739
1.00745
1.00761
1.00756
1.00742
1.00747
1.0076
1.00754
1.00744
1.00744
1.00684
1.00684
1.00678
1.00681
1.00685
1.00685
1.00678
1.00681
1.00684
1.00684
1.00679
1.00681
1.00684
1.00683
1.00679
1.00679
1.00627
1.00626
1.00622
1.00623
1.00626
1.00625
1.00622
1.00622
1.00626
1.00625
1.00622
1.00621
1.00625
1.00624
1.00621
1.0062
1.00568
1.00568
1.00566
1.00565
1.00568
1.00567
1.00565
1.00565
1.00568
1.00567
1.00565
1.00564
1.00567
1.00566
1.00564
1.00563
1.00511
1.00511
1.0051
1.00509
1.00511
1.00511
1.00509
1.00508
1.00511
1.0051
1.00509
1.00508
1.0051
1.00509
1.00508
1.00507
1.00455
1.00455
1.00454
1.00453
1.00455
1.00455
1.00454
1.00453
1.00455
1.00455
1.00454
1.00453
1.00455
1.00454
1.00453
1.00452
1.004
1.004
1.004
1.00399
1.004
1.004
1.00399
1.00399
1.004
1.004
1.00399
1.00398
1.004
1.00399
1.00399
1.00398
1.00346
1.00346
1.00345
1.00345
1.00346
1.00346
1.00345
1.00345
1.00346
1.00346
1.00345
1.00345
1.00346
1.00345
1.00345
1.00344
1.00292
1.00292
1.00292
1.00291
1.00292
1.00292
1.00292
1.00291
1.00292
1.00292
1.00292
1.00291
1.00292
1.00292
1.00291
1.00291
1.00239
1.00239
1.00238
1.00238
1.00239
1.00239
1.00238
1.00238
1.00239
1.00238
1.00238
1.00238
1.00238
1.00238
1.00238
1.00238
1.00185
1.00185
1.00185
1.00185
1.00185
1.00185
1.00185
1.00185
1.00185
1.00185
1.00185
1.00185
1.00185
1.00185
1.00185
1.00185
1.00132
1.00132
1.00132
1.00132
1.00132
1.00132
1.00132
1.00132
1.00132
1.00132
1.00132
1.00132
1.00132
1.00132
1.00132
1.00132
1.00079
1.00079
1.00079
1.00079
1.00079
1.00079
1.00079
1.00079
1.00079
1.00079
1.00079
1.00079
1.00079
1.00079
1.00079
1.00079
1.00026
1.00026
1.00026
1.00026
1.00026
1.00026
1.00026
1.00026
1.00026
1.00026
1.00026
1.00026
1.00026
1.00026
1.00026
1.00026
)
;

boundaryField
{
    inlet
    {
        type            zeroGradient;
    }
    outlet
    {
        type            fixedValue;
        value           uniform 1;
    }
    wall
    {
        type            zeroGradient;
    }
    procBoundary0to1
    {
        type            processor;
        value           nonuniform List<scalar> 
192
(
18.9471
19.0736
18.9897
18.9979
16.6362
16.3982
16.2643
16.088
13.016
12.7915
11.9094
11.3215
9.20404
8.49006
8.01096
6.81241
5.08105
4.794
5.38095
5.47395
1.58024
1.88881
2.15068
3.34514
1.01501
1.02515
1.01772
0.9822
1.00534
1.00735
1.00774
1.01056
1.01006
1.00975
1.0094
1.00487
1.00762
1.00759
1.00776
1.00702
1.0074
1.00735
1.00741
1.00723
1.00675
1.00672
1.00672
1.00665
1.00616
1.00614
1.00613
1.0061
1.0056
1.00558
1.00557
1.00554
1.00504
1.00503
1.00502
1.005
1.0045
1.00449
1.00448
1.00447
1.00396
1.00396
1.00395
1.00394
1.00343
1.00342
1.00342
1.00341
1.0029
1.00289
1.00289
1.00288
1.00237
1.00237
1.00236
1.00236
1.00184
1.00184
1.00184
1.00183
1.00131
1.00131
1.00131
1.00131
1.00079
1.00079
1.00079
1.00079
1.00026
1.00026
1.00026
1.00026
18.6828
18.9057
18.8834
18.9291
16.669
16.5221
16.5379
16.651
13.9971
13.3788
13.1932
13.0738
9.04655
8.61428
8.83429
9.04453
4.93562
4.87137
5.17903
5.00751
1.31304
1.5857
1.45695
1.34114
1.0295
1.02092
1.01419
1.01249
1.00569
1.00459
1.00382
1.00436
1.00913
1.00992
1.01004
1.01002
1.00724
1.00749
1.00755
1.00755
1.00735
1.00737
1.0074
1.0074
1.00673
1.00675
1.00676
1.00675
1.00618
1.00618
1.00618
1.00617
1.00562
1.00562
1.00562
1.00561
1.00507
1.00507
1.00506
1.00505
1.00452
1.00452
1.00451
1.00451
1.00398
1.00398
1.00397
1.00397
1.00344
1.00344
1.00344
1.00343
1.00291
1.00291
1.00291
1.0029
1.00238
1.00238
1.00237
1.00237
1.00185
1.00185
1.00185
1.00184
1.00132
1.00132
1.00132
1.00132
1.00079
1.00079
1.00079
1.00079
1.00026
1.00026
1.00026
1.00026
)
;
    }
    procBoundary0to2
    {
        type            processor;
        value           nonuniform List<scalar> 
192
(
18.8567
18.9774
19.0001
19.1415
15.9837
16.0949
16.1069
15.9396
12.9763
13.2378
12.8874
12.4707
9.49119
8.86566
8.74269
8.63141
5.18706
5.1063
5.15195
5.10169
1.64046
1.88217
1.963
2.61104
1.00039
1.00622
1.00074
0.949337
1.00456
1.00344
1.00088
0.99776
1.00939
1.00929
1.00926
1.01181
1.00735
1.0073
1.00733
1.00818
1.00729
1.00726
1.00725
1.00749
1.00668
1.00666
1.00665
1.00672
1.00612
1.00611
1.00609
1.0061
1.00558
1.00556
1.00555
1.00554
1.00503
1.00502
1.00501
1.005
1.00449
1.00448
1.00447
1.00446
1.00396
1.00395
1.00394
1.00393
1.00343
1.00342
1.00342
1.00341
1.0029
1.00289
1.00289
1.00288
1.00237
1.00237
1.00236
1.00236
1.00184
1.00184
1.00184
1.00183
1.00132
1.00131
1.00131
1.00131
1.00079
1.00079
1.00079
1.00079
1.00026
1.00026
1.00026
1.00026
18.9679
18.9042
19.0814
18.9053
15.8985
16.0323
15.9716
16.1015
12.2663
12.413
12.5726
12.6111
8.88797
9.02773
9.141
9.21404
5.07788
4.65578
5.03993
5.25243
1.49042
1.41231
1.31492
1.36889
1.01912
1.02626
1.00839
1.01633
1.00428
1.00572
1.00463
1.00504
1.01074
1.01093
1.00998
1.00991
1.00782
1.00795
1.00766
1.00755
1.00753
1.00751
1.00742
1.00736
1.00681
1.0068
1.00676
1.00672
1.0062
1.00619
1.00617
1.00615
1.00562
1.00561
1.0056
1.00559
1.00506
1.00506
1.00505
1.00504
1.00452
1.00451
1.00451
1.0045
1.00398
1.00397
1.00397
1.00397
1.00344
1.00344
1.00344
1.00343
1.00291
1.00291
1.0029
1.0029
1.00238
1.00238
1.00237
1.00237
1.00185
1.00185
1.00185
1.00184
1.00132
1.00132
1.00132
1.00132
1.00079
1.00079
1.00079
1.00079
1.00026
1.00026
1.00026
1.00026
)
;
    }
}


// ************************************************************************* //
