/*--------------------------------*- C++ -*----------------------------------*\
| =========                 |                                                 |
| \\      /  F ield         | OpenFOAM: The Open Source CFD Toolbox           |
|  \\    /   O peration     | Version:  2506                                  |
|   \\  /    A nd           | Website:  www.openfoam.com                      |
|    \\/     M anipulation  |                                                 |
\*---------------------------------------------------------------------------*/
FoamFile
{
    version     2.0;
    format      ascii;
    arch        "LSB;label=32;scalar=64";
    class       volVectorField;
    location    "0.08";
    object      stored_U;
}
// * * * * * * * * * * * * * * * * * * * * * * * * * * * * * * * * * * * * * //

dimensions      [0 1 -1 0 0 0 0];

internalField   nonuniform List<vector> 
1152
(
(0.000529625 0.00107378 0.0174002)
(0.00184521 0.00290272 0.0167205)
(-0.00459659 -0.00282069 0.0243458)
(-5.48801e-05 -9.76081e-05 0.0032924)
(0.000159842 0.000637217 0.0168917)
(-0.00123368 0.000832536 0.0180812)
(-0.00123595 0.000627825 0.0106022)
(0.00170491 0.00255808 0.0213257)
(0.0027184 0.000830238 0.0183833)
(0.000994686 0.000332524 0.0124155)
(-0.00460434 0.00607914 0.0295468)
(-0.000594811 0.00277819 0.0200302)
(0.000620299 0.000366825 0.0162)
(0.000918262 -0.00635264 0.0429277)
(-0.00191783 -0.00133427 0.022936)
(0.000335628 0.00149689 0.020231)
(-0.00141138 -0.000232204 0.0338568)
(-0.000854869 -0.00274167 0.05261)
(0.000635395 0.00264562 0.0549039)
(-0.00106617 0.00143989 0.0205092)
(-0.00131347 -0.000685079 0.037405)
(0.00264422 -0.000766302 0.0496467)
(0.0027095 0.000262846 0.0136563)
(-0.00120778 0.00137853 0.0282059)
(-0.00106779 -0.000618098 0.030857)
(-0.00235212 -0.0029903 0.061036)
(0.00398563 -0.00274945 0.042593)
(0.000566199 -0.000274951 0.0193044)
(-0.00128759 0.0024957 0.037429)
(-0.000329555 0.000874 0.0144047)
(0.00304667 0.0020911 0.0354762)
(0.00364544 0.00207982 0.041201)
(-0.00258831 0.00135259 0.0273807)
(-0.00238758 -8.74975e-05 0.0236513)
(0.000903059 0.000929443 0.0241882)
(3.38378e-05 0.00135973 0.00619603)
(-0.00114356 -0.000394841 0.0165301)
(9.07909e-06 -0.000177534 0.0187545)
(0.00782409 0.00562907 0.0505139)
(-0.000184222 0.0065098 0.0457565)
(-0.00301419 -0.00276519 0.0318352)
(0.000849201 0.00226944 0.0370285)
(0.00311048 -0.00015141 0.0195677)
(0.00820307 0.00256641 0.0618174)
(-0.000649456 -0.000308359 0.0248918)
(0.00124867 0.00114673 0.0665583)
(0.00194084 -0.000666526 0.0195843)
(0.00135852 -0.00182408 0.0186952)
(0.00198125 0.00233346 0.0345151)
(-0.000322925 0.0039744 0.0602697)
(0.000296446 0.00111292 0.0195931)
(-3.26349e-05 0.000928656 0.022817)
(0.00239439 0.00199502 0.0589929)
(-0.000804258 -2.73097e-05 0.033275)
(-0.000544588 0.00137368 0.040487)
(0.00258742 0.000958846 0.0493044)
(-0.00135327 -9.40804e-07 0.0259906)
(-0.000617556 -0.00228896 0.0272151)
(0.00255242 0.000411748 0.0331644)
(-0.00030245 0.000943409 0.00723861)
(-0.00151556 -0.0032439 0.0300208)
(-0.00102494 0.000450143 0.0525588)
(0.0050696 -0.00140815 0.0389659)
(0.0111669 -0.00626452 0.0591213)
(-0.0018977 -0.000919126 0.0296109)
(0.00148831 -0.000349461 0.0244758)
(0.000787291 0.000120683 0.019759)
(-0.00148241 -1.78199e-05 0.0418868)
(0.000779098 0.0023587 0.0407925)
(0.000245328 0.00212987 0.043867)
(0.000794841 -0.00386037 0.046424)
(0.00220624 -0.000593394 0.0219182)
(0.00104673 0.0040933 0.0357228)
(-0.00228124 -0.0012096 0.0373084)
(-0.00166625 -0.00105637 0.0287352)
(0.000995655 -0.00269705 0.0617134)
(-0.00352172 -0.00281536 0.0475844)
(-0.00407877 -0.00147676 0.0297171)
(-0.00013728 0.000451594 0.0229881)
(-0.000152285 0.000679028 0.00704691)
(-0.000625151 0.00196259 0.0168671)
(-0.00212872 0.000336407 0.0310499)
(-0.00192466 -0.00205754 0.0280044)
(0.00132178 -0.00194424 0.0229605)
(-0.00247899 -0.000673001 0.0286264)
(-0.00237066 -0.00101345 0.0240028)
(-0.000961386 0.000269478 0.0174635)
(0.00109059 -0.00125826 0.0381033)
(-0.000791292 -0.00103276 0.021578)
(-0.00224727 -0.00133861 0.0372071)
(-0.000273315 2.99386e-05 0.0100242)
(-0.00243143 -0.00278212 0.0346662)
(-0.00612777 -0.00262122 0.0564415)
(-0.00116142 0.000126291 0.0190213)
(-0.00275099 0.000128701 0.0220108)
(-0.00801619 0.00688631 0.0411933)
(0.000313891 -0.000599093 0.0165528)
(1.13499e-05 -0.000289588 0.023509)
(0.000420063 -0.000238953 0.0197852)
(0.000151653 0.000864204 0.0186837)
(0.000475046 -0.00118991 0.0260948)
(0.000729627 -0.000427275 0.0236802)
(0.00194201 0.000279689 0.019316)
(0.000113 -0.000379829 0.00865697)
(0.000450009 -0.000609457 0.0251316)
(0.000791874 8.57097e-05 0.0224237)
(0.000467239 0.00038359 0.013498)
(0.000279955 -0.00398325 0.0431595)
(0.000969216 0.00127133 0.0287794)
(0.000824643 0.00052711 0.0161966)
(4.01698e-05 0.000181393 0.0164041)
(0.00342369 -0.00121007 0.0301371)
(0.00087996 0.000429653 0.029251)
(0.000168789 -0.00081141 0.0323629)
(-9.72528e-05 -0.00104217 0.0268001)
(-0.0002314 -0.00202534 0.0246349)
(0.000907158 -0.00147383 0.0325644)
(0.000513007 -0.0011815 0.0313093)
(-0.000870931 -0.00128031 0.0221934)
(-0.000536905 -0.00169645 0.00779875)
(0.000922503 -0.00051868 0.0331204)
(0.000298182 -0.000595646 0.0298245)
(-0.000768225 -0.000989141 0.0227093)
(-0.000879452 -0.00120049 0.0483992)
(0.000403192 0.000240366 0.0356209)
(6.50564e-06 -6.66333e-05 0.0204992)
(-0.00127492 -4.85264e-05 0.0174448)
(-0.00542692 -0.000910665 0.0375409)
(0.000894742 0.000350558 0.0100898)
(0.000987803 0.000436152 0.0102465)
(0.000717997 0.00078136 0.00909045)
(-9.75153e-05 0.000892585 0.00890077)
(0.00100456 -0.000356858 0.010941)
(0.00170191 1.67204e-05 0.0102006)
(0.00102961 7.33862e-05 0.00860204)
(-3.98718e-05 -0.00179177 0.00881117)
(0.000904371 0.000396806 0.0107775)
(0.00131945 0.000894747 0.00972461)
(-0.00116592 0.000734306 0.00912962)
(0.000911455 -0.000655636 0.0130965)
(0.00115209 0.000757421 0.0105844)
(0.00198144 0.000386085 0.00827278)
(-0.000559223 -0.000871225 0.00852454)
(0.00332201 -0.00189577 0.0123674)
(0.000239475 -0.000379566 0.0185668)
(0.000408485 -8.83895e-05 0.0185557)
(0.000246709 0.000145885 0.0178925)
(3.48185e-07 0.000165447 0.0179299)
(0.000428018 -0.000353137 0.0187376)
(0.000723011 -0.000147963 0.0183385)
(0.000327142 -0.000126734 0.0173924)
(-6.52666e-06 -0.000826325 0.0175116)
(0.000461674 0.000131589 0.0185878)
(0.00055637 0.000304995 0.0181532)
(-0.000486115 0.000224191 0.0176028)
(0.000129456 -0.000442634 0.0194526)
(0.000535167 0.000267102 0.0181263)
(0.000763023 0.000197532 0.0171565)
(-0.000458148 -0.000259684 0.0166426)
(0.000530824 -0.000668608 0.018233)
(0.00027302 -4.55634e-05 0.0157211)
(0.00029419 2.42307e-05 0.0157483)
(0.000163652 7.28848e-05 0.0155407)
(7.22596e-05 5.83449e-05 0.0156195)
(0.000260718 -6.07024e-05 0.0158599)
(0.000349599 -1.77747e-05 0.0157342)
(0.000153413 -2.98332e-05 0.0154243)
(5.42545e-05 -0.00026142 0.0155562)
(0.000263385 0.000108676 0.0158585)
(0.000274881 0.000134572 0.0157309)
(-0.000113098 9.33945e-05 0.0155569)
(3.46454e-05 -0.000152557 0.0162215)
(0.000229947 7.92348e-05 0.0156228)
(0.000301272 5.66027e-05 0.0153438)
(-0.000159641 -8.45833e-05 0.0151597)
(3.54635e-05 -0.000235459 0.0158514)
(0.000105656 -8.26364e-05 0.0162285)
(0.000125038 -2.41992e-05 0.0162143)
(7.82328e-05 1.89213e-06 0.0161286)
(5.57221e-05 1.12709e-06 0.0161607)
(0.00011847 -6.33796e-05 0.0162499)
(0.000148498 -3.00783e-05 0.0162025)
(6.8807e-05 -2.98958e-05 0.016091)
(3.58644e-05 -0.000102892 0.0161475)
(0.000139932 2.79289e-05 0.016246)
(0.00013222 3.59093e-05 0.0162041)
(-1.25451e-05 1.74406e-05 0.0161363)
(1.12924e-05 -7.19097e-05 0.0163491)
(0.000111845 9.21881e-06 0.0161235)
(0.000122432 4.26839e-06 0.0160521)
(-5.33899e-05 -3.86133e-05 0.0159822)
(-2.47095e-05 -9.81249e-05 0.0162274)
(7.42267e-05 -3.61096e-05 0.0161269)
(7.60355e-05 -1.72995e-05 0.0161518)
(5.0997e-05 -1.39397e-05 0.0161345)
(3.79892e-05 -1.53733e-05 0.0161528)
(6.95436e-05 -3.21809e-05 0.0161697)
(7.51184e-05 -2.10771e-05 0.0161718)
(4.00991e-05 -2.64387e-05 0.0161418)
(2.28547e-05 -5.09693e-05 0.0161678)
(8.01139e-05 4.01594e-06 0.0161942)
(6.8365e-05 1.7675e-06 0.01619)
(1.28567e-05 -1.09034e-05 0.0161701)
(7.50453e-06 -4.70921e-05 0.0162395)
(5.67726e-05 -1.04607e-05 0.0161451)
(5.33401e-05 -1.40448e-05 0.0161369)
(-1.46005e-05 -3.00829e-05 0.0161185)
(-1.98021e-05 -5.70477e-05 0.0162061)
(4.27229e-05 -2.52018e-05 0.0161183)
(4.18418e-05 -1.71268e-05 0.0161478)
(3.04582e-05 -1.93402e-05 0.0161512)
(2.27468e-05 -2.03176e-05 0.0161613)
(3.87907e-05 -2.45578e-05 0.0161581)
(3.82289e-05 -2.0317e-05 0.0161762)
(2.33254e-05 -2.43014e-05 0.0161742)
(1.37521e-05 -3.3872e-05 0.0161862)
(4.412e-05 -9.65705e-06 0.0161856)
(3.63493e-05 -1.32104e-05 0.0161969)
(1.34418e-05 -2.11533e-05 0.0161964)
(4.46269e-06 -3.62452e-05 0.0162192)
(2.93081e-05 -1.80318e-05 0.0161701)
(2.44068e-05 -2.14295e-05 0.0161819)
(-2.05251e-06 -2.93411e-05 0.0161832)
(-1.0204e-05 -4.13063e-05 0.0162173)
(2.55784e-05 -1.92595e-05 0.0161152)
(2.38303e-05 -1.61944e-05 0.0161513)
(1.79601e-05 -1.85117e-05 0.0161657)
(1.29e-05 -1.95582e-05 0.0161745)
(2.25055e-05 -1.98464e-05 0.0161586)
(2.09782e-05 -1.86716e-05 0.0161851)
(1.37857e-05 -2.15135e-05 0.0161953)
(7.69535e-06 -2.60148e-05 0.0162032)
(2.47027e-05 -1.47596e-05 0.0161877)
(1.96821e-05 -1.78633e-05 0.0162075)
(9.19352e-06 -2.26117e-05 0.0162154)
(2.33739e-06 -2.91089e-05 0.0162255)
(1.56744e-05 -1.95807e-05 0.0161885)
(1.24598e-05 -2.25817e-05 0.0162085)
(1.72619e-06 -2.7002e-05 0.016218)
(-4.72205e-06 -3.24362e-05 0.0162329)
(1.5193e-05 -1.5451e-05 0.0161164)
(1.38778e-05 -1.44072e-05 0.016156)
(1.05044e-05 -1.60126e-05 0.0161758)
(7.04288e-06 -1.69354e-05 0.016185)
(1.32886e-05 -1.63625e-05 0.0161617)
(1.19941e-05 -1.6353e-05 0.0161922)
(8.02952e-06 -1.83208e-05 0.0162075)
(4.08289e-06 -2.07361e-05 0.0162149)
(1.37088e-05 -1.5144e-05 0.0161905)
(1.0833e-05 -1.74605e-05 0.0162148)
(5.50295e-06 -2.01993e-05 0.016227)
(1.03896e-06 -2.33177e-05 0.0162341)
(8.77596e-06 -1.79238e-05 0.0161993)
(6.8126e-06 -2.04396e-05 0.0162229)
(1.90188e-06 -2.30471e-05 0.0162352)
(-2.40202e-06 -2.57772e-05 0.0162437)
(9.14271e-06 -1.22734e-05 0.0161186)
(8.20271e-06 -1.20509e-05 0.0161602)
(6.08525e-06 -1.31038e-05 0.0161827)
(3.73416e-06 -1.38123e-05 0.0161928)
(7.9668e-06 -1.32762e-05 0.0161647)
(6.99398e-06 -1.3689e-05 0.0161974)
(4.59387e-06 -1.49855e-05 0.0162149)
(2.03971e-06 -1.63783e-05 0.0162228)
(7.61057e-06 -1.34484e-05 0.0161931)
(6.0025e-06 -1.50746e-05 0.01622)
(3.10127e-06 -1.67062e-05 0.0162342)
(3.48367e-07 -1.83672e-05 0.0162409)
(4.96885e-06 -1.5152e-05 0.0162052)
(3.76228e-06 -1.7005e-05 0.0162305)
(1.21507e-06 -1.85902e-05 0.0162439)
(-1.38893e-06 -2.00734e-05 0.0162506)
(5.55207e-06 -9.58732e-06 0.016121)
(4.90122e-06 -9.6562e-06 0.0161638)
(3.50761e-06 -1.0337e-05 0.0161878)
(1.90985e-06 -1.08327e-05 0.0161985)
(4.82235e-06 -1.05368e-05 0.0161673)
(4.12206e-06 -1.09925e-05 0.0162011)
(2.58579e-06 -1.18376e-05 0.01622)
(9.28847e-07 -1.26702e-05 0.0162282)
(4.2766e-06 -1.1064e-05 0.0161953)
(3.36794e-06 -1.21977e-05 0.0162236)
(1.67342e-06 -1.32057e-05 0.016239)
(-1.28929e-08 -1.41542e-05 0.0162458)
(2.77823e-06 -1.21358e-05 0.0162085)
(2.03822e-06 -1.34548e-05 0.0162347)
(6.03738e-07 -1.44495e-05 0.0162487)
(-9.18696e-07 -1.52897e-05 0.0162551)
(3.40905e-06 -7.31571e-06 0.0161231)
(2.95974e-06 -7.46958e-06 0.0161666)
(2.02137e-06 -7.91132e-06 0.0161914)
(9.34981e-07 -8.23475e-06 0.0162026)
(2.94871e-06 -8.12468e-06 0.0161693)
(2.44826e-06 -8.50719e-06 0.0162039)
(1.44044e-06 -9.06132e-06 0.0162234)
(3.56725e-07 -9.56726e-06 0.016232)
(2.44756e-06 -8.66213e-06 0.016197)
(1.90653e-06 -9.44748e-06 0.0162261)
(8.69884e-07 -1.00827e-05 0.016242)
(-1.80674e-07 -1.06435e-05 0.016249)
(1.53619e-06 -9.35232e-06 0.0162104)
(1.08261e-06 -1.02774e-05 0.0162371)
(2.38597e-07 -1.09157e-05 0.0162515)
(-6.72382e-07 -1.14107e-05 0.0162578)
(2.10767e-06 -5.4323e-06 0.0161248)
(1.79268e-06 -5.58542e-06 0.0161688)
(1.15738e-06 -5.87299e-06 0.016194)
(4.30641e-07 -6.07752e-06 0.0162054)
(1.81286e-06 -6.06701e-06 0.0161708)
(1.45341e-06 -6.35863e-06 0.0162058)
(7.86178e-07 -6.7226e-06 0.0162257)
(8.4815e-08 -7.03067e-06 0.0162345)
(1.41599e-06 -6.512e-06 0.0161982)
(1.07575e-06 -7.05151e-06 0.0162278)
(4.28565e-07 -7.45495e-06 0.016244)
(-2.26922e-07 -7.78453e-06 0.0162511)
(8.34917e-07 -6.96228e-06 0.0162115)
(5.54368e-07 -7.60028e-06 0.0162385)
(5.34607e-08 -8.0128e-06 0.0162531)
(-5.03227e-07 -8.31212e-06 0.0162594)
(1.29545e-06 -3.87574e-06 0.0161261)
(1.08095e-06 -4.00328e-06 0.0161703)
(6.57613e-07 -4.18957e-06 0.0161958)
(1.90073e-07 -4.31595e-06 0.0162074)
(1.11185e-06 -4.34588e-06 0.0161719)
(8.57027e-07 -4.55446e-06 0.0162072)
(4.21482e-07 -4.79002e-06 0.0162273)
(-1.68288e-08 -4.97428e-06 0.0162362)
(8.23562e-07 -4.67947e-06 0.0161991)
(6.03881e-07 -5.04174e-06 0.0162289)
(2.01743e-07 -5.29455e-06 0.0162453)
(-1.97893e-07 -5.48346e-06 0.0162524)
(4.46733e-07 -4.96971e-06 0.0162121)
(2.74565e-07 -5.39807e-06 0.0162394)
(-1.83221e-08 -5.66133e-06 0.016254)
(-3.56779e-07 -5.84381e-06 0.0162604)
(7.98145e-07 -2.59107e-06 0.016127)
(6.59366e-07 -2.67999e-06 0.0161714)
(3.94655e-07 -2.79318e-06 0.0161971)
(1.15032e-07 -2.86618e-06 0.0162087)
(6.8744e-07 -2.90915e-06 0.0161727)
(5.19526e-07 -3.04514e-06 0.0162081)
(2.52481e-07 -3.1878e-06 0.0162283)
(-4.37193e-09 -3.29097e-06 0.0162373)
(4.97501e-07 -3.13588e-06 0.0161996)
(3.63159e-07 -3.36445e-06 0.0162296)
(1.26145e-07 -3.51363e-06 0.0162461)
(-1.07083e-07 -3.61532e-06 0.0162533)
(2.60912e-07 -3.31127e-06 0.0162125)
(1.64576e-07 -3.58361e-06 0.0162398)
(3.59016e-09 -3.74526e-06 0.0162546)
(-1.99375e-07 -3.85548e-06 0.0162609)
(5.22728e-07 -1.52143e-06 0.0161276)
(4.52601e-07 -1.56613e-06 0.0161721)
(3.15839e-07 -1.62051e-06 0.0161978)
(1.72423e-07 -1.65144e-06 0.0162095)
(4.62614e-07 -1.69881e-06 0.0161731)
(3.78948e-07 -1.77267e-06 0.0162086)
(2.44807e-07 -1.84429e-06 0.0162289)
(1.14941e-07 -1.8906e-06 0.016238)
(3.58706e-07 -1.82839e-06 0.0161999)
(2.98153e-07 -1.95174e-06 0.01623)
(1.84103e-07 -2.02706e-06 0.0162465)
(6.55462e-08 -2.07196e-06 0.0162538)
(2.30396e-07 -1.91807e-06 0.0162126)
(1.9492e-07 -2.06903e-06 0.0162401)
(1.26041e-07 -2.15616e-06 0.0162549)
(1.77946e-08 -2.21604e-06 0.0162612)
(4.19894e-07 -7.17935e-07 0.0161278)
(4.24319e-07 -7.30414e-07 0.0161723)
(3.96297e-07 -7.39366e-07 0.0161982)
(3.49456e-07 -7.37457e-07 0.01621)
(4.01978e-07 -7.96554e-07 0.0161732)
(4.03845e-07 -8.20071e-07 0.0162089)
(3.77835e-07 -8.39547e-07 0.0162292)
(3.37092e-07 -8.47385e-07 0.0162383)
(3.66655e-07 -8.47437e-07 0.0162)
(3.77115e-07 -8.93893e-07 0.0162301)
(3.60388e-07 -9.20315e-07 0.0162467)
(3.25429e-07 -9.32237e-07 0.016254)
(3.18775e-07 -8.78606e-07 0.0162126)
(3.39782e-07 -9.42188e-07 0.0162401)
(3.40252e-07 -9.77777e-07 0.0162549)
(3.09358e-07 -1.00119e-06 0.0162613)
(2.98834e-05 -0.00301274 0.0210528)
(-0.00410957 -0.000570537 0.0210266)
(-0.00640697 -0.000444287 0.0279261)
(-0.00290571 0.00111191 0.0150236)
(0.00205864 3.2398e-05 0.0114474)
(0.00434009 0.000449766 0.0250345)
(0.000670391 -0.000978132 0.0225045)
(-0.00030701 -0.000681544 0.0297702)
(-0.000146663 0.00090739 0.0169901)
(-6.78572e-05 -4.35933e-05 0.0294984)
(-0.000978312 0.00134988 0.0200159)
(0.000393178 0.00023267 0.0115043)
(0.000333618 1.59341e-05 0.00882053)
(0.00117931 -0.000101431 0.0108945)
(0.000931074 -0.00181144 0.0273658)
(-0.00138309 0.000149839 0.0244175)
(-0.00445098 0.00250928 0.0523924)
(-0.00611723 0.000638651 0.0564369)
(-0.000677214 -0.00130281 0.0237469)
(-0.00119995 0.000469262 0.0369678)
(-0.0016249 -0.000262204 0.0273184)
(-0.00503274 -0.00365903 0.0482728)
(-0.00271622 -0.000771657 0.0264522)
(-0.00157652 -0.000410936 0.046375)
(-0.00231472 -0.00100255 0.041297)
(-0.00126698 -0.00112288 0.0258802)
(-4.60009e-05 -0.00084814 0.0245372)
(-0.00132064 -0.00206405 0.0395858)
(-0.00166903 0.00158427 0.0475674)
(-0.00330695 0.00164577 0.045872)
(-0.00247829 0.00182472 0.0475177)
(6.94842e-05 0.000111358 0.037318)
(-0.00277554 0.00428042 0.0579626)
(0.000918269 0.00225443 0.0311287)
(0.00129599 0.00113752 0.0291933)
(-0.00165558 -8.03673e-05 0.0275643)
(-0.00303225 0.00108878 0.0338345)
(-0.00555263 0.00266387 0.0529339)
(-0.00162889 -0.000244977 0.0259997)
(0.0022371 -0.00242174 0.0598512)
(0.00171651 -0.00222887 0.0369308)
(0.00108489 -0.00236521 0.0336192)
(-0.00199894 -0.00615096 0.0424624)
(-0.00155575 -0.00113562 0.020051)
(-0.00103205 0.000869743 0.0186754)
(-0.00333772 -0.000526514 0.0314416)
(-0.000450371 -0.000172405 0.00915977)
(0.00267532 0.00157599 0.0410787)
(-0.00107725 -0.001799 0.0353322)
(-0.00160099 -0.000475741 0.0319687)
(-0.00355898 0.000787959 0.0486623)
(0.0001133 -0.00024099 0.00713435)
(-0.000783086 0.00131308 0.00647682)
(0.00565178 0.00543434 0.0640738)
(0.000274708 0.00148924 0.0194775)
(-0.000508137 0.00545628 0.0477225)
(-0.00161951 0.0021023 0.0343631)
(-0.000242156 0.000170471 0.0489167)
(0.00137528 0.00358079 0.0463371)
(-0.000652146 0.000323698 0.0341704)
(-0.00263017 -0.000746551 0.0415688)
(0.000710094 -0.000258239 0.0263056)
(2.87791e-05 -0.00093561 0.0302907)
(-0.00216964 -0.00260007 0.0412873)
(-0.000203704 -0.000245638 0.0699417)
(0.00114438 0.000690216 0.0244567)
(0.00527213 0.00298114 0.0397056)
(0.000318881 0.000448523 0.0151783)
(-0.00118554 0.000258453 0.0308259)
(0.00186382 0.00336534 0.0439713)
(0.00167529 0.00275704 0.0397086)
(0.000221385 -0.00100553 0.0511307)
(0.000996767 0.00182902 0.0508403)
(0.00151737 0.00320064 0.0281199)
(0.000232941 0.00247115 0.0393724)
(-9.16481e-05 0.00188033 0.0418816)
(0.00384966 0.000128802 0.0361898)
(0.000864645 0.000208755 0.00996306)
(-0.00264571 -0.00133348 0.0526433)
(0.000693044 -0.000261356 0.0290476)
(0.00108185 0.00226693 0.0183268)
(0.000814797 0.00126765 0.0102463)
(-4.90966e-05 0.00286058 0.0309429)
(-0.00186319 0.00446183 0.0358821)
(0.00135203 0.0036155 0.0287516)
(0.00351144 0.00290297 0.027542)
(0.00361873 -0.0032984 0.0234472)
(5.64964e-05 0.000193572 0.0206288)
(0.000663748 0.00120374 0.0190271)
(-0.00790677 0.00023938 0.0339517)
(0.00074568 0.000554196 0.00683438)
(0.00488652 0.000672411 0.0179939)
(0.00166022 0.000441789 0.0212109)
(0.00321841 -0.000305721 0.0241002)
(-9.53095e-05 0.00546604 0.0234737)
(-0.00265936 0.000660351 0.0257845)
(0.000222055 0.000810621 0.030834)
(0.000628926 0.000594119 0.0122853)
(-0.000329505 -0.000221124 0.025754)
(0.000386221 0.000341357 0.0280609)
(-0.00043509 0.000632511 0.0156326)
(-0.00101804 0.000428703 0.0245134)
(-0.000606038 0.00442814 0.0252671)
(-0.000513119 0.000522669 0.02568)
(2.98781e-05 0.00108831 0.0256405)
(0.00511669 0.000805206 0.0312435)
(0.000103321 -5.14113e-05 0.0100703)
(-0.00335205 -0.000251903 0.0225206)
(0.00012253 8.95393e-05 0.016296)
(0.000474719 -0.00149458 0.0157048)
(-0.00013302 -0.00431596 0.0320643)
(0.000235926 -0.000139252 0.0230442)
(0.000659014 -0.000858716 0.0324767)
(0.000422168 -0.00119696 0.0234641)
(0.000214874 -0.00151331 0.0296215)
(0.00035253 -0.000533106 0.0328377)
(0.000107476 -0.00172459 0.0269498)
(-0.000421514 -0.00248233 0.0307742)
(0.000213955 -0.00250884 0.0310083)
(0.000598398 -0.00116211 0.0331175)
(-0.000352965 -0.000566415 0.0334565)
(-0.000905989 -0.000841146 0.033144)
(0.00117033 -0.000686113 0.0213624)
(0.00204003 8.86652e-05 0.0308421)
(-0.000478341 -0.000354476 0.0239856)
(-0.00119411 -0.00131927 0.0240725)
(-3.25445e-05 0.000745875 0.0312112)
(0.000714234 -0.000115246 0.0308246)
(0.000651301 -8.17339e-05 0.00972132)
(0.000592955 -0.00029628 0.00914519)
(3.33722e-05 -0.000618953 0.00997698)
(0.000364569 -0.000158893 0.0106758)
(9.16676e-05 -0.000761386 0.00836909)
(-1.64575e-05 -0.00113173 0.00970633)
(3.50007e-05 -0.000909039 0.0107597)
(0.00041486 -0.00023994 0.0112229)
(0.000126202 0.000563216 0.0106508)
(0.000232015 0.000640598 0.011394)
(0.000691432 0.000484673 0.0119957)
(0.000912031 0.000680761 0.0110088)
(-0.000225719 -0.000107029 0.00815744)
(-0.000790895 -0.000434734 0.00903624)
(-0.000491539 0.000664146 0.010669)
(0.000198547 0.000481525 0.0103233)
(0.000253111 -0.000368583 0.0185478)
(0.000178887 -0.000534775 0.018344)
(0.000109227 -0.000616628 0.018576)
(0.000174599 -0.000516637 0.0187803)
(0.000103594 -0.000764742 0.0178234)
(-5.18684e-05 -0.000945294 0.0182799)
(8.45643e-05 -0.000784845 0.0186881)
(0.000277452 -0.00048422 0.0188721)
(3.24439e-06 1.19328e-05 0.0189043)
(0.000104557 3.90872e-05 0.018969)
(0.000431525 5.67496e-05 0.0190658)
(0.000513392 0.000146745 0.0187642)
(-0.000207467 -0.000262477 0.0171288)
(-0.000424481 -0.00030969 0.0175033)
(-0.000116577 8.72825e-05 0.0181376)
(0.000215535 0.00013656 0.0181676)
(0.000107767 -2.53599e-05 0.0153058)
(0.000157986 -4.63983e-05 0.0154129)
(0.000146176 -9.69682e-05 0.0155663)
(0.000204581 -8.1639e-05 0.0156975)
(6.25039e-05 -0.000184986 0.015178)
(3.66738e-05 -0.0002253 0.0155049)
(4.85434e-05 -0.00018626 0.0157516)
(0.000158233 -8.94507e-05 0.0158705)
(5.64831e-05 0.000110205 0.0158254)
(0.000155954 0.000125481 0.016006)
(0.000225967 0.000123278 0.0160404)
(0.000267151 0.000136243 0.0159447)
(-3.48189e-05 -0.000108871 0.0150239)
(-8.114e-05 -0.000105015 0.0153588)
(-2.26158e-05 1.08539e-05 0.0156337)
(0.000103852 4.6509e-05 0.0156675)
(5.55451e-05 -6.82771e-05 0.0160539)
(7.1529e-05 -8.33517e-05 0.0161183)
(8.93668e-05 -9.14799e-05 0.0161898)
(0.000104079 -8.92462e-05 0.0162361)
(4.35967e-05 -0.000151952 0.0159036)
(3.00392e-05 -0.000164208 0.0160515)
(5.74939e-05 -0.00013817 0.0161836)
(9.94234e-05 -9.43115e-05 0.0162523)
(2.48313e-05 2.54789e-05 0.0161728)
(8.07026e-05 3.01342e-05 0.0162572)
(0.000135948 3.13703e-05 0.0162956)
(0.000154667 3.33982e-05 0.0162805)
(-2.80448e-05 -6.12189e-05 0.0157437)
(-3.74958e-05 -5.63534e-05 0.0159114)
(1.406e-05 -2.09482e-05 0.0160613)
(7.17943e-05 -3.92997e-06 0.0161226)
(3.53296e-05 -2.52889e-05 0.0158313)
(5.43379e-05 -2.67456e-05 0.0159399)
(6.42107e-05 -3.26007e-05 0.0160257)
(7.30391e-05 -3.51808e-05 0.0160877)
(2.59867e-05 -6.38637e-05 0.015813)
(2.93639e-05 -6.74178e-05 0.0159598)
(4.1766e-05 -5.80712e-05 0.0160707)
(6.18029e-05 -4.20057e-05 0.0161397)
(1.76935e-05 1.93514e-05 0.0159858)
(5.40725e-05 1.92088e-05 0.016103)
(7.96618e-05 1.58936e-05 0.0161666)
(8.8329e-05 1.17328e-05 0.0161897)
(-8.87825e-06 -2.63831e-05 0.015786)
(-5.33192e-06 -2.63815e-05 0.0159481)
(1.7834e-05 -1.78769e-05 0.0160635)
(4.25046e-05 -1.30229e-05 0.0161243)
(2.23261e-05 -1.90944e-05 0.015823)
(3.23285e-05 -1.89362e-05 0.0159279)
(3.86494e-05 -2.1056e-05 0.0160123)
(4.33682e-05 -2.29844e-05 0.0160738)
(1.73421e-05 -3.7785e-05 0.0158209)
(2.07375e-05 -3.81782e-05 0.0159504)
(2.75058e-05 -3.39725e-05 0.0160505)
(3.69474e-05 -2.7777e-05 0.0161185)
(1.18694e-05 4.8223e-06 0.0159179)
(3.22509e-05 4.29666e-06 0.0160372)
(4.48125e-05 9.82485e-07 0.0161156)
(4.87906e-05 -3.43266e-06 0.0161608)
(-2.49671e-06 -1.59023e-05 0.0158257)
(1.58855e-06 -1.73557e-05 0.0159697)
(1.2586e-05 -1.65145e-05 0.0160735)
(2.37704e-05 -1.65355e-05 0.0161374)
(1.51879e-05 -1.37076e-05 0.015799)
(2.08204e-05 -1.35663e-05 0.0159085)
(2.41723e-05 -1.51299e-05 0.0159974)
(2.67171e-05 -1.6994e-05 0.0160635)
(1.16423e-05 -2.31416e-05 0.015816)
(1.43384e-05 -2.34316e-05 0.015943)
(1.773e-05 -2.2083e-05 0.0160418)
(2.21411e-05 -2.02223e-05 0.0161121)
(8.07547e-06 -2.60466e-06 0.0158809)
(1.92788e-05 -3.65108e-06 0.0160054)
(2.54267e-05 -6.63385e-06 0.0160938)
(2.7254e-05 -1.0183e-05 0.0161516)
(-3.34814e-07 -1.23416e-05 0.0158436)
(2.4639e-06 -1.41606e-05 0.0159819)
(8.01973e-06 -1.56511e-05 0.0160828)
(1.33498e-05 -1.71955e-05 0.0161493)
(1.0585e-05 -1.069e-05 0.0157896)
(1.34562e-05 -1.08677e-05 0.015901)
(1.50052e-05 -1.20924e-05 0.0159923)
(1.6057e-05 -1.36333e-05 0.0160609)
(8.1821e-06 -1.56609e-05 0.0158147)
(9.83081e-06 -1.60252e-05 0.0159408)
(1.13938e-05 -1.59496e-05 0.0160396)
(1.32665e-05 -1.57428e-05 0.0161115)
(5.67918e-06 -6.22128e-06 0.0158618)
(1.16474e-05 -7.34484e-06 0.0159897)
(1.4544e-05 -9.74483e-06 0.0160838)
(1.50694e-05 -1.22161e-05 0.0161483)
(4.74827e-07 -1.07616e-05 0.0158519)
(2.17807e-06 -1.24481e-05 0.0159883)
(5.12719e-06 -1.43094e-05 0.0160888)
(7.85464e-06 -1.59339e-05 0.0161567)
(7.54474e-06 -8.23995e-06 0.0157851)
(8.88524e-06 -8.59172e-06 0.0158977)
(9.34904e-06 -9.65805e-06 0.0159905)
(9.67319e-06 -1.09215e-05 0.0160608)
(5.8069e-06 -1.10076e-05 0.0158143)
(6.7142e-06 -1.15075e-05 0.0159403)
(7.33081e-06 -1.199e-05 0.0160394)
(8.02321e-06 -1.24217e-05 0.0161123)
(3.99366e-06 -7.17454e-06 0.0158519)
(7.04374e-06 -8.18535e-06 0.015982)
(8.30761e-06 -9.93618e-06 0.0160792)
(8.31601e-06 -1.15704e-05 0.0161473)
(7.48393e-07 -9.34849e-06 0.0158559)
(1.80605e-06 -1.07047e-05 0.0159917)
(3.36589e-06 -1.23053e-05 0.0160922)
(4.66732e-06 -1.36159e-05 0.0161609)
(5.37449e-06 -6.28334e-06 0.0157837)
(5.89811e-06 -6.70985e-06 0.015897)
(5.94528e-06 -7.58256e-06 0.0159907)
(5.94851e-06 -8.584e-06 0.0160618)
(4.17306e-06 -7.97109e-06 0.0158146)
(4.59094e-06 -8.46402e-06 0.0159407)
(4.74722e-06 -9.12254e-06 0.0160402)
(4.91774e-06 -9.74757e-06 0.0161137)
(2.86618e-06 -6.66129e-06 0.0158472)
(4.31675e-06 -7.49945e-06 0.0159786)
(4.76631e-06 -8.74984e-06 0.0160776)
(4.64099e-06 -9.82484e-06 0.0161476)
(7.47905e-07 -7.74529e-06 0.015858)
(1.3962e-06 -8.80911e-06 0.0159936)
(2.18616e-06 -1.00309e-05 0.0160941)
(2.74062e-06 -1.10269e-05 0.0161633)
(3.82123e-06 -4.68958e-06 0.0157837)
(3.95639e-06 -5.0972e-06 0.0158974)
(3.83621e-06 -5.79592e-06 0.0159916)
(3.70623e-06 -6.57876e-06 0.0160632)
(3.00749e-06 -5.82087e-06 0.0158152)
(3.15592e-06 -6.26864e-06 0.0159415)
(3.10433e-06 -6.8986e-06 0.0160412)
(3.05327e-06 -7.49551e-06 0.0161151)
(2.041e-06 -5.54779e-06 0.0158453)
(2.69838e-06 -6.19852e-06 0.0159773)
(2.80725e-06 -7.09403e-06 0.0160773)
(2.64791e-06 -7.82378e-06 0.0161484)
(6.26663e-07 -6.13796e-06 0.015859)
(9.9181e-07 -6.93534e-06 0.0159946)
(1.36584e-06 -7.84542e-06 0.0160952)
(1.57881e-06 -8.567e-06 0.0161647)
(2.69715e-06 -3.42356e-06 0.0157843)
(2.6672e-06 -3.76482e-06 0.0158983)
(2.50951e-06 -4.30027e-06 0.0159927)
(2.33764e-06 -4.89352e-06 0.0160646)
(2.14524e-06 -4.21035e-06 0.0158158)
(2.16036e-06 -4.57986e-06 0.0159423)
(2.03524e-06 -5.10162e-06 0.0160422)
(1.9094e-06 -5.5984e-06 0.0161162)
(1.43964e-06 -4.30675e-06 0.0158446)
(1.71755e-06 -4.79199e-06 0.015977)
(1.68879e-06 -5.43273e-06 0.0160776)
(1.53513e-06 -5.93809e-06 0.0161491)
(4.79022e-07 -4.66854e-06 0.0158594)
(6.68441e-07 -5.24729e-06 0.0159951)
(8.27265e-07 -5.90643e-06 0.0160958)
(8.90555e-07 -6.41278e-06 0.0161655)
(1.86359e-06 -2.4157e-06 0.015785)
(1.78404e-06 -2.67394e-06 0.0158991)
(1.64339e-06 -3.0628e-06 0.0159937)
(1.46991e-06 -3.49287e-06 0.0160656)
(1.49253e-06 -2.95963e-06 0.0158164)
(1.4555e-06 -3.23917e-06 0.015943)
(1.32316e-06 -3.63598e-06 0.0160429)
(1.19222e-06 -4.01793e-06 0.0161171)
(9.93125e-07 -3.14646e-06 0.0158445)
(1.0966e-06 -3.49184e-06 0.0159771)
(1.0231e-06 -3.94197e-06 0.0160779)
(8.96191e-07 -4.2902e-06 0.0161497)
(3.42907e-07 -3.38157e-06 0.0158597)
(4.32576e-07 -3.78701e-06 0.0159953)
(4.86143e-07 -4.24902e-06 0.0160961)
(4.91424e-07 -4.5933e-06 0.016166)
(1.2291e-06 -1.60965e-06 0.0157856)
(1.15411e-06 -1.78527e-06 0.0158997)
(1.0498e-06 -2.04641e-06 0.0159944)
(9.14027e-07 -2.33546e-06 0.0160664)
(9.8702e-07 -1.96449e-06 0.0158169)
(9.4517e-07 -2.1561e-06 0.0159435)
(8.40641e-07 -2.42995e-06 0.0160435)
(7.40757e-07 -2.6951e-06 0.0161177)
(6.51529e-07 -2.12783e-06 0.0158445)
(6.86659e-07 -2.35797e-06 0.0159773)
(6.19321e-07 -2.65667e-06 0.0160782)
(5.34383e-07 -2.8841e-06 0.0161501)
(2.28793e-07 -2.27307e-06 0.0158598)
(2.72015e-07 -2.54055e-06 0.0159955)
(2.8796e-07 -2.84572e-06 0.0160963)
(2.83908e-07 -3.06653e-06 0.0161662)
(7.43963e-07 -9.65148e-07 0.0157859)
(7.04214e-07 -1.06288e-06 0.0159002)
(6.47244e-07 -1.2108e-06 0.0159949)
(5.7492e-07 -1.37441e-06 0.0160669)
(5.94149e-07 -1.16029e-06 0.0158172)
(5.82591e-07 -1.26894e-06 0.0159438)
(5.28156e-07 -1.42663e-06 0.0160439)
(4.79048e-07 -1.57867e-06 0.0161181)
(3.8917e-07 -1.25424e-06 0.0158445)
(4.20109e-07 -1.38688e-06 0.0159774)
(3.92066e-07 -1.5597e-06 0.0160784)
(3.61341e-07 -1.68765e-06 0.0161504)
(1.43449e-07 -1.32041e-06 0.0158598)
(1.84092e-07 -1.47732e-06 0.0159955)
(2.06593e-07 -1.65377e-06 0.0160964)
(2.23948e-07 -1.77789e-06 0.0161663)
(4.11531e-07 -5.12072e-07 0.015786)
(4.1888e-07 -5.51608e-07 0.0159003)
(4.25588e-07 -6.04457e-07 0.015995)
(4.17697e-07 -6.6346e-07 0.016067)
(3.18202e-07 -5.85983e-07 0.0158172)
(3.53323e-07 -6.32206e-07 0.0159438)
(3.71134e-07 -6.90978e-07 0.0160439)
(3.84481e-07 -7.51476e-07 0.0161182)
(2.03989e-07 -6.04566e-07 0.0158444)
(2.64071e-07 -6.6535e-07 0.0159773)
(3.03624e-07 -7.37348e-07 0.0160784)
(3.36727e-07 -7.91867e-07 0.0161504)
(8.6417e-08 -5.97973e-07 0.0158596)
(1.55316e-07 -6.77553e-07 0.0159954)
(2.18903e-07 -7.59199e-07 0.0160963)
(2.7643e-07 -8.15901e-07 0.0161663)
(-0.00328505 -0.000842769 0.0223747)
(-0.000443852 -5.77809e-07 0.00967542)
(-0.000891985 0.00133812 0.0211826)
(0.00180948 0.0015369 0.0109532)
(-0.00206493 -0.000513217 0.0162273)
(0.000772554 -0.000872343 0.0255979)
(0.00152596 0.00146471 0.0147166)
(0.000877757 0.00256402 0.0142316)
(-0.000408833 0.00132043 0.0197874)
(0.00159001 -0.00163155 0.0220771)
(0.00189634 0.000425996 0.0202411)
(0.00185007 -0.00235758 0.0230656)
(-0.000960172 0.00214087 0.0247158)
(0.000796139 0.000814484 0.0122461)
(0.00124187 0.000205899 0.0173199)
(0.000172845 3.99879e-05 0.00186621)
(-0.000375433 0.0030013 0.0430686)
(-0.00301336 0.00116817 0.0529035)
(0.000577857 0.00266863 0.0279709)
(-0.00175449 -0.00138087 0.0287318)
(4.74118e-05 0.00279054 0.0116501)
(-0.00106461 0.00123698 0.0284287)
(0.00158496 0.00302641 0.0457506)
(-0.0057332 -0.00794789 0.0586455)
(-0.000249212 -0.000257411 0.0227687)
(-0.00238105 0.00237352 0.0328486)
(-0.00399407 0.00127754 0.0434633)
(-0.00183017 0.00141639 0.0127683)
(-0.00145993 -0.00382893 0.0292089)
(-0.00136632 -0.000900544 0.0299493)
(-0.000494576 -4.57694e-05 0.0410681)
(-0.00230793 0.00383457 0.0536498)
(-0.000182417 0.00207244 0.0286047)