/*--------------------------------*- C++ -*----------------------------------*\
| =========                 |                                                 |
| \\      /  F ield         | OpenFOAM: The Open Source CFD Toolbox           |
|  \\    /   O peration     | Version:  2506                                  |
|   \\  /    A nd           | Website:  www.openfoam.com                      |
|    \\/     M anipulation  |                                                 |
\*---------------------------------------------------------------------------*/
FoamFile
{
    version     2.0;
    format      ascii;
    arch        "LSB;label=32;scalar=64";
    class       volVectorField;
    location    "0.08";
    object      U;
}
// * * * * * * * * * * * * * * * * * * * * * * * * * * * * * * * * * * * * * //

dimensions      [0 1 -1 0 0 0 0];

internalField   nonuniform List<vector> 
1152
(
(0.000441314 0.00101243 0.0173963)
(0.00170707 0.00306591 0.0164195)
(-0.0054463 -0.00245185 0.0245489)
(-3.43263e-05 -0.000115509 0.00296346)
(8.12781e-05 0.000612887 0.0170228)
(-0.00136491 0.000859824 0.0180892)
(-0.00130352 0.000667906 0.0106816)
(0.00100796 0.00275896 0.021683)
(0.00265925 0.000733546 0.0183288)
(0.00105096 0.000214018 0.0126952)
(-0.00545978 0.00610475 0.0307962)
(-0.000789087 0.00256347 0.0200581)
(0.000684126 0.000342977 0.0160461)
(5.52817e-05 -0.00661143 0.0437044)
(-0.00249673 -0.0019927 0.0234259)
(-0.000624386 -0.000476831 0.0183668)
(-0.00173591 -0.000346354 0.0342595)
(-0.00106756 -0.00233263 0.053531)
(0.00100331 0.00337961 0.0543378)
(-0.00105102 0.00146103 0.0204039)
(-0.0011525 -0.000726664 0.0375655)
(0.00283895 -0.000694549 0.050369)
(0.00287346 0.000290568 0.0141343)
(-0.00129437 0.00147884 0.0279903)
(-0.000956474 -0.000686636 0.0311869)
(-0.00226595 -0.00295092 0.0619218)
(0.00422657 -0.00256319 0.0429646)
(0.000620535 7.54798e-05 0.0193692)
(-0.00109485 0.00244229 0.038193)
(-9.63255e-05 0.000835608 0.0144534)
(0.0036788 0.00204564 0.0358811)
(0.00313989 0.000633549 0.0517833)
(-0.00414042 0.00134231 0.0269133)
(-0.0027922 0.000232842 0.0233524)
(0.00170172 0.00129285 0.0236024)
(0.000489688 0.00064027 0.00617209)
(-0.00111552 -0.000748279 0.0165038)
(0.000143574 -0.000110317 0.0187416)
(0.00814586 0.00645543 0.0500134)
(-0.000591685 0.00616551 0.0457515)
(-0.00289158 -0.00292632 0.0316527)
(0.001472 0.00212645 0.0371089)
(0.00340595 -0.000192414 0.0188651)
(0.00837237 0.00529088 0.0633426)
(-0.000528522 -0.000422447 0.0240983)
(0.00273528 0.00158792 0.0671164)
(0.00232715 -0.000430184 0.0203146)
(0.00221027 -0.0010738 0.018292)
(0.00340074 0.00241318 0.0335695)
(-0.000572193 0.00373696 0.0596577)
(0.000349998 0.00101139 0.0187939)
(-0.000496804 0.000670047 0.0258226)
(0.00245706 0.00228302 0.0580261)
(-0.000506689 5.51051e-05 0.0346704)
(-0.000609607 0.00223345 0.0399248)
(0.00299642 0.00466978 0.044866)
(-0.00120274 -4.32771e-05 0.0266464)
(-0.000339227 -0.00192277 0.0260841)
(0.00425133 0.00157908 0.0350976)
(-0.000260015 6.86333e-06 0.00744384)
(-0.00138791 -0.00313406 0.0316674)
(0.000990578 0.000505136 0.0502018)
(0.00716821 -1.02191e-05 0.0372177)
(0.017573 -0.00520809 0.0577809)
(-0.00117073 -0.000517474 0.030462)
(0.00178151 -0.000297055 0.0239182)
(0.000848841 0.000151748 0.0197024)
(-0.00175887 -0.000429007 0.0407981)
(0.000687232 0.00275842 0.0406377)
(-6.36583e-05 0.00212427 0.0419837)
(-0.00010546 -0.00439687 0.0464074)
(0.00201791 -0.0012162 0.0218787)
(0.000934875 0.00442733 0.0361363)
(-0.00292378 -0.000777912 0.0363712)
(-0.00274626 -0.000824969 0.0283491)
(0.00123348 -0.00192059 0.0589965)
(-0.0028804 -0.00251751 0.0447558)
(-0.00428575 -0.00116649 0.0304838)
(-0.000515672 0.000958361 0.021714)
(-0.00024199 -0.000147186 0.00745299)
(-0.000899481 -0.00164487 0.0166756)
(-0.002498 -0.000593285 0.0311845)
(-0.00230015 -0.00244814 0.0285371)
(0.00118185 -0.00229843 0.0230457)
(-0.00297381 -0.000736116 0.0286091)
(-0.00280309 -0.00117616 0.024935)
(-0.00118208 -5.19907e-05 0.0177917)
(0.000973045 -0.00273585 0.0390202)
(-0.00158346 -0.00120806 0.0213153)
(-0.00385053 -0.00152016 0.0371626)
(-0.000262796 -9.78885e-05 0.0104108)
(-0.00223805 -0.00649087 0.034135)
(-0.007065 -0.00288505 0.0570875)
(-0.00198227 -9.22857e-05 0.0180793)
(-0.00550641 -0.000218034 0.0223145)
(-0.0114222 -0.00395329 0.0426168)
(0.000434563 0.00103156 0.0160172)
(0.000163604 -0.000459621 0.0234081)
(0.000399882 -0.000316816 0.0200852)
(0.000104695 0.000450301 0.0190194)
(0.00076565 -0.00081404 0.0261045)
(0.000717261 -0.000477176 0.023486)
(0.00163741 0.000128926 0.0200919)
(0.000240616 -0.000248595 0.00887119)
(0.000607105 -0.000413357 0.0251378)
(0.000551801 -3.24426e-05 0.0226908)
(0.000202505 0.000336254 0.0145728)
(-0.00025658 -0.00390417 0.0471102)
(0.000735765 0.00137781 0.0281797)
(0.000707234 0.000662266 0.0164119)
(-0.000165295 0.00061695 0.0176861)
(0.00107918 0.00251403 0.0366999)
(0.00100322 0.000320266 0.0295372)
(0.000269972 -0.000886143 0.0323755)
(-0.000120334 -0.00119748 0.0267701)
(-0.000227155 -0.00237811 0.024279)
(0.00104292 -0.00137685 0.0329035)
(0.000507769 -0.00113611 0.0312448)
(-0.00110133 -0.00129925 0.0220199)
(-0.000691039 -0.00185509 0.00581552)
(0.00103445 -0.000358912 0.0336004)
(0.000287299 -0.000423958 0.0298565)
(-0.000992596 -0.000712126 0.0223874)
(-0.00117066 -0.000846777 0.0490111)
(0.000534448 0.000400177 0.0359951)
(0.000117527 0.000213156 0.0203574)
(-0.00131197 0.000612844 0.0180229)
(-0.00559141 0.000449455 0.0398229)
(0.00094483 0.000339708 0.0104104)
(0.00104406 0.000453618 0.0104916)
(0.000757963 0.000791268 0.00931595)
(-8.56095e-05 0.000916983 0.00913547)
(0.0010487 -0.000335193 0.0112466)
(0.00177765 4.75456e-05 0.0104544)
(0.00108909 9.67741e-05 0.00887741)
(-4.2884e-05 -0.00180949 0.0091092)
(0.000918834 0.000460998 0.0110677)
(0.00138073 0.000977412 0.00994283)
(-0.00117329 0.000794238 0.00937902)
(0.000874801 -0.000716492 0.0134885)
(0.00123781 0.000869401 0.0107982)
(0.00205414 0.000493436 0.00841392)
(-0.000642203 -0.000754297 0.00867989)
(0.00334604 -0.00180932 0.0125781)
(0.000266041 -0.000366763 0.0187188)
(0.00043505 -7.25185e-05 0.0186854)
(0.000262395 0.000156023 0.0180057)
(2.92599e-06 0.000174497 0.0180324)
(0.000456822 -0.000335708 0.0188966)
(0.000753633 -0.000131054 0.0184667)
(0.000340801 -0.000118763 0.0174959)
(-1.59632e-05 -0.000836593 0.0175924)
(0.000480057 0.000164634 0.0187351)
(0.000574369 0.000342283 0.0182658)
(-0.000497868 0.000252056 0.0177028)
(0.000106071 -0.000468872 0.0195712)
(0.000572223 0.000314556 0.018249)
(0.000788635 0.000241685 0.017235)
(-0.000508147 -0.000221219 0.016718)
(0.000497457 -0.000653902 0.0183645)
(0.000288324 -3.61309e-05 0.0158667)
(0.000308402 3.54341e-05 0.0158854)
(0.000173237 8.17056e-05 0.0156722)
(7.68287e-05 6.36088e-05 0.0157492)
(0.00028068 -4.88096e-05 0.0160039)
(0.000364609 -7.26943e-06 0.0158666)
(0.000158328 -2.47628e-05 0.0155504)
(5.41678e-05 -0.000262459 0.0156808)
(0.000275473 0.000129809 0.0159978)
(0.000282426 0.000154099 0.0158599)
(-0.00011522 0.000106827 0.015686)
(3.11949e-05 -0.000154665 0.016361)
(0.000247129 0.000103759 0.0157519)
(0.000308423 8.06373e-05 0.0154571)
(-0.000176576 -6.36461e-05 0.0152734)
(2.5602e-05 -0.000223405 0.0160013)
(0.000115053 -7.68476e-05 0.0163601)
(0.000133453 -1.78234e-05 0.0163422)
(8.4456e-05 7.1697e-06 0.0162541)
(6.10334e-05 4.6864e-06 0.0162856)
(0.000129411 -5.51491e-05 0.0163789)
(0.000157022 -2.31997e-05 0.0163262)
(7.29849e-05 -2.46106e-05 0.0162133)
(4.07274e-05 -0.000100556 0.0162713)
(0.000148541 4.24513e-05 0.0163733)
(0.00013771 4.87377e-05 0.0163282)
(-1.10155e-05 2.7606e-05 0.0162624)
(1.51765e-05 -6.68371e-05 0.0164776)
(0.000119994 2.55366e-05 0.0162439)
(0.000126456 2.02615e-05 0.0161678)
(-5.7155e-05 -2.50203e-05 0.0161003)
(-2.51054e-05 -8.71224e-05 0.0163579)
(8.01495e-05 -3.21185e-05 0.0162536)
(8.16774e-05 -1.30394e-05 0.0162766)
(5.62109e-05 -9.70662e-06 0.0162584)
(4.37976e-05 -1.18486e-05 0.0162765)
(7.61565e-05 -2.62982e-05 0.0162956)
(8.10478e-05 -1.5448e-05 0.0162953)
(4.48285e-05 -2.04381e-05 0.0162649)
(2.85886e-05 -4.70556e-05 0.0162917)
(8.60681e-05 1.42769e-05 0.0163186)
(7.40217e-05 1.12352e-05 0.0163134)
(1.62216e-05 -2.78683e-06 0.0162938)
(1.18888e-05 -4.02889e-05 0.0163647)
(6.21434e-05 1.17885e-06 0.0162649)
(5.69668e-05 -2.91348e-06 0.0162555)
(-1.26593e-05 -1.98881e-05 0.0162387)
(-1.66879e-05 -4.65869e-05 0.0163307)
(4.67549e-05 -2.18557e-05 0.0162414)
(4.60198e-05 -1.36361e-05 0.0162699)
(3.4896e-05 -1.55935e-05 0.0162728)
(2.79146e-05 -1.68025e-05 0.0162825)
(4.32372e-05 -1.96017e-05 0.0162809)
(4.26062e-05 -1.5428e-05 0.016298)
(2.77271e-05 -1.94179e-05 0.0162955)
(1.90075e-05 -2.96859e-05 0.0163075)
(4.83469e-05 -3.0518e-06 0.0163073)
(4.04265e-05 -6.71953e-06 0.0163179)
(1.71192e-05 -1.48422e-05 0.0163167)
(9.28985e-06 -3.03514e-05 0.0163406)
(3.34302e-05 -1.03289e-05 0.0162888)
(2.84288e-05 -1.37632e-05 0.0163002)
(1.68872e-06 -2.16738e-05 0.0163021)
(-5.8423e-06 -3.34451e-05 0.0163371)
(2.84637e-05 -1.65185e-05 0.0162357)
(2.70475e-05 -1.32909e-05 0.0162712)
(2.16077e-05 -1.54032e-05 0.0162852)
(1.71532e-05 -1.64622e-05 0.0162935)
(2.56874e-05 -1.61009e-05 0.0162788)
(2.43531e-05 -1.48801e-05 0.0163047)
(1.75289e-05 -1.76513e-05 0.0163145)
(1.2072e-05 -2.22842e-05 0.016322)
(2.78212e-05 -1.00592e-05 0.0163068)
(2.3006e-05 -1.30557e-05 0.0163262)
(1.27577e-05 -1.77459e-05 0.0163338)
(6.68073e-06 -2.44384e-05 0.016344)
(1.9004e-05 -1.41175e-05 0.0163064)
(1.59721e-05 -1.69848e-05 0.0163261)
(5.31689e-06 -2.1272e-05 0.0163353)
(-5.6265e-07 -2.66684e-05 0.0163502)
(1.73492e-05 -1.32977e-05 0.0162348)
(1.63463e-05 -1.20752e-05 0.016274)
(1.3404e-05 -1.35065e-05 0.0162935)
(1.04046e-05 -1.4374e-05 0.0163023)
(1.56586e-05 -1.35826e-05 0.0162798)
(1.46248e-05 -1.34733e-05 0.01631)
(1.10707e-05 -1.53086e-05 0.0163249)
(7.55919e-06 -1.76831e-05 0.0163319)
(1.61373e-05 -1.17327e-05 0.0163079)
(1.35305e-05 -1.3889e-05 0.016332)
(8.56702e-06 -1.65409e-05 0.0163439)
(4.55583e-06 -1.9718e-05 0.0163507)
(1.13692e-05 -1.40034e-05 0.016316)
(9.67688e-06 -1.63345e-05 0.0163393)
(4.96225e-06 -1.88284e-05 0.0163512)
(1.10908e-06 -2.1514e-05 0.0163594)
(1.07561e-05 -1.06413e-05 0.0162355)
(1.00806e-05 -1.02491e-05 0.0162768)
(8.32457e-06 -1.11497e-05 0.0162991)
(6.29446e-06 -1.17865e-05 0.0163087)
(9.74299e-06 -1.12322e-05 0.0162814)
(9.02169e-06 -1.1527e-05 0.0163138)
(6.97504e-06 -1.2688e-05 0.0163311)
(4.71014e-06 -1.39963e-05 0.0163385)
(9.49114e-06 -1.09616e-05 0.0163093)
(8.13348e-06 -1.24368e-05 0.016336)
(5.55687e-06 -1.39752e-05 0.01635)
(3.06061e-06 -1.56182e-05 0.0163563)
(6.96281e-06 -1.2314e-05 0.0163208)
(6.02667e-06 -1.40222e-05 0.0163459)
(3.70398e-06 -1.55377e-05 0.016359)
(1.33063e-06 -1.69954e-05 0.0163655)
(6.7495e-06 -8.38594e-06 0.0162368)
(6.30327e-06 -8.30721e-06 0.0162794)
(5.19254e-06 -8.86471e-06 0.0163032)
(3.83423e-06 -9.29867e-06 0.0163136)
(6.13643e-06 -9.04878e-06 0.0162829)
(5.64764e-06 -9.40254e-06 0.0163167)
(4.39194e-06 -1.01306e-05 0.0163353)
(2.94782e-06 -1.08748e-05 0.0163432)
(5.6906e-06 -9.26474e-06 0.0163106)
(4.98917e-06 -1.02745e-05 0.0163388)
(3.56213e-06 -1.11948e-05 0.016354)
(2.0336e-06 -1.20794e-05 0.0163605)
(4.27526e-06 -1.00895e-05 0.0163234)
(3.77043e-06 -1.12991e-05 0.0163495)
(2.56006e-06 -1.22565e-05 0.0163633)
(1.10795e-06 -1.31057e-05 0.0163693)
(4.28713e-06 -6.45319e-06 0.0162381)
(3.991e-06 -6.48675e-06 0.0162816)
(3.26697e-06 -6.834e-06 0.0163062)
(2.36548e-06 -7.11277e-06 0.0163171)
(3.90689e-06 -7.0598e-06 0.0162842)
(3.57648e-06 -7.3634e-06 0.0163188)
(2.78297e-06 -7.82404e-06 0.0163381)
(1.86788e-06 -8.25671e-06 0.0163465)
(3.48621e-06 -7.3787e-06 0.0163117)
(3.11039e-06 -8.07158e-06 0.0163408)
(2.2813e-06 -8.63619e-06 0.0163566)
(1.35917e-06 -9.12955e-06 0.0163633)
(2.63333e-06 -7.89006e-06 0.0163248)
(2.37031e-06 -8.72877e-06 0.0163515)
(1.71845e-06 -9.33629e-06 0.0163657)
(8.48947e-07 -9.84415e-06 0.0163718)
(2.75197e-06 -4.82895e-06 0.0162392)
(2.55252e-06 -4.88671e-06 0.0162832)
(2.07692e-06 -5.10178e-06 0.0163084)
(1.48182e-06 -5.27463e-06 0.0163196)
(2.51132e-06 -5.32108e-06 0.0162852)
(2.2899e-06 -5.55185e-06 0.0163203)
(1.78119e-06 -5.84316e-06 0.0163401)
(1.20472e-06 -6.09886e-06 0.0163487)
(2.17707e-06 -5.61166e-06 0.0163125)
(1.96911e-06 -6.08394e-06 0.0163421)
(1.47252e-06 -6.43762e-06 0.0163583)
(9.24069e-07 -6.72419e-06 0.0163652)
(1.6385e-06 -5.93352e-06 0.0163256)
(1.5052e-06 -6.50319e-06 0.0163527)
(1.14084e-06 -6.8856e-06 0.0163671)
(6.49204e-07 -7.18182e-06 0.0163733)
(1.77109e-06 -3.47109e-06 0.0162401)
(1.64354e-06 -3.52155e-06 0.0162844)
(1.33695e-06 -3.65002e-06 0.0163099)
(9.44487e-07 -3.75051e-06 0.0163214)
(1.62362e-06 -3.84007e-06 0.016286)
(1.48137e-06 -4.00117e-06 0.0163213)
(1.15944e-06 -4.18164e-06 0.0163414)
(7.92533e-07 -4.33052e-06 0.0163502)
(1.38364e-06 -4.0628e-06 0.0163131)
(1.26892e-06 -4.37687e-06 0.016343)
(9.71115e-07 -4.59779e-06 0.0163593)
(6.40471e-07 -4.7689e-06 0.0163664)
(1.04062e-06 -4.26717e-06 0.016326)
(9.77093e-07 -4.64486e-06 0.0163533)
(7.69095e-07 -4.88312e-06 0.0163679)
(5.00181e-07 -5.04892e-06 0.0163741)
(1.13612e-06 -2.33743e-06 0.0162408)
(1.06167e-06 -2.36675e-06 0.0162852)
(8.77554e-07 -2.4356e-06 0.0163109)
(6.26219e-07 -2.48613e-06 0.0163225)
(1.05036e-06 -2.58665e-06 0.0162865)
(9.68629e-07 -2.68797e-06 0.016322)
(7.78106e-07 -2.79191e-06 0.0163422)
(5.4703e-07 -2.87228e-06 0.0163511)
(8.95074e-07 -2.73557e-06 0.0163134)
(8.38649e-07 -2.93209e-06 0.0163434)
(6.70222e-07 -3.06226e-06 0.01636)
(4.67616e-07 -3.15916e-06 0.0163671)
(6.85066e-07 -2.86078e-06 0.0163262)
(6.63452e-07 -3.09904e-06 0.0163536)
(5.52873e-07 -3.2432e-06 0.0163683)
(4.01392e-07 -3.33092e-06 0.0163746)
(7.32568e-07 -1.38096e-06 0.0162411)
(7.0129e-07 -1.38966e-06 0.0162857)
(6.11922e-07 -1.41668e-06 0.0163114)
(4.72283e-07 -1.43222e-06 0.0163231)
(6.87207e-07 -1.52314e-06 0.0162867)
(6.57096e-07 -1.57558e-06 0.0163223)
(5.66381e-07 -1.62448e-06 0.0163426)
(4.3809e-07 -1.65799e-06 0.0163516)
(6.02975e-07 -1.60512e-06 0.0163136)
(5.90744e-07 -1.71114e-06 0.0163437)
(5.15433e-07 -1.77627e-06 0.0163603)
(4.01972e-07 -1.8213e-06 0.0163674)
(4.89631e-07 -1.67004e-06 0.0163262)
(4.99851e-07 -1.80306e-06 0.0163537)
(4.57595e-07 -1.88137e-06 0.0163685)
(3.75372e-07 -1.92424e-06 0.0163748)
(4.96884e-07 -6.78503e-07 0.0162412)
(5.12044e-07 -6.79372e-07 0.0162859)
(4.97141e-07 -6.79551e-07 0.0163117)
(4.48316e-07 -6.72897e-07 0.0163234)
(4.82324e-07 -7.48387e-07 0.0162868)
(5.00553e-07 -7.6569e-07 0.0163225)
(4.86329e-07 -7.78268e-07 0.0163428)
(4.42109e-07 -7.82863e-07 0.0163518)
(4.51531e-07 -7.84186e-07 0.0163136)
(4.77715e-07 -8.26344e-07 0.0163438)
(4.71105e-07 -8.50157e-07 0.0163604)
(4.33628e-07 -8.63654e-07 0.0163676)
(4.06613e-07 -8.07894e-07 0.0163262)
(4.4314e-07 -8.67558e-07 0.0163537)
(4.49734e-07 -9.02527e-07 0.0163685)
(4.24757e-07 -9.19773e-07 0.0163748)
(0.000652969 -0.00252599 0.0197279)
(-0.00334585 -0.000346044 0.0212001)
(-0.00658714 -0.000411318 0.0286244)
(-0.00298503 0.00110083 0.0154081)
(0.00213091 0.000178962 0.0118474)
(0.00459707 0.000650236 0.0261593)
(0.000674082 -0.000954142 0.0228266)
(-0.000517306 -0.000733939 0.0300134)
(-0.000261192 0.000943123 0.0172097)
(-0.000188374 -5.73293e-05 0.0298868)
(-0.00105919 0.00131499 0.0201048)
(0.000441884 0.000219826 0.0115205)
(0.000311761 -5.02304e-05 0.00871072)
(0.00111877 -0.000159165 0.0108522)
(0.000844564 -0.00201116 0.0273971)
(-0.00155499 0.000196872 0.0245211)
(-0.00475426 0.00249528 0.0493628)
(-0.00714575 0.000593355 0.0601263)
(-0.000520787 -0.00114902 0.0234007)
(-0.00131007 0.000285462 0.0373754)
(-0.00150711 -0.000292961 0.0269621)
(-0.00487705 -0.00392865 0.0474085)
(-0.00247069 -0.000806963 0.0275028)
(-0.00149714 -0.000962944 0.0470596)
(-0.002269 -0.00107808 0.0416108)
(-0.0012959 -0.0012089 0.0260816)
(4.35718e-05 -0.000912292 0.0254817)
(-0.00122065 -0.00229391 0.0396557)
(-0.00149521 0.00129286 0.047106)
(-0.00302001 0.00159326 0.0465882)
(-0.00238322 0.00132693 0.0474133)
(0.000247124 -4.54782e-05 0.037347)
(-0.00485815 0.00573132 0.0594843)
(0.000897889 0.00200125 0.0288909)
(0.00275923 0.00171147 0.0278926)
(-0.0020902 0.000127718 0.0288259)
(-0.00308364 0.00041908 0.032348)
(-0.00694386 0.00141759 0.0514373)
(-0.00133782 -0.000603233 0.0264829)
(0.00301567 -0.0051439 0.0583798)
(0.00179202 -0.00334316 0.0360717)
(0.00120008 -0.00284788 0.0336518)
(-0.00176391 -0.00637489 0.0422548)
(-0.00137402 -0.00115501 0.0202056)
(-0.00101967 0.00107541 0.0184318)
(-0.00332259 -0.000508402 0.0315633)
(-0.000417659 -0.000186583 0.00918579)
(0.00307771 0.00154832 0.0406109)
(-0.00158044 -0.00207301 0.0349567)
(-0.00243923 -0.000770615 0.0314481)
(-0.00601642 0.000166088 0.0491134)
(-1.74194e-05 -0.000341255 0.0071034)
(-0.000940234 0.00153628 0.0064895)
(0.00592505 0.0055539 0.0663082)
(0.00028967 0.00153155 0.0187666)
(-0.000868399 0.00662715 0.0462275)
(-0.00169672 0.0024858 0.0342189)
(-8.81275e-05 0.000404499 0.0480668)
(0.00143648 0.00385578 0.0461867)
(-0.000541859 0.000601709 0.0340212)
(-0.00264334 -0.00113023 0.0405282)
(0.000769584 -0.000428913 0.0272792)
(-3.89455e-05 -0.000997755 0.0301318)
(-0.00207789 -0.00262799 0.0422165)
(0.000859054 -0.00200368 0.0693484)
(0.000814308 0.000375766 0.0241218)
(0.00436138 0.00266826 0.0401863)
(-5.66577e-06 0.000619605 0.0153939)
(-0.00053884 0.000910053 0.0299687)
(0.00270843 0.00403423 0.0429942)
(0.00197794 0.00328669 0.0397488)
(-0.000238617 0.000356426 0.0513956)
(0.000810374 0.00338947 0.0508844)
(0.00152091 0.00343196 0.0285779)
(0.000253655 0.00231245 0.0436281)
(-7.56459e-05 0.00185625 0.0426416)
(0.00395086 0.000200194 0.0368022)
(0.00089665 -3.46681e-05 0.0095121)
(-0.00252607 -0.00160214 0.0534502)
(0.000801462 -0.000473433 0.0292903)
(0.0010406 0.00186827 0.0179861)
(0.000780867 0.00147202 0.010949)
(0.000475963 0.00287438 0.0314671)
(0.00307417 -0.000733164 0.0365998)
(0.00149462 0.00340341 0.0287616)
(0.00402586 0.00372753 0.0284615)
(0.00157678 0.00350857 0.0242467)
(-0.000582083 0.000424485 0.0208503)
(0.0014669 0.00116119 0.0194213)
(0.00494886 0.00279356 0.0345636)
(0.000538806 0.000366575 0.00700861)
(-0.00156469 -0.000151498 0.0185357)
(0.00162851 0.00029934 0.0206688)
(0.00350619 -0.000959 0.0240952)
(0.000666479 -0.00172893 0.0240743)
(-0.00289806 2.85931e-05 0.0255969)
(0.000223215 0.000688989 0.03151)
(0.000748455 0.000253828 0.0129767)
(-0.000392078 -0.000414718 0.0253193)
(-0.00110127 0.00136421 0.026851)
(-0.000440049 0.000422415 0.0154368)
(-0.00116442 3.08656e-05 0.0246322)
(0.000692205 0.000231235 0.0242849)
(0.000177287 0.000515169 0.0247836)
(-0.000408205 0.000924374 0.0254367)
(-0.00107978 -0.00023968 0.028434)
(7.03905e-05 -0.000177329 0.00538489)
(0.00109468 0.000355372 0.0203859)
(-4.92529e-06 -9.78954e-05 0.0163528)
(1.57767e-05 -0.00134445 0.0155727)
(-0.000973588 0.000559499 0.0303349)
(0.000161504 0.000291813 0.0226444)
(0.00065037 -0.00084746 0.0330924)
(0.000378547 -0.00127979 0.0236353)
(0.000166665 -0.00162132 0.0299529)
(0.000452868 -0.000642317 0.0332447)
(-1.01408e-05 -0.00171807 0.0270812)
(-0.000615777 -0.00256626 0.0311771)
(0.000107095 -0.00238252 0.0317729)
(0.000700974 -0.00109857 0.0337019)
(-0.000479455 -0.000538651 0.0335656)
(-0.000918431 -0.000766031 0.0338778)
(0.00114302 -0.000579251 0.0264445)
(0.00193259 0.000223896 0.031655)
(-0.000556174 -0.000252415 0.0241521)
(-0.00134921 -0.00111499 0.024605)
(-3.85707e-05 0.00083185 0.0319905)
(0.000836201 9.46252e-05 0.0313595)
(0.000678738 -7.91923e-05 0.00996141)
(0.000613609 -0.000290919 0.00937944)
(3.84029e-05 -0.000607558 0.010278)
(0.000402635 -0.000159951 0.0110087)
(8.61558e-05 -0.000740891 0.00860713)
(-1.14069e-05 -0.00108949 0.0100177)
(6.98178e-06 -0.000766492 0.0111244)
(0.000391428 -0.000176318 0.0115845)
(0.000135041 0.000593307 0.01089)
(0.000351561 0.000690647 0.0117287)
(0.000691124 0.000519031 0.0121192)
(0.000766559 0.00070726 0.0113335)
(-0.000226008 -9.75818e-05 0.00831995)
(-0.000771933 -0.000438159 0.00927092)
(-0.000455445 0.000595456 0.0109692)
(0.000226739 0.000529996 0.0105903)
(0.000261206 -0.000366311 0.0186977)
(0.000190717 -0.000528339 0.0184938)
(0.000122231 -0.00060913 0.0187336)
(0.000191676 -0.000510172 0.018939)
(0.000103761 -0.000754929 0.0179766)
(-4.79322e-05 -0.000926522 0.0184387)
(8.81643e-05 -0.000753095 0.0188398)
(0.000283251 -0.000460437 0.0190288)
(4.75835e-06 2.88738e-05 0.0190414)
(0.00012016 6.04163e-05 0.0190992)
(0.000432977 8.08469e-05 0.0191183)
(0.000501528 0.000171837 0.0188911)
(-0.000205246 -0.000250367 0.0172623)
(-0.000411604 -0.000297963 0.0176439)
(-9.9912e-05 9.79179e-05 0.0182736)
(0.000232097 0.000169566 0.0183043)
(0.000113482 -2.81125e-05 0.0154513)
(0.00016617 -4.62035e-05 0.0155629)
(0.000156638 -9.5393e-05 0.015716)
(0.000215816 -7.90662e-05 0.0158461)
(6.60986e-05 -0.000181877 0.0153222)
(4.38759e-05 -0.000217817 0.0156529)
(5.77268e-05 -0.00017444 0.0158984)
(0.000169646 -7.64724e-05 0.0160169)
(5.64445e-05 0.000124486 0.0159635)
(0.000162282 0.0001422 0.016144)
(0.000233536 0.000141443 0.0161708)
(0.000272332 0.00015625 0.0160828)
(-3.39791e-05 -9.67135e-05 0.0151615)
(-7.59003e-05 -9.10381e-05 0.0154995)
(-1.23439e-05 2.65631e-05 0.0157705)
(0.000117552 6.67128e-05 0.0158034)
(5.86688e-05 -6.9294e-05 0.016185)
(7.63201e-05 -8.3012e-05 0.0162534)
(9.55323e-05 -9.0188e-05 0.0163241)
(0.00011088 -8.72769e-05 0.0163696)
(4.51937e-05 -0.000150057 0.0160376)
(3.42999e-05 -0.000160056 0.0161875)
(6.39072e-05 -0.000132354 0.0163182)
(0.000106208 -8.71898e-05 0.016385)
(2.44502e-05 3.4519e-05 0.0163039)
(8.2784e-05 4.13439e-05 0.0163895)
(0.00014045 4.41425e-05 0.0164251)
(0.000160806 4.77476e-05 0.016409)
(-2.73336e-05 -5.20777e-05 0.0158703)
(-3.37339e-05 -4.48909e-05 0.01604)
(2.04072e-05 -7.3395e-06 0.0161885)
(7.90538e-05 1.17301e-05 0.0162471)
(3.70034e-05 -2.59603e-05 0.0159567)
(5.70485e-05 -2.63261e-05 0.0160686)
(6.82206e-05 -3.15761e-05 0.0161541)
(7.73532e-05 -3.35981e-05 0.0162154)
(2.72401e-05 -6.24065e-05 0.0159401)
(3.21118e-05 -6.44866e-05 0.0160893)
(4.58366e-05 -5.40359e-05 0.0161992)
(6.62224e-05 -3.6747e-05 0.0162673)
(1.74851e-05 2.60239e-05 0.0161118)
(5.57167e-05 2.72767e-05 0.0162309)
(8.31008e-05 2.50205e-05 0.0162939)
(9.25215e-05 2.16354e-05 0.0163158)
(-8.62975e-06 -1.89563e-05 0.0159084)
(-3.34291e-06 -1.72466e-05 0.0160721)
(2.14997e-05 -7.42966e-06 0.0161863)
(4.7191e-05 -1.63794e-06 0.0162455)
(2.31745e-05 -1.91813e-05 0.0159441)
(3.3957e-05 -1.82966e-05 0.0160521)
(4.12289e-05 -1.98646e-05 0.0161363)
(4.61387e-05 -2.13105e-05 0.0161975)
(1.78383e-05 -3.64425e-05 0.0159437)
(2.23402e-05 -3.57186e-05 0.0160753)
(3.02268e-05 -3.04923e-05 0.0161749)
(3.97837e-05 -2.33152e-05 0.0162422)
(1.17952e-05 9.26927e-06 0.0160402)
(3.36092e-05 9.89778e-06 0.0161612)
(4.75644e-05 7.02715e-06 0.0162391)
(5.19227e-05 2.8762e-06 0.0162835)
(-2.23464e-06 -1.02801e-05 0.0159444)
(2.81283e-06 -1.05891e-05 0.0160901)
(1.4821e-05 -9.29138e-06 0.0161935)
(2.70684e-05 -9.01679e-06 0.0162568)
(1.55873e-05 -1.34917e-05 0.0159171)
(2.18214e-05 -1.27908e-05 0.0160295)
(2.5858e-05 -1.3936e-05 0.0161183)
(2.85269e-05 -1.54702e-05 0.0161843)
(1.17636e-05 -2.18507e-05 0.0159353)
(1.5227e-05 -2.13133e-05 0.0160643)
(1.94789e-05 -1.93112e-05 0.0161629)
(2.40385e-05 -1.68463e-05 0.0162327)
(8.03163e-06 1.07669e-07 0.0159999)
(2.01177e-05 -1.42284e-07 0.016126)
(2.71569e-05 -2.70022e-06 0.016214)
(2.93674e-05 -5.86292e-06 0.0162711)
(-4.1763e-08 -8.59384e-06 0.0159605)
(3.62226e-06 -9.66681e-06 0.0161002)
(1.0018e-05 -1.07375e-05 0.0162012)
(1.60689e-05 -1.19703e-05 0.0162675)
(1.07845e-05 -1.03912e-05 0.0159056)
(1.40971e-05 -1.01543e-05 0.0160197)
(1.61697e-05 -1.10852e-05 0.0161109)
(1.74017e-05 -1.23982e-05 0.0161795)
(8.17958e-06 -1.4632e-05 0.0159314)
(1.03719e-05 -1.44366e-05 0.0160595)
(1.25852e-05 -1.39105e-05 0.0161582)
(1.46484e-05 -1.32792e-05 0.0162298)
(5.61729e-06 -4.41775e-06 0.0159782)
(1.21797e-05 -4.97521e-06 0.0161078)
(1.57644e-05 -6.96883e-06 0.0162017)
(1.66865e-05 -9.09816e-06 0.0162659)
(7.01864e-07 -8.18615e-06 0.0159675)
(3.11598e-06 -9.31707e-06 0.0161054)
(6.71702e-06 -1.08297e-05 0.0162059)
(9.92088e-06 -1.22064e-05 0.0162736)
(7.64847e-06 -7.97837e-06 0.0158995)
(9.31893e-06 -8.02686e-06 0.0160147)
(1.02051e-05 -8.87252e-06 0.0161075)
(1.07071e-05 -9.9732e-06 0.0161777)
(5.78723e-06 -1.0258e-05 0.0159292)
(7.09034e-06 -1.03577e-05 0.0160572)
(8.18605e-06 -1.05125e-05 0.0161563)
(9.05539e-06 -1.06337e-05 0.0162291)
(3.95827e-06 -5.88462e-06 0.0159668)
(7.44288e-06 -6.48925e-06 0.0160985)
(9.22661e-06 -7.93194e-06 0.0161957)
(9.56873e-06 -9.3089e-06 0.0162637)
(8.98908e-07 -7.51967e-06 0.0159703)
(2.48007e-06 -8.47466e-06 0.0161076)
(4.53782e-06 -9.81222e-06 0.0162081)
(6.21437e-06 -1.09348e-05 0.0162767)
(5.44097e-06 -6.07875e-06 0.0158969)
(6.2137e-06 -6.28386e-06 0.0160128)
(6.56279e-06 -7.00056e-06 0.0161064)
(6.71901e-06 -7.88714e-06 0.0161776)
(4.1574e-06 -7.43534e-06 0.0159283)
(4.86877e-06 -7.64591e-06 0.0160564)
(5.36946e-06 -8.06207e-06 0.0161559)
(5.6786e-06 -8.45351e-06 0.0162294)
(2.84319e-06 -5.73356e-06 0.015961)
(4.62298e-06 -6.27692e-06 0.016094)
(5.46095e-06 -7.30503e-06 0.016193)
(5.58534e-06 -8.19571e-06 0.0162631)
(8.50354e-07 -6.44003e-06 0.0159715)
(1.87489e-06 -7.21137e-06 0.0161086)
(3.03331e-06 -8.24524e-06 0.0162091)
(3.88147e-06 -9.10061e-06 0.0162783)
(3.86715e-06 -4.54055e-06 0.0158961)
(4.18531e-06 -4.7906e-06 0.0160123)
(4.27254e-06 -5.38063e-06 0.0161065)
(4.2701e-06 -6.08251e-06 0.0161782)
(2.99854e-06 -5.4454e-06 0.0159281)
(3.36108e-06 -5.69317e-06 0.0160563)
(3.55216e-06 -6.14881e-06 0.016156)
(3.60411e-06 -6.57116e-06 0.0162299)
(2.02924e-06 -4.89164e-06 0.0159583)
(2.92798e-06 -5.33247e-06 0.0160919)
(3.31695e-06 -6.0689e-06 0.016192)
(3.34143e-06 -6.665e-06 0.0162631)
(6.99161e-07 -5.21267e-06 0.0159718)
(1.33536e-06 -5.80151e-06 0.0161089)
(1.97709e-06 -6.57693e-06 0.0162096)
(2.40794e-06 -7.19863e-06 0.0162791)
(2.72981e-06 -3.32163e-06 0.0158961)
(2.83155e-06 -3.55413e-06 0.0160125)
(2.81183e-06 -4.01605e-06 0.0161069)
(2.74839e-06 -4.55382e-06 0.0161789)
(2.14397e-06 -3.95893e-06 0.0159282)
(2.31335e-06 -4.18982e-06 0.0160564)
(2.35899e-06 -4.58766e-06 0.0161564)
(2.30874e-06 -4.95188e-06 0.0162305)
(1.4362e-06 -3.85951e-06 0.015957)
(1.8894e-06 -4.19858e-06 0.0160911)
(2.06372e-06 -4.72452e-06 0.0161917)
(2.04459e-06 -5.12978e-06 0.0162634)
(5.31624e-07 -4.02565e-06 0.0159718)
(9.18046e-07 -4.45867e-06 0.0161089)
(1.27542e-06 -5.02195e-06 0.0162097)
(1.49813e-06 -5.45789e-06 0.0162795)
(1.88977e-06 -2.35293e-06 0.0158963)
(1.90487e-06 -2.53875e-06 0.0160128)
(1.85657e-06 -2.87961e-06 0.0161075)
(1.77719e-06 -3.27392e-06 0.0161795)
(1.49931e-06 -2.80366e-06 0.0159283)
(1.57378e-06 -2.98982e-06 0.0160567)
(1.56413e-06 -3.29907e-06 0.0161568)
(1.48803e-06 -3.58021e-06 0.0162311)
(9.97127e-07 -2.85849e-06 0.0159565)
(1.22902e-06 -3.10467e-06 0.0160908)
(1.30541e-06 -3.47124e-06 0.0161917)
(1.27626e-06 -3.74351e-06 0.0162636)
(3.83219e-07 -2.95162e-06 0.0159717)
(6.19301e-07 -3.25746e-06 0.0161088)
(8.2426e-07 -3.6515e-06 0.0162097)
(9.45904e-07 -3.94662e-06 0.0162797)
(1.25304e-06 -1.57693e-06 0.0158966)
(1.24552e-06 -1.70641e-06 0.0160132)
(1.20334e-06 -1.93775e-06 0.0161079)
(1.14043e-06 -2.20604e-06 0.01618)
(9.9984e-07 -1.87762e-06 0.0159285)
(1.03729e-06 -2.00906e-06 0.0160569)
(1.0193e-06 -2.22388e-06 0.016157)
(9.57274e-07 -2.41765e-06 0.0162314)
(6.61224e-07 -1.9565e-06 0.0159563)
(7.88537e-07 -2.12178e-06 0.0160906)
(8.2787e-07 -2.36223e-06 0.0161917)
(8.10426e-07 -2.53546e-06 0.0162638)
(2.61048e-07 -2.00404e-06 0.0159716)
(4.11152e-07 -2.20679e-06 0.0161087)
(5.37248e-07 -2.46606e-06 0.0162097)
(6.14424e-07 -2.65406e-06 0.0162798)
(7.62925e-07 -9.52683e-07 0.0158968)
(7.64959e-07 -1.02426e-06 0.0160134)
(7.45863e-07 -1.15562e-06 0.0161081)
(7.20239e-07 -1.30855e-06 0.0161803)
(6.05188e-07 -1.11891e-06 0.0159286)
(6.41218e-07 -1.19392e-06 0.016057)
(6.41516e-07 -1.31753e-06 0.0161572)
(6.17663e-07 -1.42751e-06 0.0162316)
(3.98075e-07 -1.16583e-06 0.0159562)
(4.84893e-07 -1.26138e-06 0.0160906)
(5.21982e-07 -1.3984e-06 0.0161917)
(5.32777e-07 -1.49428e-06 0.0162639)
(1.64516e-07 -1.1753e-06 0.0159715)
(2.71991e-07 -1.29519e-06 0.0161086)
(3.62597e-07 -1.44538e-06 0.0162097)
(4.27581e-07 -1.55094e-06 0.0162798)
(4.22498e-07 -5.1439e-07 0.0158968)
(4.43114e-07 -5.45408e-07 0.0160134)
(4.60788e-07 -5.94017e-07 0.0161082)
(4.70818e-07 -6.50477e-07 0.0161804)
(3.25274e-07 -5.78979e-07 0.0159285)
(3.74239e-07 -6.14232e-07 0.016057)
(4.0973e-07 -6.6294e-07 0.0161572)
(4.33376e-07 -7.09339e-07 0.0162316)
(2.0989e-07 -5.8325e-07 0.015956)
(2.87881e-07 -6.3244e-07 0.0160905)
(3.47701e-07 -6.92631e-07 0.0161917)
(3.94756e-07 -7.36465e-07 0.0162638)
(9.41125e-08 -5.59424e-07 0.0159713)
(1.85389e-07 -6.26936e-07 0.0161084)
(2.72353e-07 -6.99894e-07 0.0162095)
(3.45251e-07 -7.51093e-07 0.0162797)
(-0.00419962 -0.00144851 0.0241891)
(-0.000745015 9.07343e-05 0.00956811)
(-0.00150179 0.00146277 0.0210546)
(0.00171314 0.00160211 0.0116153)
(-0.002545 -0.00103101 0.0159684)
(-0.000165369 -0.00070445 0.0253029)
(0.00127813 0.00160682 0.0145571)
(0.000504619 0.00259009 0.0142415)
(-0.000764359 0.00093694 0.0197752)
(0.000965385 -0.00141924 0.0211671)
(0.00141374 0.000761001 0.0202976)
(0.000948538 -0.00246651 0.0230949)
(-0.0013777 0.00213977 0.0249608)
(0.000669561 0.00100822 0.0120856)
(0.00061003 0.000675109 0.0170007)
(0.000207102 1.70105e-05 0.00177096)
(-0.000569746 0.00386353 0.0462045)
(-0.00317809 0.00136855 0.0524385)
(0.000648166 0.00270068 0.0285138)
(-0.00191159 -0.00132892 0.0275835)
(0.000255007 0.0030933 0.0126649)
(-0.00114302 0.0013771 0.0283708)
(0.00143227 0.00337276 0.0458634)
(-0.0062898 -0.00780551 0.0595749)
(-0.000230785 -1.74639e-06 0.0228743)
(-0.00254098 0.00287936 0.0337276)
(-0.00403812 0.00179244 0.0432166)
(-0.00155628 0.00145551 0.011218)
(-0.00143782 -0.00381353 0.0295264)
(-0.00120177 -0.000525365 0.0299344)
(-0.000318358 0.000421312 0.0414342)
(-0.00282869 0.00500615 0.0530998)
(-0.000221485 0.00254688 0.0285896)