/*--------------------------------*- C++ -*----------------------------------*\
| =========                 |                                                 |
| \\      /  F ield         | OpenFOAM: The Open Source CFD Toolbox           |
|  \\    /   O peration     | Version:  2506                                  |
|   \\  /    A nd           | Website:  www.openfoam.com                      |
|    \\/     M anipulation  |                                                 |
\*---------------------------------------------------------------------------*/
FoamFile
{
    version     2.0;
    format      ascii;
    arch        "LSB;label=32;scalar=64";
    class       volVectorField;
    location    "0.08";
    object      Us;
}
// * * * * * * * * * * * * * * * * * * * * * * * * * * * * * * * * * * * * * //

dimensions      [0 1 -1 0 0 0 0];

internalField   nonuniform List<vector> 
1152
(
(0.000121715 6.5082e-05 -2.96897e-05)
(0.000395674 0.000417586 -0.000162709)
(0.000521519 5.26544e-05 -0.000309529)
(9.89865e-05 0.00010597 -0.000291076)
(6.90741e-05 -0.000250477 -9.83902e-05)
(0.000627389 -0.000440118 -0.000125452)
(0.00060255 0.000548032 -0.000378791)
(0.000283321 0.000395149 -0.000394541)
(0.000514696 -0.000179839 -0.000190374)
(0.000516088 -0.000431363 -0.000264536)
(0.000320994 0.000732998 -0.000192471)
(0.000589252 0.000165221 -0.000281433)
(0.000199167 -7.95017e-05 -0.000152051)
(-0.00026865 -0.000210288 -0.000661185)
(0.000189124 0.000124887 -0.00017395)
(0.000820182 2.29769e-05 -0.000722461)
(-0.00118005 -0.0002323 0.00618254)
(0.000430183 -0.000709361 0.0071303)
(0.000777422 0.000961553 0.00554244)
(-8.73826e-05 0.00107596 0.00377242)
(-0.000337954 -0.000488492 0.00674939)
(0.00142047 -0.00068561 0.00555983)
(0.00263648 0.000390181 0.00359134)
(0.000123857 0.00017426 0.00508918)
(-0.000461974 -0.000812536 0.00491046)
(-0.000184665 -0.000781177 0.00581983)
(0.00165548 -0.000111778 0.00514837)
(0.000267246 -7.53833e-05 0.00453923)
(0.00030901 0.000431454 0.00470769)
(0.000405252 0.000451552 0.00244243)
(0.00155008 0.000126783 0.00531143)
(0.000525411 0.000686534 0.00523234)
(-0.000416281 0.000154415 0.00621412)
(0.000112367 0.001051 0.00650528)
(0.000223296 0.000177019 0.00597994)
(0.000378498 0.000522439 0.00503666)
(0.000185665 -5.37176e-06 0.00685478)
(0.00080257 0.000532867 0.00662883)
(0.000852015 0.000237357 0.00683037)
(-0.000242466 0.000681842 0.00582551)
(-0.000152247 -4.36812e-05 0.00649293)
(-5.50505e-05 -7.25778e-05 0.00612756)
(-3.98262e-05 -9.95556e-05 0.00565428)
(-0.00028541 0.000537984 0.0057206)
(-0.000413823 -0.000676843 0.00739298)
(-0.000472262 -0.000311105 0.00649969)
(-0.00010022 -0.000189514 0.00644861)
(-0.000597474 1.93737e-05 0.00626254)
(1.84037e-05 0.000856118 0.00632284)
(0.000205426 0.0003361 0.00629518)
(-4.37492e-05 0.000807252 0.00592035)
(-9.00855e-05 0.000668899 0.00558401)
(-0.000210036 0.000480715 0.0074949)
(0.000126173 -9.26926e-05 0.00686479)
(0.000161038 0.000308273 0.00657633)
(-0.000240612 -0.000248802 0.0060231)
(-0.000280424 -3.75218e-05 0.00668798)
(-0.000471634 -0.000609976 0.0067248)
(-0.000303794 -0.000148228 0.00661968)
(-0.00044074 -0.000266474 0.00629442)
(-0.000434458 -0.000512199 0.00709983)
(-0.000458598 -0.000647331 0.00652546)
(-0.000642552 -3.88562e-05 0.0067705)
(-0.000482055 6.56502e-05 0.00654096)
(-0.00013475 0.000937832 0.00634083)
(0.00050491 0.000319843 0.00627816)
(0.000436055 0.000584694 0.00613785)
(4.69501e-05 0.0004955 0.00606712)
(-0.000184897 0.000667318 0.00711631)
(0.000414791 -0.000122417 0.00685673)
(0.00011277 0.000485532 0.0067314)
(0.000516063 0.000338327 0.00718459)
(-1.79358e-05 0.000302802 0.00672726)
(0.000225174 -6.24834e-05 0.00711128)
(0.000120376 -0.000403412 0.00736636)
(0.000365885 1.04962e-05 0.0067137)
(-0.000272403 -0.000248558 0.00700245)
(-0.00023019 -6.92664e-05 0.00675963)
(-0.000325877 1.06874e-05 0.00678716)
(-0.000232485 -0.000241671 0.00673315)
(-0.0001076 0.000185309 0.00641153)
(0.000291975 -6.4647e-06 0.0060749)
(0.000117973 -0.000137946 0.00620733)
(0.000435768 0.000102179 0.00618877)
(7.83332e-05 -4.087e-05 0.00682866)
(0.000309135 -8.87426e-05 0.00674417)
(0.000409446 0.000421124 0.00653498)
(0.000272165 0.000194662 0.00649569)
(0.00081618 0.000176632 0.00720858)
(8.88567e-05 -0.0001441 0.00686908)
(0.000181092 0.000268665 0.00686019)
(0.000168839 0.000135563 0.00702579)
(0.000263088 0.000479268 0.00716339)
(6.91028e-05 0.000279165 0.0068448)
(-6.53452e-05 0.0003005 0.0068906)
(-3.17276e-06 -8.74474e-05 0.0069718)
(0.000245475 -0.0004037 0.00682021)
(0.000230876 -0.000713081 0.0062785)
(0.000245412 -0.000335361 0.00612867)
(0.000129156 -0.000523811 0.00583757)
(0.000469895 -0.000184763 0.0065026)
(0.000468364 -0.000461038 0.00674827)
(0.000689536 -7.87847e-05 0.00668205)
(0.000284592 -0.000137394 0.00638883)
(0.000342034 8.24326e-05 0.00685096)
(1.9279e-05 -0.000365761 0.00615377)
(0.000552514 0.000279229 0.00676362)
(0.000300919 0.000156559 0.0068102)
(0.000180363 0.000692281 0.00713476)
(0.000359971 0.00051143 0.00661922)
(0.000376607 0.000623936 0.00663839)
(0.000403217 0.00103248 0.00651403)
(0 0 0)
(0 0 0)
(0 0 0)
(0 0 0)
(0 0 0)
(0 0 0)
(0 0 0)
(0 0 0)
(0 0 0)
(0 0 0)
(0 0 0)
(0 0 0)
(0 0 0)
(0 0 0)
(0 0 0)
(0 0 0)
(0 0 0)
(0 0 0)
(0 0 0)
(0 0 0)
(0 0 0)
(0 0 0)
(0 0 0)
(0 0 0)
(0 0 0)
(0 0 0)
(0 0 0)
(0 0 0)
(0 0 0)
(0 0 0)
(0 0 0)
(0 0 0)
(0 0 0)
(0 0 0)
(0 0 0)
(0 0 0)
(0 0 0)
(0 0 0)
(0 0 0)
(0 0 0)
(0 0 0)
(0 0 0)
(0 0 0)
(0 0 0)
(0 0 0)
(0 0 0)
(0 0 0)
(0 0 0)
(0 0 0)
(0 0 0)
(0 0 0)
(0 0 0)
(0 0 0)
(0 0 0)
(0 0 0)
(0 0 0)
(0 0 0)
(0 0 0)
(0 0 0)
(0 0 0)
(0 0 0)
(0 0 0)
(0 0 0)
(0 0 0)
(0 0 0)
(0 0 0)
(0 0 0)
(0 0 0)
(0 0 0)
(0 0 0)
(0 0 0)
(0 0 0)
(0 0 0)
(0 0 0)
(0 0 0)
(0 0 0)
(0 0 0)
(0 0 0)
(0 0 0)
(0 0 0)
(0 0 0)
(0 0 0)
(0 0 0)
(0 0 0)
(0 0 0)
(0 0 0)
(0 0 0)
(0 0 0)
(0 0 0)
(0 0 0)
(0 0 0)
(0 0 0)
(0 0 0)
(0 0 0)
(0 0 0)
(0 0 0)
(0 0 0)
(0 0 0)
(0 0 0)
(0 0 0)
(0 0 0)
(0 0 0)
(0 0 0)
(0 0 0)
(0 0 0)
(0 0 0)
(0 0 0)
(0 0 0)
(0 0 0)
(0 0 0)
(0 0 0)
(0 0 0)
(0 0 0)
(0 0 0)
(0 0 0)
(0 0 0)
(0 0 0)
(0 0 0)
(0 0 0)
(0 0 0)
(0 0 0)
(0 0 0)
(0 0 0)
(0 0 0)
(0 0 0)
(0 0 0)
(0 0 0)
(0 0 0)
(0 0 0)
(0 0 0)
(0 0 0)
(0 0 0)
(0 0 0)
(0 0 0)
(0 0 0)
(0 0 0)
(0 0 0)
(0 0 0)
(0 0 0)
(0 0 0)
(0 0 0)
(0 0 0)
(0 0 0)
(0 0 0)
(0 0 0)
(0 0 0)
(0 0 0)
(0 0 0)
(0 0 0)
(0 0 0)
(0 0 0)
(0 0 0)
(0 0 0)
(0 0 0)
(0 0 0)
(0 0 0)
(0 0 0)
(0 0 0)
(0 0 0)
(0 0 0)
(0 0 0)
(0 0 0)
(0 0 0)
(0 0 0)
(0 0 0)
(0 0 0)
(0 0 0)
(0 0 0)
(0 0 0)
(0 0 0)
(0 0 0)
(0 0 0)
(0 0 0)
(0 0 0)
(0 0 0)
(0 0 0)
(0 0 0)
(0 0 0)
(0 0 0)
(0 0 0)
(0 0 0)
(0 0 0)
(0 0 0)
(0 0 0)
(0 0 0)
(0 0 0)
(0 0 0)
(0 0 0)
(0 0 0)
(0 0 0)
(0 0 0)
(0 0 0)
(0 0 0)
(0 0 0)
(0 0 0)
(0 0 0)
(0 0 0)
(0 0 0)
(0 0 0)
(0 0 0)
(0 0 0)
(0 0 0)
(0 0 0)
(0 0 0)
(0 0 0)
(0 0 0)
(0 0 0)
(0 0 0)
(0 0 0)
(0 0 0)
(0 0 0)
(0 0 0)
(0 0 0)
(0 0 0)
(0 0 0)
(0 0 0)
(0 0 0)
(0 0 0)
(0 0 0)
(0 0 0)
(0 0 0)
(0 0 0)
(0 0 0)
(0 0 0)
(0 0 0)
(0 0 0)
(0 0 0)
(0 0 0)
(0 0 0)
(0 0 0)
(0 0 0)
(0 0 0)
(0 0 0)
(0 0 0)
(0 0 0)
(0 0 0)
(0 0 0)
(0 0 0)
(0 0 0)
(0 0 0)
(0 0 0)
(0 0 0)
(0 0 0)
(0 0 0)
(0 0 0)
(0 0 0)
(0 0 0)
(0 0 0)
(0 0 0)
(0 0 0)
(0 0 0)
(0 0 0)
(0 0 0)
(0 0 0)
(0 0 0)
(0 0 0)
(0 0 0)
(0 0 0)
(0 0 0)
(0 0 0)
(0 0 0)
(0 0 0)
(0 0 0)
(0 0 0)
(0 0 0)
(0 0 0)
(0 0 0)
(0 0 0)
(0 0 0)
(0 0 0)
(0 0 0)
(0 0 0)
(-0.000217465 0.000211487 9.27424e-05)
(-0.000147299 0.000234268 -2.03023e-05)
(-0.000399349 0.0001875 5.87692e-05)
(-0.000104146 8.07875e-05 6.32627e-05)
(6.98004e-05 -8.3278e-05 0.000226256)
(-0.000187197 -6.68442e-05 0.000285718)
(5.35272e-05 -0.000159648 0.000118859)
(0.000120775 -0.000281055 0.000320984)
(-0.000306476 -0.000280299 -0.000299248)
(4.33186e-05 -5.99563e-05 3.14057e-05)
(0.000169074 8.5094e-05 -2.4806e-05)
(0.000348291 -5.53444e-05 -1.76627e-05)
(-0.000149245 0.000107846 -0.00127422)
(-0.000155361 -2.388e-05 -0.000320827)
(4.38908e-05 -8.5789e-05 -0.000251028)
(0.000261553 -0.000285824 -9.45394e-05)
(-0.00142083 0.00080632 0.00503582)
(-0.00184074 0.00101566 0.00514469)
(-0.0010528 -0.00023095 0.00420933)
(-0.0015887 -0.000332929 0.0061678)
(-0.000636417 0.000172262 0.0035405)
(-0.00150251 -0.00172113 0.00616126)
(-0.00154472 -0.000931285 0.00494936)
(-0.00140572 -0.00105172 0.006918)
(-0.000731312 -7.4817e-05 0.00493098)
(-0.000820507 -0.000966123 0.00404623)
(-0.000360309 -0.000840781 0.00462344)
(-0.000564751 -0.00168018 0.00690744)
(-0.000667182 0.00059803 0.0048101)
(-2.23245e-05 0.000254861 0.00423684)
(-0.00038705 -0.000114717 0.00481676)
(-6.05917e-05 -0.000464194 0.00482885)
(-0.000442214 0.000944262 0.00802644)
(-0.000505886 -0.000419016 0.0071047)
(-0.00124604 -0.000340332 0.00802283)
(-0.00176552 -0.000436077 0.00656297)
(-0.000738259 0.000328703 0.00529824)
(-0.000574569 -0.000248345 0.00696133)
(-0.000275167 -0.000469176 0.00717104)
(-0.000201572 -0.000173946 0.00685142)
(1.10537e-05 -0.00077738 0.00545848)
(0.000129765 -0.000148052 0.0058355)
(3.12895e-05 -0.000592352 0.00755409)
(-0.000166217 -0.000320751 0.00701661)
(-0.000578226 0.000570463 0.0057837)
(-0.000228357 -0.0003861 0.00553678)
(-0.000575925 -0.000160699 0.00575066)
(-0.000399113 0.000165808 0.00569375)
(-0.000941204 0.00130449 0.00732425)
(-0.000429922 0.000917366 0.00710279)
(-0.000464454 -0.000424855 0.00903179)
(-3.21895e-05 -0.000348754 0.00667515)
(-0.000999565 0.00150288 0.00576304)
(-9.20861e-05 0.000887191 0.00891825)
(0.000192013 0.000526493 0.00648542)
(6.58332e-05 0.00111014 0.00612734)
(-0.000456536 -0.000142682 0.00508743)
(-0.000210167 -0.000333077 0.00688543)
(0.000566545 0.000545379 0.00688413)
(-0.000247209 0.000374959 0.00696482)
(-0.00040287 -0.000821916 0.00623762)
(0.000108994 -0.000239657 0.00609699)
(-0.000374546 -1.40563e-05 0.00710723)
(-4.68272e-05 0.000137299 0.00649209)
(-0.000855858 0.000574704 0.00545233)
(-0.000779556 0.000810117 0.00592156)
(-0.000320097 0.000877135 0.00658058)
(-0.000708537 0.000857692 0.00630201)
(-0.000393708 -0.000238152 0.00494381)
(-0.000236734 0.000293478 0.00617272)
(-0.000448367 0.000230653 0.00711333)
(-0.000538 0.000270034 0.00732786)
(0.000483748 -0.000352221 0.00464915)
(0.00102914 -0.000213385 0.00572444)
(0.000671235 -0.000319807 0.00691787)
(0.000428315 -0.000239921 0.00743961)
(0.000807396 -0.000569389 0.00485314)
(0.00067966 -0.000251537 0.00565056)
(0.000646444 -0.000377287 0.00668076)
(-7.61532e-05 0.000401122 0.00729026)
(-0.000207884 0.000108305 0.00488728)
(-6.25331e-07 0.000587294 0.00524009)
(-0.000177235 0.000261535 0.00629716)
(-6.94223e-05 0.000309461 0.00682484)
(2.55806e-05 0.000291468 0.00375534)
(0.000285224 0.000773745 0.00635662)
(0.00035535 0.000618043 0.00640066)
(0.000286779 0.000204018 0.00676551)
(0.000664899 0.000491174 0.0037878)
(0.000652607 0.00120773 0.00546531)
(0.000558857 0.000362064 0.00627734)
(0.000590529 0.000660813 0.00672154)
(0.000142549 0.000315232 0.00378617)
(0.000244843 -0.00032193 0.00610268)
(0.0001975 0.000111325 0.00633611)
(-4.65838e-05 0.000540693 0.00673468)
(-0.000854855 -0.000164397 0.00423028)
(0.000593231 0.000111257 0.00570587)
(0.000895326 6.0963e-05 0.00603142)
(-0.000613723 0.000101965 0.00704704)
(-0.000222846 0.000355825 0.00218141)
(-0.00107076 0.000696018 0.00522222)
(0.000857475 0.00060934 0.00651933)
(0.000143113 0.000755714 0.0065613)
(-0.00020525 0.000943334 0.00316714)
(-0.00154128 -0.000935293 0.00469924)
(-1.83082e-05 -0.000151946 0.00613081)
(0.000534595 0.000150471 0.0067762)
(1.97782e-06 -0.000107583 0.00371983)
(0.000295731 -0.00128879 0.00550298)
(-0.000592952 -9.3632e-05 0.00607197)
(0.000263063 0.000100226 0.00645574)
(0 0 0)
(0 0 0)
(0 0 0)
(0 0 0)
(0 0 0)
(0 0 0)
(0 0 0)
(0 0 0)
(0 0 0)
(0 0 0)
(0 0 0)
(0 0 0)
(0 0 0)
(0 0 0)
(0 0 0)
(0 0 0)
(0 0 0)
(0 0 0)
(0 0 0)
(0 0 0)
(0 0 0)
(0 0 0)
(0 0 0)
(0 0 0)
(0 0 0)
(0 0 0)
(0 0 0)
(0 0 0)
(0 0 0)
(0 0 0)
(0 0 0)
(0 0 0)
(0 0 0)
(0 0 0)
(0 0 0)
(0 0 0)
(0 0 0)
(0 0 0)
(0 0 0)
(0 0 0)
(0 0 0)
(0 0 0)
(0 0 0)
(0 0 0)
(0 0 0)
(0 0 0)
(0 0 0)
(0 0 0)
(0 0 0)
(0 0 0)
(0 0 0)
(0 0 0)
(0 0 0)
(0 0 0)
(0 0 0)
(0 0 0)
(0 0 0)
(0 0 0)
(0 0 0)
(0 0 0)
(0 0 0)
(0 0 0)
(0 0 0)
(0 0 0)
(0 0 0)
(0 0 0)
(0 0 0)
(0 0 0)
(0 0 0)
(0 0 0)
(0 0 0)
(0 0 0)
(0 0 0)
(0 0 0)
(0 0 0)
(0 0 0)
(0 0 0)
(0 0 0)
(0 0 0)
(0 0 0)
(0 0 0)
(0 0 0)
(0 0 0)
(0 0 0)
(0 0 0)
(0 0 0)
(0 0 0)
(0 0 0)
(0 0 0)
(0 0 0)
(0 0 0)
(0 0 0)
(0 0 0)
(0 0 0)
(0 0 0)
(0 0 0)
(0 0 0)
(0 0 0)
(0 0 0)
(0 0 0)
(0 0 0)
(0 0 0)
(0 0 0)
(0 0 0)
(0 0 0)
(0 0 0)
(0 0 0)
(0 0 0)
(0 0 0)
(0 0 0)
(0 0 0)
(0 0 0)
(0 0 0)
(0 0 0)
(0 0 0)
(0 0 0)
(0 0 0)
(0 0 0)
(0 0 0)
(0 0 0)
(0 0 0)
(0 0 0)
(0 0 0)
(0 0 0)
(0 0 0)
(0 0 0)
(0 0 0)
(0 0 0)
(0 0 0)
(0 0 0)
(0 0 0)
(0 0 0)
(0 0 0)
(0 0 0)
(0 0 0)
(0 0 0)
(0 0 0)
(0 0 0)
(0 0 0)
(0 0 0)
(0 0 0)
(0 0 0)
(0 0 0)
(0 0 0)
(0 0 0)
(0 0 0)
(0 0 0)
(0 0 0)
(0 0 0)
(0 0 0)
(0 0 0)
(0 0 0)
(0 0 0)
(0 0 0)
(0 0 0)
(0 0 0)
(0 0 0)
(0 0 0)
(0 0 0)
(0 0 0)
(0 0 0)
(0 0 0)
(0 0 0)
(0 0 0)
(0 0 0)
(0 0 0)
(0 0 0)
(0 0 0)
(0 0 0)
(0 0 0)
(0 0 0)
(0 0 0)
(0 0 0)
(0 0 0)
(0 0 0)
(0 0 0)
(0 0 0)
(0 0 0)
(0 0 0)
(0 0 0)
(0 0 0)
(0 0 0)
(0 0 0)
(0 0 0)
(0 0 0)
(0 0 0)
(0 0 0)
(0 0 0)
(0 0 0)
(0 0 0)
(0 0 0)
(0 0 0)
(0 0 0)
(0 0 0)
(0 0 0)
(0 0 0)
(0 0 0)
(0 0 0)
(0 0 0)
(0 0 0)
(0 0 0)
(0 0 0)
(0 0 0)
(0 0 0)
(0 0 0)
(0 0 0)
(0 0 0)
(0 0 0)
(0 0 0)
(0 0 0)
(0 0 0)
(0 0 0)
(0 0 0)
(0 0 0)
(0 0 0)
(0 0 0)
(0 0 0)
(0 0 0)
(0 0 0)
(0 0 0)
(0 0 0)
(0 0 0)
(0 0 0)
(0 0 0)
(0 0 0)
(0 0 0)
(0 0 0)
(0 0 0)
(0 0 0)
(0 0 0)
(0 0 0)
(0 0 0)
(0 0 0)
(0 0 0)
(0 0 0)
(0 0 0)
(0 0 0)
(0 0 0)
(0 0 0)
(0 0 0)
(0 0 0)
(0 0 0)
(0 0 0)
(0 0 0)
(0 0 0)
(0 0 0)
(0 0 0)
(0 0 0)
(0 0 0)
(0 0 0)
(0 0 0)
(0 0 0)
(0 0 0)
(0 0 0)
(0 0 0)
(0 0 0)
(0 0 0)
(0 0 0)
(0 0 0)
(0 0 0)
(0 0 0)
(0 0 0)
(0 0 0)
(0 0 0)
(0 0 0)
(0 0 0)
(0 0 0)
(0 0 0)
(0 0 0)
(0 0 0)
(0 0 0)
(0 0 0)
(-0.000273752 0.000194591 -7.97145e-05)
(0.000135181 -7.81371e-05 -0.000186518)
(-7.54497e-06 8.07103e-05 -0.000183228)
(0.000254495 5.71832e-05 -2.49862e-05)
(-7.20894e-05 0.000110293 -0.000129783)
(4.9021e-05 0.00036283 -0.000144673)
(0.000440335 0.00048608 -4.12445e-05)
(-0.000215223 0.000470772 -7.70111e-05)
(0.000322976 0.000204965 -7.49961e-05)
(0.000276876 0.000101678 5.06336e-06)
(0.000315258 0.000451047 2.89358e-05)
(0.000276293 -6.17535e-05 -0.00452822)
(0.000301331 0.000319551 -2.00529e-05)
(0.000230364 0.000169104 -7.8902e-05)
(0.000273478 0.000283407 -0.00019433)
(0.000192631 0.000335563 -1.50708e-05)
(-0.000778328 0.00185639 0.00552812)
(-0.00162742 0.00180029 0.00561508)
(-0.000699642 0.00155868 0.00309811)
(-0.0011788 4.72005e-05 0.00527782)
(-0.000232582 0.0015608 0.00201255)
(-0.000880259 0.00135942 0.00294786)
(0.000437999 0.00130531 0.00598139)
(-0.0035428 -0.00018702 0.00694082)
(-0.000335138 8.73923e-05 0.00450695)
(-0.000803796 0.000597053 0.0037392)
(-0.0015409 0.00153299 0.00533687)
(-0.00119347 0.00151825 0.00394421)
(-0.00108143 -0.000735752 0.00491841)
(-0.00076393 -0.000637511 0.00515902)
(0.000715863 0.00077126 0.00560393)
(0.000689868 0.00131718 0.0049513)
(-0.000369247 0.000654474 0.00580878)
(-0.000384326 0.00225341 0.00608166)
(-0.00102225 0.000227097 0.00346288)
(-0.00189915 -0.000247123 0.00545369)
(-0.000119117 0.000831977 0.00624991)
(-0.000100405 0.00155554 0.00585445)
(-0.00125961 0.000627996 0.00582047)
(-0.00218756 0.000741911 0.00574348)
(-0.000689361 0.00109273 0.00719684)
(-0.000994355 0.00135859 0.00569343)
(-0.00138018 -6.33346e-06 0.00695018)
(-0.000305076 0.000505259 0.00502439)
(-0.00115545 0.00039066 0.0057723)
(-0.000673929 0.000760655 0.00637849)
(-0.000265765 -7.22847e-05 0.00611596)
(-0.000233382 0.000718599 0.00531738)
(-0.000817206 -5.64095e-05 0.00561276)
(4.64311e-05 0.000162371 0.00356611)
(-0.00033788 0.000272711 0.00343362)
(-6.33999e-05 -3.03604e-05 0.00425429)
(-0.00145323 -0.000682108 0.0077437)
(-0.000159476 0.000648293 0.00466055)
(-8.49228e-05 0.00076887 0.00443501)
(-0.000450674 0.000588308 0.00429021)
(-0.000250089 -0.000200936 0.00787563)
(-0.00026898 0.000595326 0.00483711)
(-5.47334e-05 0.000615451 0.00526571)
(-9.68138e-05 -8.70696e-05 0.00482474)
(0.000377184 0.00105341 0.00586179)
(-0.000177634 0.000626999 0.00521756)
(3.5884e-05 0.000539503 0.00593561)
(-4.25121e-05 0.00101305 0.00599843)
(-0.000300176 0.000157892 0.00461643)
(0.000138384 0.000125033 0.00285108)
(0.000204772 -0.000106952 0.00365255)
(5.36583e-05 -0.000346095 0.00346534)
(-0.000609108 0.000222644 0.00544375)
(-0.000182497 0.00127959 0.00447183)
(-0.000679513 0.000798865 0.0051904)
(-0.000429622 7.3815e-05 0.00419262)
(-0.000540011 0.000728635 0.00562571)
(-0.000357172 0.000959917 0.00487304)
(-1.61267e-05 0.000565954 0.00499358)
(-0.000456365 -0.00034575 0.00556225)
(-0.000133197 0.000950531 0.00558917)
(-0.000350532 0.000408404 0.00533394)
(0.000150372 0.000468499 0.00549566)
(-0.000111635 0.000191896 0.00653574)
(0.000313151 0.000288789 0.00359051)
(5.29322e-05 0.000274072 0.00305725)
(-0.000344848 0.00032814 0.00274437)
(-0.000657097 0.0010708 0.00356651)
(0.000142246 0.000431145 0.00442607)
(-5.70061e-05 0.000610017 0.00450518)
(-0.000502604 0.00073008 0.0046874)
(-0.000693815 0.000363187 0.00443997)
(-0.000198472 0.00011993 0.00474732)
(0.00017287 0.000195822 0.00489758)
(0.0003941 0.00033626 0.00468582)
(0.000392879 1.84481e-05 0.00546762)
(-0.000276604 0.000234078 0.00535852)
(4.49238e-05 0.000176382 0.00545935)
(0.000283355 0.000265525 0.00553004)
(0.000471783 6.98478e-05 0.00570658)
(0.000196554 -4.43413e-05 0.00289022)
(-0.000273319 0.000135587 0.0034762)
(0.000451544 -0.000131147 0.00274141)
(0.000574977 0.000152895 0.00275531)
(0.000664408 0.000727351 0.00464782)
(0.000486408 0.00093716 0.00471669)
(0.000304597 0.000894663 0.00465582)
(-0.0001387 -0.000254889 0.00460598)
(0.00153233 0.000936507 0.00503283)
(0.00165026 0.00107297 0.0053997)
(0.000706855 0.00035417 0.00527632)
(0.000673216 9.41671e-05 0.0054506)
(0.00119572 0.000916767 0.0059433)
(0.00111319 0.00102974 0.00538914)
(0.000339198 -6.4148e-05 0.0058765)
(0.000762111 -0.00023267 0.00583663)
(0 0 0)
(0 0 0)
(0 0 0)
(0 0 0)
(0 0 0)
(0 0 0)
(-0.00131465 0.00146727 0.00217016)
(0 0 0)
(0 0 0)
(0 0 0)
(0 0 0)
(0 0 0)
(0 0 0)
(0 0 0)
(0 0 0)
(0 0 0)
(0 0 0)
(0 0 0)
(0 0 0)
(0 0 0)
(0 0 0)
(0 0 0)
(0 0 0)
(0 0 0)
(0 0 0)
(0 0 0)
(0 0 0)
(0 0 0)
(0 0 0)
(0 0 0)
(0 0 0)
(0 0 0)
(0 0 0)
(0 0 0)
(0 0 0)
(0 0 0)
(0 0 0)
(0 0 0)
(0 0 0)
(0 0 0)
(0 0 0)
(0 0 0)
(0 0 0)
(0 0 0)
(0 0 0)
(0 0 0)
(0 0 0)
(0 0 0)
(0 0 0)
(0 0 0)
(0 0 0)
(0 0 0)
(0 0 0)
(0 0 0)
(0 0 0)
(0 0 0)
(0 0 0)
(0 0 0)
(0 0 0)
(0 0 0)
(0 0 0)
(0 0 0)
(0 0 0)
(0 0 0)
(0 0 0)
(0 0 0)
(0 0 0)
(0 0 0)
(0 0 0)
(0 0 0)
(0 0 0)
(0 0 0)
(0 0 0)
(0 0 0)
(0 0 0)
(0 0 0)
(0 0 0)
(0 0 0)
(0 0 0)
(0 0 0)
(0 0 0)
(0 0 0)
(0 0 0)
(0 0 0)
(0 0 0)
(0 0 0)
(0 0 0)
(0 0 0)
(0 0 0)
(0 0 0)
(0 0 0)
(0 0 0)
(0 0 0)
(0 0 0)
(0 0 0)
(0 0 0)
(0 0 0)
(0 0 0)
(0 0 0)
(0 0 0)
(0 0 0)
(0 0 0)
(0 0 0)
(0 0 0)
(0 0 0)
(0 0 0)
(0 0 0)
(0 0 0)
(0 0 0)
(0 0 0)
(0 0 0)
(0 0 0)
(0 0 0)
(0 0 0)
(0 0 0)
(0 0 0)
(0 0 0)
(0 0 0)
(0 0 0)
(0 0 0)
(0 0 0)
(0 0 0)
(0 0 0)
(0 0 0)
(0 0 0)
(0 0 0)
(0 0 0)
(0 0 0)
(0 0 0)
(0 0 0)
(0 0 0)
(0 0 0)
(0 0 0)
(0 0 0)
(0 0 0)
(0 0 0)
(0 0 0)
(0 0 0)
(0 0 0)
(0 0 0)
(0 0 0)
(0 0 0)
(0 0 0)
(0 0 0)
(0 0 0)
(0 0 0)
(0 0 0)
(0 0 0)
(0 0 0)
(0 0 0)
(0 0 0)
(0 0 0)
(0 0 0)
(0 0 0)
(0 0 0)
(0 0 0)
(0 0 0)
(0 0 0)
(0 0 0)
(0 0 0)
(0 0 0)
(0 0 0)
(0 0 0)
(0 0 0)
(0 0 0)
(0 0 0)
(0 0 0)
(0 0 0)
(0 0 0)
(0 0 0)
(0 0 0)
(0 0 0)
(0 0 0)
(0 0 0)
(0 0 0)
(0 0 0)
(0 0 0)
(0 0 0)
(0 0 0)
(0 0 0)
(0 0 0)
(0 0 0)
(0 0 0)
(0 0 0)
(0 0 0)
(0 0 0)
(0 0 0)
(0 0 0)
(0 0 0)
(0 0 0)
(0 0 0)
(0 0 0)
(0 0 0)
(0 0 0)
(0 0 0)
(0 0 0)
(0 0 0)
(0 0 0)
(0 0 0)
(0 0 0)
(0 0 0)
(0 0 0)
(0 0 0)
(0 0 0)
(0 0 0)
(0 0 0)
(0 0 0)
(0 0 0)
(0 0 0)
(0 0 0)
(0 0 0)
(0 0 0)
(0 0 0)
(0 0 0)
(0 0 0)
(0 0 0)
(0 0 0)
(0 0 0)
(0 0 0)
(0 0 0)
(0 0 0)
(0 0 0)
(0 0 0)
(0 0 0)
(0 0 0)
(0 0 0)
(0 0 0)
(0 0 0)
(0 0 0)
(0 0 0)
(0 0 0)
(0 0 0)
(0 0 0)
(0 0 0)
(0 0 0)
(0 0 0)
(0 0 0)
(0 0 0)
(0 0 0)
(0 0 0)
(0 0 0)
(0 0 0)
(0 0 0)
(0 0 0)
(0 0 0)
(0 0 0)
(0 0 0)
(0 0 0)
(0 0 0)
(0 0 0)
(0 0 0)
(0 0 0)
(0 0 0)
(0 0 0)
(0 0 0)
(0 0 0)
(0 0 0)
(0 0 0)
(0 0 0)
(0 0 0)
(0 0 0)
(0 0 0)
(0 0 0)
(0 0 0)
(0 0 0)
(0 0 0)
(0 0 0)
(0 0 0)
(0 0 0)
(0 0 0)
(0 0 0)
(0 0 0)
)
;

boundaryField
{
    inlet
    {
        type            zeroGradient;
    }
    outlet
    {
        type            zeroGradient;
    }
    wall
    {
        type            zeroGradient;
    }
    procBoundary0to1
    {
        type            processor;
        value           nonuniform List<vector> 
192
(
(0.000273805 -0.000113011 -0.000130008)
(-0.000315926 0.000430577 -0.000929342)
(0.00029763 0.000516614 -0.000799665)
(0.000230913 6.2857e-05 -0.000922914)
(-0.00194517 0.000283993 0.00308864)
(-0.00166922 0.00113871 0.00295093)
(-0.00158771 0.00140831 0.00424719)
(-0.000390964 0.00144538 0.00361992)
(0.000645545 0.000688538 0.00486401)
(-4.00584e-05 0.000567765 0.00552693)
(-0.000532707 0.000662508 0.00577505)
(-0.000231099 0.000178762 0.00601718)
(0.00015504 0.000559927 0.00627583)
(-0.000383418 5.26666e-05 0.0060304)
(-0.000144 1.45041e-05 0.00622698)
(2.6311e-05 0.000210368 0.0064115)
(-3.9256e-06 0.00031881 0.00631754)
(5.14365e-05 6.71468e-05 0.00654074)
(7.78765e-05 -9.89564e-06 0.00660958)
(-0.000147759 0.000118612 0.00647253)
(0.000657002 8.23143e-06 0.00595925)
(0.000430639 6.65952e-05 0.0063844)
(0.000130985 5.54899e-05 0.0066782)
(8.75719e-05 0.000491483 0.0066197)
(0.000887474 0.000259135 0.0059164)
(0.000576122 0.000240583 0.00641367)
(-0.000122614 0.000542799 0.00592432)
(0.000319945 0.00075304 0.00618595)
(0 0 0)
(0 0 0)
(0 0 0)
(0.000540357 0.000233454 0.00605447)
(0 0 0)
(0 0 0)
(0 0 0)
(0 0 0)
(0 0 0)
(0 0 0)
(0 0 0)
(0 0 0)
(0 0 0)
(0 0 0)
(0 0 0)
(0 0 0)
(0 0 0)
(0 0 0)
(0 0 0)
(0 0 0)
(0 0 0)
(0 0 0)
(0 0 0)
(0 0 0)
(0 0 0)
(0 0 0)
(0 0 0)
(0 0 0)
(0 0 0)
(0 0 0)
(0 0 0)
(0 0 0)
(0 0 0)
(0 0 0)
(0 0 0)
(0 0 0)
(0 0 0)
(0 0 0)
(0 0 0)
(0 0 0)
(0 0 0)
(0 0 0)
(0 0 0)
(0 0 0)
(0 0 0)
(0 0 0)
(0 0 0)
(0 0 0)
(0 0 0)
(0 0 0)
(0 0 0)
(0 0 0)
(0 0 0)
(0 0 0)
(0 0 0)
(0 0 0)
(0 0 0)
(0 0 0)
(0 0 0)
(0 0 0)
(0 0 0)
(0 0 0)
(0 0 0)
(0 0 0)
(0 0 0)
(0 0 0)
(0 0 0)
(0 0 0)
(5.84763e-05 0.000115855 -0.000156978)
(0.000119204 0.0003873 -0.000375275)
(-0.00041577 0.000295162 -0.000155732)
(-0.000177432 -0.000209151 -0.000116336)
(-0.00258146 0.00219945 0.00212779)
(-0.00191137 0.00188551 0.0032831)
(-0.00241365 0.00296552 0.00518249)
(-0.00197019 0.00117525 0.00374123)
(-0.00133216 0.000454751 0.00456682)
(-0.000870406 0.00107449 0.00512245)
(-0.000575109 0.00123569 0.00423223)
(-7.32134e-05 0.000994611 0.0043462)
(-0.00011414 -6.45485e-05 0.0029101)
(-0.000230667 0.000327658 0.00347764)
(-0.000471032 0.000723322 0.00421612)
(-0.00040401 0.000592508 0.00579551)
(-0.000592834 -0.000212366 0.00291987)
(-0.000766291 0.00023884 0.00324782)
(-0.000795837 -6.27784e-05 0.00441445)
(-0.000354896 -0.000123235 0.00621759)
(-0.00032219 8.84059e-05 0.00241915)
(-0.000302126 -8.80636e-06 0.00354054)
(0.000195264 -8.06872e-05 0.00463631)
(0.000590186 -0.000155953 0.00548144)
(0.000705378 -0.000493802 0.00166207)
(0.00064637 -0.000588006 0.00326407)
(0.00054103 -0.000710109 0.00389054)
(0.000990614 -0.000154527 0.00494272)
(0 0 0)
(0 0 0)
(0 0 0)
(0 0 0)
(0 0 0)
(0 0 0)
(0 0 0)
(0 0 0)
(0 0 0)
(0 0 0)
(0 0 0)
(0 0 0)
(0 0 0)
(0 0 0)
(0 0 0)
(0 0 0)
(0 0 0)
(0 0 0)
(0 0 0)
(0 0 0)
(0 0 0)
(0 0 0)
(0 0 0)
(0 0 0)
(0 0 0)
(0 0 0)
(0 0 0)
(0 0 0)
(0 0 0)
(0 0 0)
(0 0 0)
(0 0 0)
(0 0 0)
(0 0 0)
(0 0 0)
(0 0 0)
(0 0 0)
(0 0 0)
(0 0 0)
(0 0 0)
(0 0 0)
(0 0 0)
(0 0 0)
(0 0 0)
(0 0 0)
(0 0 0)
(0 0 0)
(0 0 0)
(0 0 0)
(0 0 0)
(0 0 0)
(0 0 0)
(0 0 0)
(0 0 0)
(0 0 0)
(0 0 0)
(0 0 0)
(0 0 0)
(0 0 0)
(0 0 0)
(0 0 0)
(0 0 0)
(0 0 0)
(0 0 0)
(0 0 0)
(0 0 0)
(0 0 0)
(0 0 0)
)
;
    }
    procBoundary0to2
    {
        type            processor;
        value           nonuniform List<vector> 
192
(
(-0.0001837 0.000236139 -0.000306182)
(9.07636e-05 -0.000211265 -7.91498e-05)
(0.000161768 -0.000214056 -0.000314338)
(0.000558259 6.48086e-05 -0.000656905)
(-0.00030416 1.7545e-05 0.00529285)
(5.10108e-05 -0.000187629 0.00469038)
(0.00142979 -0.000192172 0.00417055)
(-0.000383331 -0.000193134 0.0020748)
(-8.18347e-05 -0.000307397 0.0069486)
(3.38632e-05 -0.000220734 0.00611727)
(-0.000501085 4.38231e-06 0.00653929)
(-0.0001275 0.000281626 0.00635903)
(-1.54894e-05 -0.000449557 0.00661328)
(-0.000360695 -9.17339e-05 0.00590871)
(-0.0011722 -0.000117184 0.0064788)
(-0.000574727 0.000195782 0.00676024)
(-0.000316359 -4.43563e-05 0.00656316)
(-0.000291002 -4.15654e-06 0.00657014)
(-0.000402989 -9.6552e-05 0.00660165)
(-0.000235831 -7.60807e-05 0.00683887)
(3.60719e-05 0.000358039 0.00664487)
(7.76761e-06 0.000463642 0.00650055)
(-0.000241261 0.000510056 0.00666697)
(3.50597e-05 0.000301819 0.00671297)
(0.000103931 0.000755749 0.00662955)
(0.000127697 0.000683488 0.00652572)
(-0.000601186 0.00105323 0.00640672)
(0.000318783 0.00103776 0.0063467)
(0 0 0)
(0 0 0)
(0 0 0)
(0 0 0)
(0 0 0)
(0 0 0)
(0 0 0)
(0 0 0)
(0 0 0)
(0 0 0)
(0 0 0)
(0 0 0)
(0 0 0)
(0 0 0)
(0 0 0)
(0 0 0)
(0 0 0)
(0 0 0)
(0 0 0)
(0 0 0)
(0 0 0)
(0 0 0)
(0 0 0)
(0 0 0)
(0 0 0)
(0 0 0)
(0 0 0)
(0 0 0)
(0 0 0)
(0 0 0)
(0 0 0)
(0 0 0)
(0 0 0)
(0 0 0)
(0 0 0)
(0 0 0)
(0 0 0)
(0 0 0)
(0 0 0)
(0 0 0)
(0 0 0)
(0 0 0)
(0 0 0)
(0 0 0)
(0 0 0)
(0 0 0)
(0 0 0)
(0 0 0)
(0 0 0)
(0 0 0)
(0 0 0)
(0 0 0)
(0 0 0)
(0 0 0)
(0 0 0)
(0 0 0)
(0 0 0)
(0 0 0)
(0 0 0)
(0 0 0)
(0 0 0)
(0 0 0)
(0 0 0)
(0 0 0)
(0 0 0)
(0 0 0)
(0 0 0)
(0 0 0)
(0.000152172 0.000467413 -0.000685396)
(-0.000130287 3.56401e-05 -0.000355383)
(-4.50051e-05 0.000300799 -0.000306276)
(-0.000174204 0.000630636 -0.000674901)
(2.41644e-05 0.000732354 0.00302048)
(-0.000237781 0.00126699 0.00253453)
(-0.000848174 0.000521077 0.00187148)
(-0.00056703 -0.000106842 0.00206313)
(0.000251892 0.000172416 0.00645532)
(-0.000156522 0.000229494 0.00542897)
(-6.49433e-05 -8.38006e-05 0.00510745)
(-0.000854585 -0.000952513 0.00589073)
(0.000679511 -0.000751893 0.00602596)
(0.000421372 -0.000938915 0.00587781)
(-4.69227e-05 -0.000803787 0.00568748)
(-0.000260635 -0.000285293 0.00611358)
(0.000420808 -0.000543089 0.0055082)
(0.000910711 -0.000175636 0.0065869)
(0.000185372 -0.000309482 0.00623772)
(0.000160659 0.000134135 0.0065248)
(-0.000327513 0.000265791 0.00495294)
(-0.000330511 8.47098e-05 0.00604575)
(-0.000211527 0.000376569 0.00581484)
(2.79237e-05 0.000202635 0.00656676)
(-0.000520188 -0.000245845 0.00476567)
(-0.000394578 0.00107917 0.00571464)
(-0.000774796 0.000497138 0.00521727)
(-0.000166855 0.000166301 0.00598548)
(0 0 0)
(0 0 0)
(0 0 0)
(0 0 0)
(0 0 0)
(0 0 0)
(0 0 0)
(0 0 0)
(0 0 0)
(0 0 0)
(0 0 0)
(0 0 0)
(0 0 0)
(0 0 0)
(0 0 0)
(0 0 0)
(0 0 0)
(0 0 0)
(0 0 0)
(0 0 0)
(0 0 0)
(0 0 0)
(0 0 0)
(0 0 0)
(0 0 0)
(0 0 0)
(0 0 0)
(0 0 0)
(0 0 0)
(0 0 0)
(0 0 0)
(0 0 0)
(0 0 0)
(0 0 0)
(0 0 0)
(0 0 0)
(0 0 0)
(0 0 0)
(0 0 0)
(0 0 0)
(0 0 0)
(0 0 0)
(0 0 0)
(0 0 0)
(0 0 0)
(0 0 0)
(0 0 0)
(0 0 0)
(0 0 0)
(0 0 0)
(0 0 0)
(0 0 0)
(0 0 0)
(0 0 0)
(0 0 0)
(0 0 0)
(0 0 0)
(0 0 0)
(0 0 0)
(0 0 0)
(0 0 0)
(0 0 0)
(0 0 0)
(0 0 0)
(0 0 0)
(0 0 0)
(0 0 0)
(0 0 0)
)
;
    }
}


// ************************************************************************* //
