/*--------------------------------*- C++ -*----------------------------------*\
| =========                 |                                                 |
| \\      /  F ield         | OpenFOAM: The Open Source CFD Toolbox           |
|  \\    /   O peration     | Version:  2506                                  |
|   \\  /    A nd           | Website:  www.openfoam.com                      |
|    \\/     M anipulation  |                                                 |
\*---------------------------------------------------------------------------*/
FoamFile
{
    version     2.0;
    format      ascii;
    arch        "LSB;label=32;scalar=64";
    class       volScalarField;
    location    "0.08";
    object      voidfraction;
}
// * * * * * * * * * * * * * * * * * * * * * * * * * * * * * * * * * * * * * //

dimensions      [0 0 0 0 0 0 0];

internalField   nonuniform List<scalar> 
1152
(
0.41803
0.44173
0.462797
0.362729
0.428563
0.45753
0.375896
0.404863
0.44173
0.444363
0.47333
0.420663
0.40223
0.53653
0.47333
0.412763
0.41803
0.483863
0.49703
0.373263
0.41803
0.483863
0.391696
0.381163
0.431196
0.510197
0.44963
0.378529
0.446997
0.41803
0.423296
0.45753
0.370629
0.381163
0.370629
0.315329
0.354829
0.352196
0.43383
0.444363
0.38643
0.42593
0.365363
0.45753
0.375896
0.478597
0.367996
0.365363
0.407496
0.444363
0.315329
0.407496
0.460163
0.40223
0.423296
0.423296
0.375896
0.349563
0.41803
0.331129
0.383796
0.415396
0.41013
0.483863
0.378529
0.367996
0.352196
0.41803
0.423296
0.41803
0.436463
0.373263
0.412763
0.404863
0.389063
0.470697
0.423296
0.383796
0.357463
0.378529
0.352196
0.43383
0.439097
0.431196
0.415396
0.428563
0.391696
0.468063
0.412763
0.470697
0.357463
0.452263
0.549697
0.381163
0.378529
0.45753
0.728765
0.691898
0.662931
0.581297
0.762999
0.662931
0.578664
0.523364
0.747198
0.652398
0.604998
0.676098
0.694531
0.599731
0.541797
0.541797
1
1
1
1
1
1
1
1
1
1
1
1
1
1
1
1
1
1
1
1
1
1
1
1
1
1
1
1
1
1
1
1
1
1
1
1
1
1
1
1
1
1
1
1
1
1
1
1
1
1
1
1
1
1
1
1
1
1
1
1
1
1
1
1
1
1
1
1
1
1
1
1
1
1
1
1
1
1
1
1
1
1
1
1
1
1
1
1
1
1
1
1
1
1
1
1
1
1
1
1
1
1
1
1
1
1
1
1
1
1
1
1
1
1
1
1
1
1
1
1
1
1
1
1
1
1
1
1
1
1
1
1
1
1
1
1
1
1
1
1
1
1
1
1
1
1
1
1
1
1
1
1
1
1
1
1
1
1
1
1
1
1
1
1
1
1
1
1
1
1
1
1
1
1
1
1
1
1
1
1
1
1
1
1
1
1
1
1
1
1
1
1
1
1
1
1
1
1
1
1
1
1
1
1
1
1
1
1
1
1
1
1
1
1
1
1
1
1
1
1
1
1
1
1
1
1
1
1
1
1
1
1
1
1
1
1
1
1
1
1
1
1
1
1
1
1
1
1
1
1
1
1
1
1
1
1
1
1
1
1
1
1
1
1
1
1
1
1
1
1
1
1
0.460439
0.439976
0.466867
0.430467
0.391225
0.451865
0.440483
0.467211
0.443532
0.471422
0.418325
0.412603
0.418358
0.408541
0.476008
0.466251
0.479324
0.514233
0.394332
0.408562
0.399921
0.446992
0.412784
0.457583
0.443532
0.407993
0.406454
0.426138
0.446992
0.471841
0.487063
0.433675
0.465835
0.396659
0.383452
0.417324
0.43036
0.459173
0.398934
0.464002
0.41304
0.414336
0.411202
0.372
0.377195
0.416454
0.325664
0.423652
0.411879
0.402847
0.426973
0.299036
0.349915
0.485971
0.385085
0.444744
0.41304
0.443936
0.43257
0.401776
0.416568
0.376891
0.354407
0.41864
0.487417
0.362624
0.401586
0.329703
0.397747
0.420195
0.407244
0.431906
0.447343
0.38685
0.427821
0.420724
0.432675
0.307657
0.445055
0.38857
0.39839
0.375
0.4306
0.434848
0.423838
0.403142
0.398934
0.39981
0.41304
0.437593
0.35897
0.377414
0.416568
0.434257
0.427367
0.433675
0.662774
0.665842
0.764261
0.789711
0.623864
0.724714
0.806108
0.810635
0.761786
0.843541
0.76733
0.748259
0.656384
0.727019
0.829758
0.734379
1
1
1
1
1
1
1
1
1
1
1
1
1
1
1
1
1
1
1
1
1
1
1
1
1
1
1
1
1
1
1
1
1
1
1
1
1
1
1
1
1
1
1
1
1
1
1
1
1
1
1
1
1
1
1
1
1
1
1
1
1
1
1
1
1
1
1
1
1
1
1
1
1
1
1
1
1
1
1
1
1
1
1
1
1
1
1
1
1
1
1
1
1
1
1
1
1
1
1
1
1
1
1
1
1
1
1
1
1
1
1
1
1
1
1
1
1
1
1
1
1
1
1
1
1
1
1
1
1
1
1
1
1
1
1
1
1
1
1
1
1
1
1
1
1
1
1
1
1
1
1
1
1
1
1
1
1
1
1
1
1
1
1
1
1
1
1
1
1
1
1
1
1
1
1
1
1
1
1
1
1
1
1
1
1
1
1
1
1
1
1
1
1
1
1
1
1
1
1
1
1
1
1
1
1
1
1
1
1
1
1
1
1
1
1
1
1
1
1
1
1
1
1
1
1
1
1
1
1
1
1
1
1
1
1
1
1
1
1
1
1
1
1
1
1
1
1
1
1
1
1
1
1
1
1
1
1
1
1
1
1
1
1
1
1
1
1
1
1
1
1
1
0.498208
0.428186
0.470212
0.393302
0.402847
0.444556
0.420679
0.416454
0.419719
0.415554
0.442066
0.476008
0.439229
0.390182
0.428845
0.371029
0.473928
0.473844
0.422569
0.402251
0.396659
0.422631
0.462965
0.479754
0.390705
0.434943
0.463434
0.361039
0.3998
0.419068
0.458621
0.463745
0.392994
0.408618
0.374926
0.479206
0.393565
0.425067
0.424908
0.42041
0.503135
0.393394
0.43257
0.367672
0.382276
0.441535
0.390948
0.423652
0.417274
0.399921
0.428286
0.455941
0.396659
0.439684
0.38685
0.428323
0.423346
0.379545
0.375589
0.440633
0.426086
0.383763
0.418017
0.401099
0.463137
0.391225
0.393983
0.448782
0.381189
0.461609
0.429136
0.410519
0.408839
0.440483
0.401705
0.372094
0.3998
0.415858
0.404483
0.436181
0.433461
0.44558
0.420663
0.497103
0.424505
0.461609
0.40165
0.382826
0.394332
0.390625
0.347099
0.440633
0.312179
0.447954
0.423431
0.438687
0.565653
0.612993
0.643632
0.599114
0.619431
0.580981
0.566566
0.630091
0.673592
0.614986
0.681859
0.756797
0.684566
0.691881
0.677879
0.66672
1
1
1
1
1
1
0.997886
1
1
1
1
1
1
1
1
1
1
1
1
1
1
1
1
1
1
1
1
1
1
1
1
1
1
1
1
1
1
1
1
1
1
1
1
1
1
1
1
1
1
1
1
1
1
1
1
1
1
1
1
1
1
1
1
1
1
1
1
1
1
1
1
1
1
1
1
1
1
1
1
1
1
1
1
1
1
1
1
1
1
1
1
1
1
1
1
1
1
1
1
1
1
1
1
1
1
1
1
1
1
1
1
1
1
1
1
1
1
1
1
1
1
1
1
1
1
1
1
1
1
1
1
1
1
1
1
1
1
1
1
1
1
1
1
1
1
1
1
1
1
1
1
1
1
1
1
1
1
1
1
1
1
1
1
1
1
1
1
1
1
1
1
1
1
1
1
1
1
1
1
1
1
1
1
1
1
1
1
1
1
1
1
1
1
1
1
1
1
1
1
1
1
1
1
1
1
1
1
1
1
1
1
1
1
1
1
1
1
1
1
1
1
1
1
1
1
1
1
1
1
1
1
1
1
1
1
1
1
1
1
1
1
1
1
1
1
1
1
1
1
1
1
1
1
1
1
1
1
1
1
1
1
1
1
1
1
1
1
1
1
1
1
1
)
;

boundaryField
{
    inlet
    {
        type            fixedValue;
        value           uniform 1;
    }
    outlet
    {
        type            fixedValue;
        value           uniform 1;
    }
    wall
    {
        type            zeroGradient;
    }
    procBoundary0to1
    {
        type            processor;
        value           nonuniform List<scalar> 
192
(
0.52863
0.436463
0.446997
0.420663
0.428563
0.423296
0.454897
0.331129
0.47333
0.381163
0.339029
0.38643
0.378529
0.341663
0.462797
0.328496
0.41803
0.412763
0.399596
0.50493
0.381163
0.46543
0.41803
0.344296
0.683998
0.660298
0.586564
0.45753
1
1
1
0.997367
1
1
1
1
1
1
1
1
1
1
1
1
1
1
1
1
1
1
1
1
1
1
1
1
1
1
1
1
1
1
1
1
1
1
1
1
1
1
1
1
1
1
1
1
1
1
1
1
1
1
1
1
1
1
1
1
1
1
1
1
1
1
1
1
0.527528
0.448104
0.471586
0.486298
0.516789
0.438213
0.476008
0.443699
0.368247
0.37887
0.367672
0.328429
0.359299
0.34722
0.436211
0.37604
0.378985
0.448104
0.416313
0.361005
0.346771
0.444148
0.414102
0.403605
0.695756
0.719107
0.750164
0.799531
1
1
1
1
1
1
1
1
1
1
1
1
1
1
1
1
1
1
1
1
1
1
1
1
1
1
1
1
1
1
1
1
1
1
1
1
1
1
1
1
1
1
1
1
1
1
1
1
1
1
1
1
1
1
1
1
1
1
1
1
1
1
1
1
1
1
1
1
)
;
    }
    procBoundary0to2
    {
        type            processor;
        value           nonuniform List<scalar> 
192
(
0.420663
0.381163
0.41013
0.354829
0.446997
0.42593
0.428563
0.328496
0.470697
0.354829
0.404863
0.483863
0.38643
0.436463
0.346929
0.49703
0.373263
0.383796
0.404863
0.41013
0.375896
0.40223
0.38643
0.333763
0.620798
0.581297
0.597097
0.602364
1
1
1
1
1
1
1
1
1
1
1
1
1
1
1
1
1
1
1
1
1
1
1
1
1
1
1
1
1
1
1
1
1
1
1
1
1
1
1
1
1
1
1
1
1
1
1
1
1
1
1
1
1
1
1
1
1
1
1
1
1
1
1
1
1
1
1
1
0.454151
0.454038
0.376516
0.456228
0.337823
0.390738
0.354407
0.391075
0.439834
0.465907
0.416313
0.443699
0.464889
0.457994
0.400836
0.46124
0.427306
0.416454
0.367672
0.403605
0.446992
0.513382
0.380938
0.421146
0.747657
0.843728
0.785539
0.784496
1
1
1
1
1
1
1
1
1
1
1
1
1
1
1
1
1
1
1
1
1
1
1
1
1
1
1
1
1
1
1
1
1
1
1
1
1
1
1
1
1
1
1
1
1
1
1
1
1
1
1
1
1
1
1
1
1
1
1
1
1
1
1
1
1
1
1
1
)
;
    }
}


// ************************************************************************* //
