/*--------------------------------*- C++ -*----------------------------------*\
| =========                 |                                                 |
| \\      /  F ield         | OpenFOAM: The Open Source CFD Toolbox           |
|  \\    /   O peration     | Version:  2506                                  |
|   \\  /    A nd           | Website:  www.openfoam.com                      |
|    \\/     M anipulation  |                                                 |
\*---------------------------------------------------------------------------*/
FoamFile
{
    version     2.0;
    format      ascii;
    arch        "LSB;label=32;scalar=64";
    class       surfaceScalarField;
    location    "0.003";
    object      phi;
}
// * * * * * * * * * * * * * * * * * * * * * * * * * * * * * * * * * * * * * //

dimensions      [0 3 -1 0 0 0 0];

oriented        oriented;

internalField   nonuniform List<scalar> 
1200
(
0.00252857
5.88072e-06
-6.31209e-05
0.00251475
5.9224e-06
-5.80561e-05
0.00255564
-3.81745e-06
-3.19066e-05
0.00256865
1.3924e-05
1.07834e-05
0.00258034
-1.01285e-05
-2.40619e-05
0.00262406
-3.80232e-05
-4.896e-05
0.00263889
-2.38997e-05
-1.05744e-05
0.00265703
-1.14843e-05
-2.07341e-05
0.00269538
-1.93858e-05
-4.48159e-05
0.00270629
-1.90223e-05
-1.4589e-05
0.00269792
6.99261e-06
-1.19485e-05
0.00270344
8.0124e-06
-2.98977e-05
0.00271674
-4.27888e-06
-2.91196e-05
0.00270442
-2.88479e-06
-8.85078e-06
0.00264446
-9.24777e-06
3.78005e-05
0.0026121
5.18521e-06
8.71542e-06
0.00263461
2.61682e-05
-2.85263e-05
0.00258759
3.69099e-05
5.30031e-05
0.00252008
2.29138e-05
8.59608e-05
0.00251613
-7.90933e-06
5.65035e-05
0.00255136
-3.01412e-05
-5.31415e-06
0.00261102
-3.71972e-05
-7.73125e-05
0.00263372
-3.95773e-06
-8.80535e-05
0.0025918
1.16231e-05
-5.16388e-05
0.00253279
1.38049e-05
-1.32721e-05
0.00251579
2.74682e-05
4.24877e-06
0.00248215
2.95381e-05
5.10875e-05
0.00241456
3.78648e-05
5.69283e-05
0.00233844
5.16937e-05
4.83677e-05
0.00232845
1.19739e-05
8.92163e-05
0.00239922
-4.72141e-05
0.000118043
-4.08146e-05
2.54388e-05
0.00251838
2.23185e-05
-2.50242e-05
0.00247515
-2.30826e-05
4.59442e-06
0.00253432
-3.27544e-05
5.43648e-06
0.00263495
-2.41065e-05
1.4378e-05
0.00267261
-3.56747e-05
-2.39196e-05
0.00267172
-3.44815e-05
-6.18459e-05
0.00265788
-1.21987e-05
-2.83405e-05
0.00265942
-3.43863e-06
-2.65477e-05
0.00262262
5.36255e-06
-2.45005e-05
0.00257052
-9.64787e-06
9.61173e-06
0.00262585
-3.80255e-05
-1.19819e-05
0.00271188
-4.47471e-05
-3.6249e-05
0.00273201
-2.54006e-05
-2.01706e-05
0.00271089
-7.31031e-06
1.05334e-06
0.00262659
1.60406e-05
2.50997e-05
0.00256213
5.10254e-05
-4.11861e-06
0.0026283
1.67275e-05
-3.34785e-05
0.00267985
-2.08718e-05
5.27686e-05
0.00267283
-3.31692e-06
7.6213e-05
0.00269373
-4.51103e-06
1.36314e-05
0.00266393
-1.34352e-06
1.93614e-06
0.00258458
4.32102e-07
-2.26758e-05
0.0025979
-2.75555e-05
-5.22373e-05
0.00261354
-2.20172e-05
-3.98154e-05
0.00257477
3.20698e-05
-2.24417e-05
0.00259277
5.36218e-05
-1.68568e-05
0.0026286
4.27212e-05
1.11041e-05
0.00268891
1.84046e-05
8.3339e-06
0.00274398
7.31671e-06
2.45199e-05
0.00270069
1.59651e-05
0.000115668
0.00261453
3.20211e-05
0.000110253
4.78875e-05
-6.30237e-06
0.00253035
2.70852e-05
-1.27299e-05
0.00240872
-1.3112e-05
3.4277e-05
0.00243922
-6.43688e-05
1.30876e-05
0.00257812
-8.18681e-05
-7.23959e-06
0.00262699
-5.97015e-05
-2.75809e-05
0.00261163
-3.03291e-05
-3.08398e-05
0.00263297
-1.85415e-05
-2.44161e-05
0.00266598
-1.13848e-05
-3.53052e-05
0.0027025
-2.35903e-05
-3.43155e-05
0.00272158
-3.88968e-05
-1.77623e-05
0.00269852
-2.24986e-05
-9.96982e-06
0.00267361
-1.90809e-05
-2.75924e-05
0.00263757
-1.0598e-06
-2.39346e-05
0.00254652
2.69429e-05
2.90625e-05
0.00251501
1.41957e-05
1.09151e-05
0.00263674
-1.39659e-05
-5.10942e-05
0.00271867
-3.00589e-05
-1.18197e-05
0.00269216
-1.89911e-05
4.56112e-05
0.00267291
7.35078e-07
4.15169e-05
0.00266685
1.799e-05
2.47444e-05
0.00259111
6.21016e-05
1.60013e-05
0.00248534
5.39118e-05
-7.19021e-06
0.00240181
4.83454e-06
-1.79476e-05
0.00233055
5.27664e-06
6.31774e-06
0.00236315
1.20144e-05
-3.51796e-06
0.00248822
1.39555e-06
-2.90371e-05
0.00262506
-1.22063e-05
-2.61645e-05
0.00272133
-3.04546e-05
-8.39298e-06
0.00271933
1.65814e-05
1.92934e-05
0.00261493
8.74507e-05
9.12951e-05
0.00253751
9.1189e-05
9.10681e-05
6.43686e-05
-1.20976e-05
0.0027356
-3.02607e-05
-2.65905e-05
0.00263235
3.45776e-05
-2.06472e-05
0.00249176
5.59839e-06
1.95177e-05
0.0024981
-8.13378e-05
8.45344e-06
0.002553
-9.14891e-05
-1.47179e-05
0.00260384
-7.72833e-05
-3.16944e-06
0.00264654
-2.62937e-05
-1.82176e-05
0.00264519
2.78358e-05
-3.70245e-05
0.00260923
1.8112e-05
-3.75698e-05
0.00259726
-3.39382e-05
-4.52242e-05
0.00261611
-5.9522e-05
-1.77029e-05
0.00252534
1.21022e-05
2.92097e-05
0.00241051
6.07695e-05
3.30879e-05
0.00236739
3.94971e-05
3.7548e-05
0.00235583
1.29806e-05
1.02973e-05
0.00235963
-1.93779e-05
-1.88157e-05
0.00234674
-3.80974e-05
1.11636e-05
0.00235291
-1.89032e-05
5.02622e-06
0.00237816
-7.33539e-08
1.45509e-05
0.00240003
8.57594e-06
3.79459e-05
0.00240363
4.70674e-05
2.1327e-06
0.00236221
5.78141e-05
-1.48054e-05
0.00230415
2.11301e-05
7.36036e-06
0.00229373
3.21412e-07
1.99808e-05
0.00237657
-2.51934e-05
-9.80666e-06
0.00249714
-5.40607e-05
-2.40192e-05
0.00261054
-5.18478e-05
-3.13688e-05
0.00255145
3.10751e-05
-5.8233e-06
0.00241918
0.00010638
3.38096e-05
0.00245282
8.3963e-05
2.02451e-05
0.00254855
4.64494e-05
2.15105e-05
-1.17419e-05
1.39539e-05
0.00280537
3.254e-05
-2.07024e-05
0.00278874
5.52202e-05
-3.83894e-05
0.00265991
5.25557e-05
2.69716e-05
0.0025126
-1.07721e-05
4.08837e-05
0.00249338
-8.3311e-05
-1.49636e-06
0.0024994
-7.26933e-05
-1.14836e-05
0.00257603
-3.46889e-05
-3.68816e-05
0.00264382
2.5669e-06
-9.65977e-06
0.00263961
2.65992e-05
-1.33561e-05
0.00252611
4.49276e-05
-3.42306e-05
0.0023151
5.53072e-05
2.19913e-05
0.00223687
4.09187e-05
3.16643e-05
0.00231828
-1.18837e-05
1.42181e-05
0.00240539
-3.84021e-05
1.98998e-05
0.00245445
-5.47323e-06
-1.24178e-05
0.00244052
3.92996e-06
-1.13726e-06
0.00237695
-6.03363e-06
3.18462e-05
0.00235747
-9.84907e-07
-4.12837e-06
0.00232633
2.30703e-05
6.59324e-06
0.00229471
2.36275e-05
1.99161e-05
0.00238349
-2.41903e-05
-8.05109e-06
0.0025205
-3.7228e-05
-1.38336e-05
0.00258518
-3.1157e-05
1.01765e-05
0.00257835
-1.18648e-05
1.02737e-05
0.00257456
-2.43919e-05
-6.79562e-06
0.00266293
-0.000115931
9.53711e-06
0.00277309
-0.000104905
-6.16207e-06
0.00280352
3.19927e-05
-2.21826e-05
0.00277621
0.000110052
2.67186e-05
0.00279316
8.53912e-05
4.53697e-06
0.00285971
3.36063e-05
-4.1773e-05
4.98142e-06
-5.06423e-06
0.00270884
4.58303e-05
-4.824e-05
0.0027619
3.66327e-05
-3.00338e-05
0.0027772
2.01928e-06
1.5132e-05
0.00274792
-1.7069e-05
1.02546e-05
0.00261805
-1.76968e-05
2.51177e-05
0.00253253
-2.33193e-05
1.79804e-05
0.00260072
-3.05541e-05
-3.01547e-05
0.00265434
-1.60643e-05
1.34238e-05
0.00265522
6.17445e-06
2.66231e-05
0.00267748
1.67064e-05
-2.96407e-05
0.00268594
2.31672e-05
-1.37348e-05
0.00267316
3.9156e-05
2.4135e-05
0.00262464
2.7347e-05
3.11149e-05
0.00257629
-7.05975e-06
1.51482e-05
0.00260559
-1.69336e-05
-2.3626e-05
0.00256134
2.23021e-05
1.39349e-05
0.00245566
5.36034e-05
2.52226e-05
0.00240936
3.50228e-05
-2.67837e-05
0.002389
1.68941e-05
6.98559e-06
0.00241649
-4.22956e-06
2.63162e-05
0.00247214
-5.72314e-05
2.54466e-05
0.00255585
-8.5979e-05
3.70307e-05
0.00263392
-5.10557e-05
-1.19586e-05
0.00270273
-4.1682e-05
-5.50454e-05
0.00272314
-7.54406e-05
9.53658e-06
0.00260691
-4.17372e-05
7.80749e-05
0.00247399
5.00661e-06
5.31217e-05
0.00249518
-7.39573e-06
2.48242e-05
0.00262425
2.28867e-05
-4.30954e-05
0.00272061
6.31537e-05
-8.59002e-05
0.00270934
5.08163e-05
-5.09648e-05
3.06819e-05
-2.42513e-05
0.00262809
4.11033e-05
-6.5544e-05
0.00271914
2.76965e-05
-5.62691e-05
0.00268021
2.38012e-05
-2.95629e-06
0.00260285
1.82558e-05
4.96176e-06
0.00252449
5.7085e-06
2.11005e-05
0.002494
-1.83365e-05
2.34425e-05
0.00260152
-5.98037e-05
-3.61027e-05
0.00267889
-5.34978e-05
3.7662e-06
0.00266603
-5.2462e-06
4.00547e-05
0.00264962
2.17734e-05
-1.11622e-05
0.00262777
2.24659e-05
-4.29759e-06
0.00262312
2.16138e-05
4.97467e-05
0.00261073
3.80292e-05
4.57735e-05
0.00258969
2.88211e-05
-1.31489e-05
0.0026101
-1.51484e-05
-4.4805e-05
0.00266586
-2.02234e-05
-3.89784e-05
0.00272275
-2.45059e-06
-7.4849e-06
0.00275463
-6.04346e-07
-3.56087e-06
0.0027526
-4.71128e-06
1.98259e-05
0.00273587
-1.3247e-05
5.16216e-05
0.00267078
4.07808e-06
5.23184e-05
0.00259181
-9.43838e-07
3.89219e-05
0.00264479
-6.99057e-05
-1.91611e-05
0.00270426
-7.33771e-05
-5.48033e-05
0.00258388
-1.57405e-05
4.18537e-05
0.002474
1.34188e-05
0.000108226
0.00249196
5.59511e-06
5.18944e-05
0.00248238
-1.24338e-05
5.12867e-06
0.00256303
-3.43685e-05
-6.33101e-05
0.00267692
-7.03043e-06
-9.32628e-05
0.00262234
5.81411e-05
-2.49003e-05
6.38892e-05
-7.89003e-06
0.00260471
-4.70828e-05
0.00269856
-5.71434e-05
0.00273099
-1.89574e-05
0.00274982
-1.73521e-05
0.00276705
-2.76545e-05
0.00276451
-2.08033e-05
0.00274411
-3.0266e-05
0.00271023
-4.47383e-06
0.00267752
3.62492e-05
0.0026427
3.887e-05
0.00261719
3.43307e-05
0.00262821
5.03256e-05
0.00267175
3.8132e-05
0.00269389
1.02061e-05
0.00270572
-4.53555e-05
0.00273891
-8.01407e-05
0.00274952
-2.97771e-05
0.00273717
1.04275e-05
0.00272385
1.7946e-05
0.00268706
3.42182e-05
0.00265899
7.58481e-05
0.00268848
2.94122e-05
0.00259814
-1.26408e-05
0.00245448
1.87756e-05
0.00243106
4.93567e-05
0.00246061
8.69651e-05
0.00249181
4.65089e-05
0.00247584
-2.85186e-06
0.00241715
-3.98951e-05
0.00237923
-7.37079e-05
0.00242519
-5.16482e-05
-2.59645e-05
0.00261774
1.39557e-05
0.00244605
6.36346e-05
0.00236241
3.65614e-05
0.00238317
1.79088e-05
0.00245276
-2.44743e-05
0.00249913
-5.55602e-05
0.00254854
-2.5661e-05
0.00258819
-1.61382e-06
0.00260455
-1.37972e-06
0.00263625
5.48945e-06
0.00264292
1.1165e-05
0.00262178
-2.51604e-06
0.00258971
-5.52262e-06
0.00254629
8.26692e-06
0.00256026
-9.07784e-06
0.00253074
-1.64979e-05
0.00243928
1.37457e-05
0.00243146
3.94194e-05
0.00247439
8.52637e-06
0.00255796
-4.91013e-05
0.00257809
-3.24277e-05
0.00248108
2.18275e-05
0.00238246
2.84018e-05
0.0023096
2.48384e-05
0.0022702
1.14953e-05
0.00225569
7.70217e-06
0.00232265
-1.24325e-05
0.00239565
-1.90184e-05
0.00237546
3.92456e-05
0.00241107
3.5461e-05
0.00261616
-6.83105e-05
-8.26415e-05
0.00230652
2.79893e-05
0.00233564
2.42111e-05
0.00240711
-2.69527e-05
0.00251852
-4.43109e-05
0.00255104
-2.25143e-05
0.00250586
-4.22909e-06
0.00254367
-2.53728e-05
0.00256302
-1.94157e-05
0.00254204
1.37948e-05
0.00261518
-2.71824e-05
0.0026667
-5.09569e-05
0.00266496
-4.34155e-05
0.00267278
-2.85144e-05
0.00264134
1.90975e-05
0.0025905
1.30264e-05
0.00251577
2.13239e-06
0.00244961
2.69017e-05
0.00254447
-1.62094e-05
0.00262204
-2.00686e-05
0.00256522
8.2906e-06
0.00252001
8.16256e-06
0.00248973
9.26696e-06
0.00245487
9.04862e-06
0.0024096
3.58916e-05
0.00234443
4.71418e-05
0.00231074
2.29107e-05
0.00230948
6.13491e-06
0.00228589
7.98539e-06
0.00234121
7.53015e-06
0.00251494
-4.83718e-06
0.00253018
1.21149e-05
2.89018e-05
0.00235568
1.89008e-05
0.00245622
-5.94007e-05
0.0024998
-5.96034e-05
0.00252465
-6.20472e-05
0.00256349
-4.1577e-05
0.00260243
-2.66517e-06
0.00264138
-4.85251e-06
0.00267208
-1.32727e-05
0.00270092
-2.87304e-05
0.00271909
-7.49773e-05
0.00267749
-3.70916e-05
0.00252642
3.91441e-05
0.00237658
5.61391e-05
0.00238409
3.38345e-05
0.00237289
1.84144e-05
0.00228666
9.08269e-06
0.00233146
-3.53914e-06
0.00244149
-4.66448e-05
0.00246874
-3.26793e-05
0.0024405
1.64869e-05
0.00237776
5.57616e-05
0.00230581
5.08194e-05
0.00224177
2.67535e-05
0.00222828
2.13234e-05
0.00225364
9.75526e-06
0.00227729
4.61012e-06
0.00231363
-1.73991e-05
0.0023231
-5.23295e-06
0.00231986
2.4971e-05
0.00237104
1.84987e-05
0.00242689
2.16009e-05
7.0258e-05
0.00253772
-1.58959e-06
0.00240989
1.59118e-05
0.00235192
-8.18727e-06
0.00234301
-4.85263e-05
0.00239131
-7.52209e-05
0.0025421
-8.48141e-05
0.00262906
-2.21266e-05
0.00257392
4.36511e-05
0.00244789
3.37371e-05
0.00229321
-1.53188e-05
0.00222242
-1.24964e-05
0.00224913
1.65062e-05
0.00227237
4.21989e-05
0.00232427
2.57815e-05
0.00237602
-2.91119e-06
0.00237872
-1.07522e-05
0.00239616
-1.66596e-05
0.00235392
-2.19637e-05
0.00232931
-1.42904e-05
0.00237606
-3.30769e-06
0.00238528
4.09757e-05
0.00236029
5.61652e-05
0.00234493
2.39721e-05
0.00237062
-1.72182e-05
0.00240015
-2.8446e-05
0.00242749
-2.03225e-05
0.00241612
-2.68567e-05
0.00234362
5.23905e-05
0.00230864
0.000107242
0.00230661
4.53181e-05
0.00238523
-3.4677e-05
-3.40077e-05
0.002495
2.04458e-05
0.00240884
5.7927e-05
0.00237238
2.2019e-05
0.00238523
-4.72457e-05
0.00238507
-5.64088e-05
0.00236075
-4.89728e-05
0.00233733
-8.89862e-06
0.0024391
1.30985e-05
0.00244197
5.55138e-05
0.00227602
6.06638e-05
0.00220872
2.35798e-05
0.00220147
2.8167e-05
0.00224843
-2.25509e-06
0.00235527
-3.82405e-05
0.00237521
-1.43907e-05
0.00232546
1.05504e-05
0.00231528
-2.20743e-05
0.0022915
-1.48724e-05
0.00228036
1.99795e-05
0.00226959
2.6286e-05
0.00228092
9.32372e-06
0.00231873
1.05875e-05
0.00241644
-5.26047e-05
0.00246742
-8.02856e-05
0.00243913
-9.28533e-06
0.00252179
-4.81283e-05
0.00253449
-4.28089e-05
0.00246407
7.49743e-05
0.00254456
5.20441e-05
0.00257865
1.75529e-05
0.00250237
2.50938e-06
-2.09406e-05
0.00230908
2.91764e-05
0.00235559
9.28959e-06
0.00238603
-5.37373e-06
0.00233156
-2.6548e-05
0.00231523
-2.81487e-05
0.00232607
-2.29917e-05
0.00233174
-3.25981e-05
0.00248035
-2.23131e-05
0.00262343
1.26854e-05
0.00256772
3.47019e-05
0.00246731
4.3866e-05
0.00243804
6.7662e-05
0.00245924
1.78159e-05
0.00247441
-3.72425e-05
0.00246074
-3.2201e-05
0.00251279
-2.74392e-05
0.00246977
1.47041e-05
0.00231113
5.92052e-05
0.00228855
3.66884e-05
0.00234418
3.04562e-06
0.00241475
-4.10215e-05
0.0025264
-6.42438e-05
0.00252568
-5.20258e-05
0.00245582
-4.24066e-05
0.0025392
-5.00265e-05
0.0025455
-9.52365e-06
0.00249215
1.45916e-07
0.00263585
-8.36138e-06
0.00270822
1.28473e-06
0.00260626
4.07448e-05
0.00244143
7.79901e-05
4.90066e-05
0.00239198
5.32724e-05
0.00234256
2.44714e-05
0.00232923
5.93273e-06
0.00229388
-3.25492e-06
0.00231709
-4.11843e-05
0.00237484
-5.44404e-05
0.0023976
-4.96639e-05
0.00252167
-5.67165e-05
0.00262701
-7.77696e-06
0.00254158
5.97796e-05
0.00244924
5.6959e-05
0.0025024
2.75007e-05
0.00252291
4.60085e-05
0.00245544
4.06075e-05
0.00241476
-2.47673e-05
0.00240675
-4.75136e-05
0.00245639
-2.28345e-05
0.00247718
1.24637e-05
0.00249704
-4.70449e-06
0.00254144
-2.49401e-05
0.00250893
3.11321e-05
0.00250126
-9.39272e-06
0.00247723
-5.90274e-05
0.00236316
-1.02605e-06
0.00234032
-6.93946e-06
0.00240681
-1.63473e-05
0.00241668
-8.63532e-06
0.00241933
-1.70897e-05
0.00242794
-1.25152e-05
0.00240946
2.32115e-05
0.00244002
4.22293e-05
4.5308e-05
0.00250942
0.00251998
0.00254109
0.00253473
0.00246721
0.00240273
0.00232902
0.00227881
0.00230573
0.00237257
0.00241326
0.00244023
0.00250662
0.00256919
0.00251862
0.00244746
0.00245527
0.00246004
0.00242092
0.00241751
0.00253822
0.00253373
0.00242625
0.00243208
0.00242095
0.0024021
0.00238982
0.00241942
0.00244341
0.00241922
0.00242405
)
;

boundaryField
{
    wall
    {
        type            calculated;
        value           uniform 0;
    }
    outlet
    {
        type            cyclic;
        value           nonuniform List<scalar> 
16
(
0.00249665
0.00256496
0.0025729
0.00265991
0.00285121
0.00266703
0.00254013
0.00251079
0.00273516
0.00237264
0.00236587
0.00253179
0.00250949
0.00233308
0.00244855
0.00246618
)
;
    }
    inlet
    {
        type            cyclic;
        value           nonuniform List<scalar> 
16
(
-0.00249665
-0.00256496
-0.0025729
-0.00265991
-0.00285121
-0.00266703
-0.00254013
-0.00251079
-0.00273516
-0.00237264
-0.00236587
-0.00253179
-0.00250949
-0.00233308
-0.00244855
-0.00246618
)
;
    }
    procBoundary2to1
    {
        type            processor;
        value           nonuniform List<scalar> 
256
(
2.53213e-05
6.59486e-05
-5.16547e-06
-3.77192e-05
2.25094e-05
4.32561e-05
1.96435e-05
1.40783e-05
2.58555e-05
2.2703e-05
1.33275e-05
1.63609e-05
2.0103e-05
2.40553e-05
3.13991e-05
1.846e-05
-2.01516e-05
-4.28903e-05
-4.13667e-05
-4.46395e-05
2.2923e-07
5.48425e-05
6.93145e-05
8.19359e-05
5.84754e-05
-1.47184e-05
-4.69835e-05
-2.71975e-05
-2.39479e-05
-9.11978e-05
-0.000141596
-8.20576e-05
5.51693e-05
6.76424e-05
-3.5678e-05
-7.69759e-05
1.18066e-05
5.91918e-05
3.04814e-05
1.69641e-05
3.65532e-05
3.31083e-05
1.67876e-06
2.97483e-06
2.11577e-05
2.45003e-05
3.39128e-05
2.27304e-05
-2.32434e-05
-4.65377e-05
-4.29607e-05
-3.79378e-05
-9.34848e-07
6.44035e-05
6.25099e-05
5.78166e-05
4.29488e-05
-2.72951e-05
-6.01173e-05
-4.91819e-05
-3.52193e-05
-7.63704e-05
-0.000103324
-3.28293e-05
5.05098e-05
7.73791e-05
-1.19641e-05
-7.39027e-05
2.73466e-06
4.20489e-05
9.42435e-06
1.02373e-05
2.67502e-05
2.79275e-05
1.75041e-05
2.68355e-05
3.56379e-05
2.7734e-05
2.24386e-05
-5.64485e-06
-2.33227e-05
-2.09841e-05
-2.63207e-05
-4.1185e-05
-3.70585e-06
5.94813e-05
6.90841e-05
3.76498e-05
-9.0236e-06
-4.38081e-05
-5.57455e-05
-3.90235e-05
-2.65527e-05
-5.83814e-05
-7.28205e-05
-3.97671e-05
8.24342e-06
7.62128e-05
5.10995e-05
-1.53209e-05
-8.3967e-06
-7.1337e-07
-1.67285e-05
-8.54103e-07
3.18314e-05
5.22337e-05
3.58788e-05
3.03767e-05
1.99184e-05
-6.9853e-06
2.4804e-06
2.04185e-05
9.76719e-06
-1.12773e-05
-3.89953e-05
-5.0404e-05
9.29772e-06
5.23252e-05
3.44043e-05
-4.60323e-06
-3.58288e-05
-4.10964e-05
-4.23863e-05
3.39011e-06
8.65165e-06
-5.03894e-05
-7.2503e-05
-4.92029e-05
3.73955e-06
3.43824e-05
5.49013e-05
3.58602e-05
1.25394e-05
8.64671e-07
-3.13448e-05
-3.28661e-05
9.0824e-06
6.88656e-05
7.41896e-05
1.77471e-05
-2.29783e-05
-2.91083e-05
-1.81847e-05
-8.23957e-06
-3.48128e-07
5.69148e-06
1.40465e-06
-3.3473e-06
-9.47354e-06
-2.81329e-05
-2.25675e-05
8.74055e-06
9.78546e-06
-3.60341e-05
-5.09397e-05
-9.17085e-06
-3.07911e-06
-2.29162e-05
-1.19353e-05
-3.1553e-06
-6.85737e-06
-4.44304e-06
2.01058e-05
2.53193e-05
3.91362e-05
1.81671e-05
-4.21689e-05
-4.84142e-05
-7.07259e-06
3.56027e-05
3.74152e-05
-9.59875e-06
-2.18262e-05
1.85888e-06
5.7862e-06
1.19499e-05
2.08123e-05
3.7078e-05
1.95503e-05
-2.59479e-05
-4.80551e-05
-7.19901e-05
-4.62144e-05
1.60547e-05
2.11013e-05
-3.60365e-05
-3.01153e-05
-6.62576e-06
1.19549e-06
1.17713e-05
4.50323e-05
4.08601e-05
-1.76838e-05
-2.58447e-05
2.01018e-05
3.70725e-05
3.38554e-05
2.06385e-06
-4.21666e-05
-4.37049e-05
-1.57727e-05
2.25044e-05
2.68536e-05
-2.75627e-05
-4.40611e-05
-1.69453e-06
2.2613e-05
2.57393e-05
6.65202e-06
7.31264e-06
3.80505e-06
-2.58722e-05
-4.85369e-05
-4.49886e-05
-1.49664e-05
2.70205e-05
1.88338e-05
-5.35051e-05
-7.04449e-05
9.49029e-06
3.99179e-05
4.9554e-05
7.21611e-05
5.68887e-05
-5.73372e-06
-9.01122e-06
1.03259e-05
1.67747e-05
1.61404e-05
5.00255e-06
-9.13849e-06
-1.51402e-05
-8.79149e-06
1.7728e-05
1.36417e-05
-3.97328e-05
-4.36398e-05
-3.52761e-06
1.83783e-05
2.67329e-05
1.67145e-05
1.31611e-06
-9.33271e-06
-1.06814e-05
-4.36924e-05
-5.98452e-05
3.30726e-05
5.15011e-05
-4.16734e-05
-0.000103098
-7.21099e-05
6.38604e-06
6.42175e-05
0.000104593
6.38336e-05
4.25608e-06
)
;
    }
    procBoundary2to3
    {
        type            processor;
        value           nonuniform List<scalar> 
256
(
4.03428e-05
4.99974e-05
1.51712e-05
-2.78834e-05
-6.91785e-05
-3.97716e-05
-3.432e-05
-5.87703e-05
-5.9796e-05
-5.17834e-05
-2.9775e-05
-6.24135e-06
8.47201e-06
2.62955e-05
3.29084e-05
5.47344e-05
4.91891e-05
2.14099e-05
3.44953e-05
2.20398e-05
6.9873e-06
-2.13086e-06
-1.78404e-05
-3.61909e-06
1.46321e-05
1.10653e-05
-3.44768e-06
2.94928e-06
2.9315e-05
1.814e-05
-1.87338e-05
-1.09188e-05
2.70595e-05
1.48965e-05
-2.52089e-06
-3.48047e-05
-5.83993e-05
-6.79993e-05
-6.6444e-05
-2.8088e-05
-1.86949e-05
-3.08578e-05
-1.37868e-06
6.38503e-06
-5.0005e-06
2.16671e-05
5.38312e-05
5.19815e-05
1.95264e-05
1.35383e-05
2.72408e-05
1.30559e-05
6.55471e-06
2.01726e-05
1.97203e-06
-5.59509e-06
7.08275e-06
1.61883e-06
-6.20199e-06
4.92165e-06
9.18621e-07
-1.77674e-05
1.45868e-05
3.96951e-05
6.54327e-06
1.7346e-05
2.1596e-06
-1.43532e-05
-4.7357e-05
-7.13436e-05
-8.38831e-05
-7.21468e-05
-2.06285e-05
1.1854e-05
1.77701e-05
4.09146e-05
4.12516e-05
6.82165e-06
1.67237e-05
2.81842e-05
-2.61721e-05
-3.3984e-05
2.68687e-05
4.47967e-05
3.11363e-05
2.3212e-05
2.83885e-05
3.43684e-05
8.51585e-06
-3.43878e-05
-3.89713e-05
-4.64175e-06
5.09339e-06
1.6772e-05
2.5734e-05
7.57239e-06
-1.20342e-05
3.18646e-05
2.60773e-05
3.84303e-06
-2.93709e-05
-7.18175e-05
-8.79004e-05
-3.88061e-05
2.59913e-05
4.97952e-05
2.84922e-05
2.51385e-05
2.37864e-05
-6.29615e-06
-2.01323e-05
-1.6779e-06
6.8422e-06
2.25891e-05
2.0774e-05
1.09911e-05
7.69588e-06
4.84226e-06
2.5497e-05
3.28305e-05
-1.13691e-06
-2.64202e-05
-1.05461e-05
9.05979e-06
-1.34877e-05
-4.54369e-06
-8.31893e-07
-2.83325e-05
-2.82403e-05
5.74792e-06
3.32341e-05
2.67439e-05
-2.01418e-05
-2.30091e-05
-2.66849e-05
-8.0877e-05
-3.80091e-05
5.57441e-05
5.32157e-05
2.72536e-05
1.17064e-05
-2.29172e-05
-2.08727e-05
2.73045e-05
4.74462e-05
1.25609e-05
-1.65419e-05
1.09353e-06
1.22729e-05
-6.06564e-06
-1.09548e-05
2.23599e-05
2.33489e-06
-4.53241e-05
-2.90733e-06
2.56545e-05
1.42452e-06
-1.78267e-06
-2.68489e-06
-2.52533e-05
-3.29681e-05
-2.79063e-05
1.20859e-05
4.40233e-05
1.31866e-05
-1.88384e-05
-1.21253e-05
-9.97732e-05
-7.363e-05
5.20306e-05
6.63838e-05
1.39105e-05
-1.01561e-05
-1.01705e-06
7.85347e-06
-1.22349e-07
3.14637e-05
5.77756e-05
1.2856e-05
-6.06533e-06
5.21865e-06
2.09362e-07
-1.18139e-05
-2.30676e-05
-3.31044e-05
3.31757e-05
6.35175e-05
-3.55434e-05
-6.47043e-05
-7.13209e-06
3.83861e-05
1.41487e-05
-3.30716e-05
-2.20346e-05
-9.32833e-07
1.70212e-05
1.09233e-05
-2.85438e-06
-4.17973e-05
-8.59008e-05
-4.48193e-05
4.91851e-05
7.49536e-05
3.67512e-05
-2.93458e-06
-2.35244e-05
-1.15603e-05
-1.08975e-05
-1.95847e-05
2.23884e-05
4.13647e-05
3.52055e-05
1.26691e-05
-8.25071e-06
1.18664e-05
1.78911e-05
2.16033e-05
4.85612e-05
5.07991e-05
1.12068e-05
-5.81198e-05
-5.72431e-05
-1.97052e-05
-1.27186e-05
-3.70543e-05
-4.32315e-05
-3.41341e-05
-1.42458e-05
-1.32023e-06
-1.07585e-05
-6.22299e-06
-1.09761e-05
1.54816e-06
3.18125e-05
5.05961e-05
5.08619e-05
1.77474e-05
-1.17517e-05
-1.95525e-05
-5.65026e-05
-6.04186e-05
1.81182e-05
5.2361e-05
1.26969e-05
-1.37365e-05
2.45088e-05
3.58128e-05
1.19198e-05
5.355e-05
8.94638e-05
5.0155e-05
-4.95404e-05
-7.63994e-05
-2.6306e-05
-1.42476e-05
-2.27904e-05
)
;
    }
}


// ************************************************************************* //
