/*--------------------------------*- C++ -*----------------------------------*\
| =========                 |                                                 |
| \\      /  F ield         | OpenFOAM: The Open Source CFD Toolbox           |
|  \\    /   O peration     | Version:  2506                                  |
|   \\  /    A nd           | Website:  www.openfoam.com                      |
|    \\/     M anipulation  |                                                 |
\*---------------------------------------------------------------------------*/
FoamFile
{
    version     2.0;
    format      ascii;
    arch        "LSB;label=32;scalar=64";
    class       volScalarField;
    location    "0.007";
    object      p;
}
// * * * * * * * * * * * * * * * * * * * * * * * * * * * * * * * * * * * * * //

dimensions      [0 2 -2 0 0 0 0];

internalField   nonuniform List<scalar> 
512
(
-0.322586
0.724231
1.26401
0.969103
-0.078513
-0.928672
-0.655471
-0.0848478
-0.375366
-1.06375
-0.974358
-0.241081
-0.0178429
-0.278596
-0.332395
0.221456
0.694608
0.75376
0.566844
0.381242
0.878606
1.29167
1.51648
1.70296
1.75331
1.66717
0.719412
-0.0904401
0.166525
0.204263
-0.200911
-0.708794
-0.367365
0.889791
1.15195
0.889661
0.0402679
-1.01614
-0.786164
-0.242936
-0.437846
-0.804631
-0.671376
-0.236517
-0.0379218
-0.182842
-0.0800326
0.43691
0.85598
0.922027
0.879215
0.525423
0.366833
0.882627
1.35235
1.47264
1.68521
1.66801
0.92108
0.53287
0.51379
0.203897
-0.699202
-1.42713
-0.219839
1.05995
0.976147
0.624598
-0.0634549
-0.847799
-0.659081
-0.217542
-0.441958
-0.946964
-1.13524
-0.447297
0.354825
0.27649
0.171319
0.533619
0.703801
0.936185
0.660226
0.412632
1.05203
1.37261
1.29509
0.929989
1.04806
1.52011
1.17359
0.889614
0.811897
0.386106
-0.684462
-1.50656
-0.13686
0.774208
1.00413
0.644324
0.0997575
-0.586561
-0.370655
-0.132495
-0.991001
-1.76918
-1.25636
-0.12596
0.0834735
-0.0375056
0.335724
0.636328
0.467967
0.421094
0.576769
1.10151
1.29571
1.2339
0.932016
0.606406
0.976883
1.12888
0.687662
0.560086
0.989517
0.906805
-0.0393019
-0.715211
-0.00137626
0.48182
0.909089
0.649952
0.065082
0.226318
0.261362
-0.79522
-1.93773
-1.40989
-0.373385
-0.0550416
-0.209727
-0.107226
0.401131
0.584852
0.167129
0.0671684
0.88617
1.38285
1.25863
1.11618
0.850609
0.48987
0.725034
0.996852
0.675581
0.350304
0.83851
1.08706
0.669921
0.210358
-0.037231
0.6319
1.13116
0.80156
0.596553
0.487228
-0.115949
-1.59578
-2.41353
-1.35118
-0.231956
-0.0931977
-0.432789
-0.338634
0.155552
0.411358
0.523505
0.661692
0.999875
1.20342
1.04537
0.996785
0.804277
0.353367
0.263463
0.911962
1.26647
0.783027
0.464959
1.09956
1.12855
0.267803
0.28567
0.691422
1.17074
0.774727
0.0326402
-0.249987
-0.419452
-1.45942
-2.38874
-1.53979
-0.366755
-0.149357
-0.518849
-0.416094
0.325825
0.762666
0.58756
0.56822
0.958358
1.15324
0.689309
0.711695
0.555708
0.255609
0.73441
1.2123
1.17614
0.388655
0.14332
1.37667
1.51589
0.568191
-0.0105837
0.543797
1.59458
0.933474
-0.0457699
-0.312547
-0.161651
-0.799152
-1.94647
-1.763
-0.552052
-0.141621
-0.499339
-0.367559
0.45739
0.812812
0.526901
0.654409
1.27262
1.41621
0.512342
0.0759852
0.0687453
0.236237
1.10554
1.80814
1.23029
0.200269
0.0216228
0.888111
1.35221
0.710473
0.0396726
0.826801
1.11396
0.850389
-0.0148843
-0.749728
-0.208541
0.251537
-0.35418
-1.13416
-1.14348
-0.418449
-0.211116
-0.394148
-0.0252736
0.645118
0.808792
0.461605
0.624422
1.0527
1.23478
1.00609
1.01819
1.52919
1.53982
0.515445
0.0921927
0.310152
0.801981
0.456044
-0.134527
-0.492657
0.00531094
0.996744
0.838054
0.46475
-0.224669
-0.704625
-0.076609
0.358751
-0.342646
-1.08643
-1.20208
-0.712097
-0.307625
-0.224322
-0.0367093
0.629953
1.21837
1.09269
0.730653
0.503718
0.867605
0.898352
0.774047
1.31873
1.48664
0.739972
0.487513
0.752113
0.848597
0.33755
-0.360193
-0.877479
-0.0274064
0.976559
0.858906
0.392343
-0.154304
-0.654155
0.0976309
0.369104
-0.505001
-0.968152
-0.903184
-0.931372
-0.507709
0.0318742
0.169862
0.518128
0.852489
0.974439
0.876976
0.917385
0.98403
0.884234
0.784781
0.843993
1.13432
1.14425
0.824775
0.874205
1.00025
0.573126
-0.330082
-1.07199
-0.0463801
0.646092
0.841417
0.383034
-0.00106924
0.19336
0.808311
0.549316
-0.553834
-1.8437
-1.89947
-0.730017
-0.195556
-0.0855427
0.209557
0.624373
1.02545
1.06757
0.631264
0.609315
1.0974
1.1842
0.829923
0.461351
0.841356
0.999951
0.515149
0.397787
1.08784
1.1132
0.161754
-0.533223
-0.147054
0.0450194
0.780133
0.628386
0.206494
0.530206
0.624977
-0.421676
-1.65294
-1.6407
-0.764578
-0.354978
-0.497258
-0.21258
0.366154
0.7046
0.682894
0.465093
0.700986
1.11531
1.20975
1.03176
0.583706
0.285954
0.62172
1.07612
0.691354
0.383679
0.941276
1.15932
0.837692
0.34247
0.263299
0.590625
0.83254
0.521106
0.717185
0.815954
0.304924
-1.14518
-2.32796
-1.75429
-0.759321
-0.415621
-0.490149
-0.262632
0.219206
0.720744
0.643843
0.385419
0.913985
1.55243
1.27173
0.33308
-0.355469
0.0581877
0.918681
1.29301
1.12328
0.817565
0.737589
1.00155
0.996554
0.570139
0.296848
0.48096
1.18032
1.31372
0.861808
0.180911
-0.454794
-1.65273
-2.59591
-1.71218
-0.747756
-0.456994
-0.479741
-0.165261
0.295213
0.539202
0.550214
0.748792
1.10767
1.55243
1.36813
0.435385
-0.540116
-0.156877
0.956933
1.21709
0.986198
0.401107
0.181113
1.43078
1.62197
0.673922
0.0241685
0.107488
1.28044
2.04251
1.19445
-0.144877
-0.710637
-1.74854
-2.33667
-1.43918
-0.683455
-0.517498
-0.49607
-0.0726175
0.458711
0.665397
0.596328
0.750112
1.03027
1.51765
1.34876
0.468212
-0.729131
-0.57255
0.986333
1.77156
1.15377
0.136895
0.0438618
1.05532
1.55542
0.866532
)
;

boundaryField
{
    wall
    {
        type            zeroGradient;
    }
    outlet
    {
        type            cyclic;
    }
    inlet
    {
        type            cyclic;
    }
    procBoundary0to1
    {
        type            processor;
        value           nonuniform List<scalar> 
256
(
0.54686
0.910316
0.885388
0.437123
-0.413842
-1.00644
-0.0889153
0.399698
-0.231358
-0.591601
-0.864399
-1.30092
-0.443574
0.404106
0.329136
0.174993
0.274037
0.204519
0.48711
1.08762
1.36348
1.0665
0.867161
1.22638
1.30328
0.550848
0.0577185
0.419617
0.485943
-0.0505078
0.110728
0.427454
0.366907
1.02782
0.993161
0.275434
-0.686688
-1.06197
0.0761751
0.489811
-0.0969386
-0.556963
-0.839929
-1.39867
-0.619978
0.311027
0.195542
0.108142
0.527895
0.747488
0.61275
0.425943
0.945405
1.04527
0.772149
1.1073
1.27421
0.553729
0.276911
0.687223
0.597991
-0.0571537
0.15039
0.277534
0.0623391
0.876043
0.837082
0.313421
-0.305239
-0.705938
0.116694
0.387374
-0.194851
-0.547062
-0.552445
-0.666134
-0.708313
-0.680105
-0.16317
0.448307
0.728944
0.700962
0.556579
0.567666
1.09004
0.876123
0.476418
0.918015
1.27191
0.658675
0.321676
0.679281
1.01775
0.649136
0.222963
-0.167689
-0.143843
0.384572
0.732994
0.4203
-0.000342073
-0.0461051
0.438551
0.167504
-0.566226
-0.938028
-0.902242
-0.853895
-0.5386
-0.351621
-0.166745
0.324186
0.695509
0.796183
0.946542
1.34639
1.26497
0.730096
0.336274
0.417132
0.767704
0.720563
0.384288
0.651546
1.18483
1.11316
0.545084
-0.018287
0.413616
0.180687
0.375498
0.357325
0.567618
0.629564
0.339049
-0.292288
-0.836543
-1.50524
-1.69356
-0.811408
-0.0340027
0.10672
0.0941335
0.063469
0.435291
0.957435
0.987117
0.812388
1.01367
0.881566
0.382407
0.180145
0.573274
0.947182
0.715909
0.654395
1.05735
0.998374
0.643929
0.603267
0.39007
0.264204
0.807458
0.790736
0.652264
0.366686
-0.131078
-0.756791
-1.18605
-1.80992
-1.88413
-0.782668
-0.249005
-0.107851
0.240137
0.488398
0.618446
0.744174
0.959209
1.25341
1.17323
0.806551
0.330467
-0.0998709
0.4509
1.06439
0.859734
0.813945
1.01245
1.13565
0.926176
0.584883
0.0653838
0.296044
1.29544
1.84225
0.614229
-0.262688
-0.652996
-0.923055
-1.52907
-2.09824
-1.47916
-0.738961
-0.410381
-0.0538933
0.211804
0.427341
0.610773
0.725958
1.02259
1.46207
1.27449
0.49856
-0.124996
0.0167372
0.860327
1.1592
0.964627
0.373321
0.167381
1.38394
1.67409
0.716665
-0.398241
0.35733
1.67179
1.77952
0.25538
-0.576795
-0.351538
-0.691652
-1.6597
-2.01845
-1.27934
-0.75416
-0.391541
0.0852909
0.339491
0.482685
0.634019
0.750327
1.15659
1.58587
1.03751
0.305588
-0.115226
-0.0613715
0.958523
1.62934
1.05431
0.006558
0.0565492
1.17733
1.78343
0.674809
)
;
    }
}


// ************************************************************************* //
