/*--------------------------------*- C++ -*----------------------------------*\
| =========                 |                                                 |
| \\      /  F ield         | OpenFOAM: The Open Source CFD Toolbox           |
|  \\    /   O peration     | Version:  2506                                  |
|   \\  /    A nd           | Website:  www.openfoam.com                      |
|    \\/     M anipulation  |                                                 |
\*---------------------------------------------------------------------------*/
FoamFile
{
    version     2.0;
    format      ascii;
    arch        "LSB;label=32;scalar=64";
    class       surfaceScalarField;
    location    "0.007";
    object      phi;
}
// * * * * * * * * * * * * * * * * * * * * * * * * * * * * * * * * * * * * * //

dimensions      [0 3 -1 0 0 0 0];

oriented        oriented;

internalField   nonuniform List<scalar> 
1200
(
0.00148892
5.46831e-06
3.26888e-06
0.00148618
4.13988e-07
2.32578e-06
0.00149663
-4.26613e-06
-6.18549e-06
0.0015014
-8.65793e-07
-3.90324e-06
0.0014958
2.44337e-06
3.15823e-06
0.001479
7.93341e-06
8.86054e-06
0.00148531
-3.32217e-06
-2.98672e-06
0.00149416
-3.10103e-06
-5.74676e-06
0.00148809
3.82797e-06
2.24136e-06
0.00148789
-8.79635e-07
1.07927e-06
0.00149783
-4.25943e-06
-5.68014e-06
0.00150256
4.24828e-07
-5.15623e-06
0.00149715
1.50524e-06
3.90689e-06
0.00148984
1.38555e-06
5.9234e-06
0.0014926
1.0561e-06
-3.81672e-06
0.00149757
5.32727e-07
-5.50175e-06
0.00150028
-2.23904e-07
-2.48797e-06
0.00149699
-1.31783e-07
3.42617e-06
0.00148964
5.05784e-07
6.84235e-06
0.00148696
1.52598e-06
1.15946e-06
0.00148889
1.45498e-06
-3.39374e-06
0.00149499
-9.91975e-07
-5.10514e-06
0.00150085
-3.27428e-06
-2.58249e-06
0.00150923
-2.21671e-06
-6.16132e-06
0.00152247
1.50014e-06
-1.47463e-05
0.00151729
3.90433e-06
1.27292e-06
0.00149821
4.07669e-06
1.50121e-05
0.00149774
-1.41971e-06
1.88684e-06
0.00150252
-3.91929e-06
-8.57772e-07
0.00150375
-2.16147e-06
9.23643e-07
0.0014995
-1.59312e-06
5.84534e-06
4.85912e-06
3.06476e-06
0.00150775
4.53094e-06
5.61241e-06
0.00150288
2.47332e-06
2.81551e-06
0.00150215
-3.11048e-07
-3.22625e-06
0.00150595
6.07278e-07
-5.27299e-06
0.00150434
3.24361e-06
8.05853e-07
0.00150386
4.55192e-06
3.8663e-06
0.00150184
-2.23284e-06
9.33985e-07
0.00151046
-7.78201e-06
-3.93824e-06
0.00151636
-1.72924e-06
-3.52067e-07
0.00151496
-1.47272e-06
1.99465e-06
0.00150978
2.54887e-06
-1.62913e-06
0.00151137
1.80203e-06
-2.96179e-06
0.00151101
-1.65552e-06
3.52249e-06
0.00151135
-1.66898e-06
2.71204e-06
0.00151336
1.51908e-06
-2.47839e-06
0.00151564
9.95457e-08
-1.84394e-06
0.00152219
-3.05577e-06
-3.72054e-06
0.00152676
-2.71137e-06
-1.98538e-06
0.00151596
6.21352e-06
5.0962e-06
0.00149869
1.07878e-05
8.00437e-06
0.00150728
-3.15308e-06
-3.98009e-06
0.00152468
-1.14417e-05
-6.95423e-06
0.00153133
-9.79935e-06
-1.2254e-07
0.00153466
-2.08715e-06
-3.45839e-06
0.00154597
3.19486e-06
-1.30075e-05
0.00154657
4.85559e-06
-1.55244e-06
0.00153959
1.56087e-06
9.49834e-06
0.00153165
3.80986e-06
2.70613e-06
0.00151975
5.49707e-06
2.49182e-06
0.00150743
5.07397e-06
5.0806e-06
0.00150777
-6.04464e-06
4.10627e-06
-8.34016e-07
1.03829e-06
0.00152944
-2.45277e-06
-1.06043e-06
0.0015186
6.84571e-06
6.46908e-06
0.00151312
4.72129e-06
4.5385e-07
0.00150891
7.07373e-06
-2.25913e-06
0.00150291
5.41362e-06
3.83184e-06
0.00150111
3.01852e-07
6.04618e-06
0.0015068
-7.10876e-06
-8.16991e-07
0.00151989
-1.41783e-05
-6.69164e-06
0.0015216
-3.46184e-06
2.23372e-08
0.0015109
7.5371e-06
1.69258e-06
0.0015146
5.28392e-06
-6.43712e-06
0.0015261
-3.54386e-06
-6.15699e-06
0.00152033
1.43751e-06
2.67904e-06
0.00150852
7.28315e-06
2.86528e-06
0.00151042
1.64297e-06
-2.03224e-06
0.00151504
-4.70465e-06
1.84599e-07
0.00151943
-6.1091e-06
-1.33509e-06
0.0015157
3.31875e-07
6.88551e-07
0.0015109
9.60368e-06
1.4125e-06
0.00152314
4.33562e-06
-5.79006e-06
0.00152983
-5.74179e-06
-4.10477e-06
0.00152845
-6.83899e-06
-3.22378e-06
0.001521
-5.51156e-06
3.16826e-06
0.00152419
-5.46467e-06
1.83059e-07
0.00154521
-7.16967e-06
-1.06561e-05
0.0015535
8.44253e-07
-4.27672e-06
0.00154878
1.26849e-06
5.015e-06
0.00153211
1.51703e-05
5.30811e-06
0.00151795
1.52027e-05
4.45819e-06
0.0015091
9.8731e-06
4.04568e-06
0.00151032
-9.77487e-06
2.5129e-06
-1.03237e-05
-1.59168e-06
0.00151538
-4.01705e-06
2.52693e-06
0.00151488
7.7397e-06
-3.90027e-07
0.00150781
1.18195e-05
-2.8691e-08
0.00149669
1.13117e-05
6.8824e-06
0.00148417
1.23681e-05
5.57006e-06
0.00149325
-9.45626e-06
6.6963e-07
0.00151049
-1.738e-05
-6.96703e-06
0.00151091
-9.13943e-06
-5.46001e-06
0.00150154
6.45508e-06
-5.39271e-07
0.00150178
4.84509e-06
2.44846e-06
0.00150658
-8.1144e-08
5.60808e-07
0.00150994
-7.71583e-06
8.18788e-07
0.00150973
-1.52895e-06
3.17008e-06
0.00151539
2.37915e-06
-7.51236e-07
0.00151739
-2.34332e-07
-1.20206e-07
0.00151248
-1.95351e-06
2.15683e-06
0.00150905
-1.84889e-06
-8.35415e-07
0.00151121
9.69727e-07
-2.79693e-06
0.00151563
3.50626e-06
1.67877e-06
0.00151538
1.70571e-06
2.88429e-06
0.00151755
-7.09975e-06
-8.10725e-07
0.00152342
-9.1106e-06
-3.60231e-06
0.00152227
-5.86321e-06
1.49982e-06
0.00152382
-5.58959e-06
-1.42428e-06
0.0015271
-5.18445e-06
-5.26079e-06
0.00152659
1.13353e-06
2.17132e-07
0.00152348
2.64009e-06
1.74239e-06
0.00152536
9.43152e-06
3.85883e-06
0.00152489
1.21252e-05
3.54672e-06
0.00151862
1.25112e-05
3.62759e-06
0.00151327
-5.02036e-06
5.96302e-07
-1.31884e-05
-2.12419e-07
0.00149928
5.65596e-06
1.24438e-06
0.00150233
5.09031e-06
-4.01682e-07
0.00151189
3.4512e-07
1.92049e-06
0.00151482
2.84123e-06
5.53687e-06
0.00152289
-1.42171e-07
4.43811e-06
0.00151997
-7.23535e-06
6.97828e-07
0.00151422
-8.40854e-06
-3.21635e-06
0.00151109
-5.71265e-06
-3.01333e-07
0.00151263
8.07739e-06
-3.15898e-06
0.00151862
5.3785e-06
-6.52502e-06
0.00152454
-2.58478e-07
-5.74053e-06
0.00152219
-6.29398e-06
9.30835e-07
0.0015197
-2.94408e-06
3.90518e-06
0.00152151
1.50011e-06
-9.40272e-07
0.00151823
2.39885e-06
6.54047e-07
0.00151214
2.28476e-06
1.84967e-06
0.00150718
8.71128e-07
2.23853e-06
0.00151384
-4.30672e-06
-1.38395e-06
0.00151786
5.5004e-07
-1.06569e-06
0.00152105
-2.85418e-06
1.3733e-06
0.00152223
-5.88075e-06
-2.40089e-06
0.00152232
-5.09173e-06
-4.1076e-06
0.00151545
-1.81086e-06
2.81962e-06
0.00151097
-1.41341e-06
3.00568e-07
0.00150746
1.23389e-06
-2.90327e-06
0.00150405
6.24765e-06
-1.7116e-06
0.00150329
2.90473e-06
4.9535e-07
0.00151639
-3.54724e-06
-1.16861e-07
0.00152387
4.63563e-06
4.75361e-09
0.00152306
1.02677e-05
3.05662e-06
0.00151808
-3.60331e-06
3.56812e-06
-8.76303e-06
3.45305e-06
0.00151985
1.59776e-06
-3.5766e-06
0.00152388
1.16111e-05
-1.05468e-05
0.00152102
-1.32335e-07
3.33328e-06
0.00151986
-2.94786e-06
6.94674e-06
0.00151958
-2.13088e-06
2.26974e-06
0.00151345
-2.62704e-06
1.51998e-06
0.0015098
-3.12166e-06
-1.63083e-06
0.00150697
-2.03339e-06
-8.56825e-07
0.00151682
2.38877e-06
-4.15367e-06
0.00152507
2.09954e-06
-4.979e-06
0.00152792
-2.64733e-07
-2.844e-06
0.00152205
-2.97355e-06
2.55832e-06
0.00151563
-2.13093e-06
5.60764e-06
0.00151503
2.27797e-06
-1.79322e-07
0.00151478
2.42953e-06
2.12721e-07
0.00152254
-4.60778e-06
-8.62421e-07
0.00152527
1.58279e-07
-2.02374e-06
0.00151526
2.36734e-06
3.34332e-06
0.00151169
5.01521e-07
3.61425e-06
0.00152146
-1.01896e-05
-2.43352e-06
0.00152638
-5.60496e-06
-5.19352e-06
0.00152968
-3.28428e-06
-5.10628e-06
0.00151995
9.70039e-07
6.94916e-06
0.00150909
4.22353e-06
5.22028e-06
0.00151323
-6.59957e-07
-2.24392e-06
0.00152016
4.04703e-06
-4.73381e-06
0.00151658
5.97214e-06
5.13486e-07
0.00151205
-1.01999e-08
9.92727e-07
0.00151532
2.89402e-06
-1.52961e-06
0.00152158
4.44357e-06
-4.29074e-07
0.00151264
1.90251e-06
3.43066e-06
-1.0885e-05
2.54655e-06
0.00152128
1.04151e-06
-4.03512e-06
0.00152515
7.66913e-06
7.59691e-08
0.00151454
-9.09292e-07
1.13844e-05
0.00151314
-7.9046e-06
6.35494e-06
0.00152063
-3.35831e-06
-6.2652e-06
0.00152044
1.20429e-06
-3.63681e-06
0.00151674
1.39298e-06
-8.16581e-07
0.00151528
-2.22615e-06
1.65142e-06
0.00152139
-1.51311e-06
-2.20669e-06
0.0015266
2.0895e-06
-5.20327e-06
0.00152755
1.10292e-06
-2.31773e-06
0.00152112
-5.56543e-07
4.01416e-06
0.00151652
-8.78325e-07
3.34688e-06
0.00151965
1.48593e-06
-2.33451e-06
0.00152287
1.73671e-06
-2.52731e-06
0.00151921
-2.95383e-06
2.00917e-06
0.00151519
-7.97504e-08
4.25337e-06
0.0015116
2.22198e-06
3.74134e-06
0.00151203
-2.08026e-06
2.14522e-06
0.0015113
-9.68918e-06
2.33291e-07
0.00151532
-3.9766e-06
-5.64725e-06
0.00151848
-4.73929e-07
-5.97198e-06
0.00150619
5.39609e-06
7.85984e-06
0.00149781
8.44391e-06
4.16095e-06
0.00149864
2.34478e-06
-3.83633e-06
0.00150648
-9.16543e-08
-3.69586e-06
0.00150876
3.69873e-06
-7.1488e-09
0.00151129
-3.0885e-06
5.45708e-07
0.00152235
-7.27466e-06
-8.94113e-07
0.00152313
5.37923e-06
-1.71596e-06
0.00151868
9.64147e-06
-3.28302e-06
-4.46885e-06
-4.42688e-06
0.00151104
-4.8515e-06
0.0015199
-1.18494e-06
0.00150193
1.70524e-05
0.00148738
6.65351e-06
0.00149435
-1.03355e-05
0.00150051
-4.95721e-06
0.00150035
1.55685e-06
0.00149182
6.30588e-06
0.00149004
2.60956e-07
0.00150025
-8.12004e-06
0.00150387
-2.50978e-06
0.00149806
5.25232e-06
0.00149352
3.65668e-06
0.00149729
-2.28305e-06
0.00150183
-2.79973e-06
0.00149702
1.85566e-06
0.0014952
1.74039e-06
0.0014973
1.20946e-07
0.00149289
2.32874e-06
0.00147827
4.93229e-06
0.0014764
-2.11055e-06
0.00148272
-6.78833e-06
0.00148681
1.30259e-06
0.00149047
4.78565e-06
0.0014919
9.11818e-07
0.00149353
-1.71992e-06
0.00149707
1.61038e-07
0.00149206
1.91929e-06
0.00148573
-9.45494e-07
0.00149083
2.76931e-07
0.00150423
-3.75296e-06
-5.3894e-06
0.00150478
5.60162e-06
0.0015052
-2.87277e-06
0.00150631
-2.48412e-06
0.00150834
-2.08971e-07
0.00150339
2.41533e-06
0.00149807
2.72862e-06
0.00149433
-1.55155e-06
0.00149376
-3.49054e-06
0.00149706
-2.45301e-06
0.00150491
-1.50105e-06
0.00151403
-1.01345e-06
0.00150857
-7.4157e-07
0.00150465
2.92162e-08
0.00151015
-1.77248e-06
0.00151181
3.15472e-06
0.00150719
4.54507e-06
0.00150506
6.22274e-07
0.00151041
-3.68621e-06
0.00151693
-2.20423e-06
0.00151692
1.05841e-06
0.00151313
4.31111e-06
0.00151627
3.63444e-07
0.00152212
-2.62608e-06
0.00152648
-7.34891e-06
0.0015076
6.30938e-06
0.00149834
1.1241e-05
0.0015091
5.33237e-07
0.00151729
-3.13854e-06
0.00152071
-2.16389e-06
0.00151096
-1.42068e-07
0.00151155
-4.97258e-06
1.40634e-06
0.00154696
1.91159e-06
0.00153493
1.59797e-06
0.00153369
1.71504e-06
0.00152954
4.04385e-06
0.0015219
6.05539e-06
0.0015158
4.75622e-06
0.00151884
-3.98724e-06
0.00152151
-7.7491e-06
0.00152263
-3.77237e-06
0.00152973
-4.27484e-06
0.00154086
-3.93238e-06
0.00153747
-1.19508e-07
0.00153077
3.63051e-06
0.00152948
2.23368e-07
0.00153662
4.20468e-07
0.0015433
1.48383e-06
0.00154117
1.39081e-06
0.00153147
2.83002e-06
0.00153317
-1.97669e-07
0.00154025
-1.27046e-06
0.00153524
4.03137e-06
0.00153201
1.8343e-06
0.00154736
-1.00629e-05
0.00154944
-7.07313e-06
0.00153366
1.0007e-05
0.00153753
6.08414e-06
0.00154965
-4.04549e-06
0.00154987
4.81678e-07
0.00154286
5.08224e-06
0.00153052
4.41508e-06
0.00153099
-8.91833e-06
-3.25507e-06
0.00154114
-2.08392e-06
0.00154071
4.82456e-06
0.00153115
9.85665e-06
0.00151684
1.24991e-05
0.00151182
5.63458e-06
0.00152174
-8.0165e-06
0.00153307
-1.6781e-05
0.00153653
-1.44507e-05
0.00153883
-4.21729e-06
0.00152896
6.00286e-06
0.00151296
1.05386e-05
0.00151498
1.56942e-06
0.00152056
2.01223e-07
0.00151341
3.1056e-06
0.00151291
4.76218e-08
0.0015229
-4.66955e-06
0.00153273
-7.55263e-06
0.00154297
-4.03628e-06
0.0015437
3.48366e-06
0.00153188
6.28342e-06
0.00153671
-6.22405e-07
0.00155243
-7.02632e-06
0.00155504
-7.97643e-06
0.00155806
-4.17368e-06
0.00156559
1.23825e-06
0.00156657
8.5135e-07
0.00156369
-3.27424e-06
0.00155083
1.34275e-05
0.00153894
1.45382e-05
0.00152852
9.50183e-06
0.00152751
-1.05054e-05
-9.98133e-06
0.00153536
-4.00205e-07
0.00153012
6.83512e-06
0.00152654
9.1945e-06
0.00152866
1.15689e-05
0.00153328
2.40703e-06
0.00153168
-1.08107e-05
0.00152008
-1.40083e-05
0.00150762
-7.87232e-06
0.00148628
1.2329e-05
0.00148913
5.61765e-06
0.00150945
-3.49475e-06
0.00151703
-2.91544e-06
0.00152204
7.75322e-07
0.0015274
-1.42207e-07
0.00152804
-2.01128e-06
0.0015269
-4.41997e-06
0.00152166
-3.13703e-06
0.0015109
2.77132e-06
0.00151433
1.84081e-06
0.00153462
-3.09907e-06
0.00154904
-9.14405e-06
0.001548
-6.45048e-06
0.00153972
-8.65617e-07
0.00154007
-1.6739e-06
0.00154061
-1.74767e-07
0.00153689
8.50103e-07
0.00153109
6.53748e-07
0.00154358
5.54735e-06
0.00154762
1.10329e-05
0.0015397
1.35309e-05
0.00153241
-3.7611e-06
-1.0141e-05
0.00152712
3.02036e-06
0.00153185
7.04399e-06
0.00153547
6.81982e-06
0.00152957
1.21031e-05
0.00153604
-5.30198e-06
0.00154156
-1.91441e-05
0.00153212
-1.29396e-05
0.00152827
-7.18316e-06
0.00153534
7.12648e-06
0.00153391
6.68754e-06
0.00152308
1.22129e-07
0.00152292
-3.02897e-06
0.00153441
-2.66517e-06
0.00154077
-1.13468e-06
0.00154255
-1.08928e-06
0.00153933
-2.97354e-06
0.00153325
-1.03518e-06
0.0015327
5.60313e-06
0.00153991
3.13736e-06
0.00154672
-7.30956e-06
0.00154735
-1.01079e-05
0.00154512
-4.71504e-06
0.00153829
7.91058e-06
0.00153199
4.91425e-06
0.00153263
-1.89901e-06
0.00152857
2.3576e-06
0.00152426
3.29252e-06
0.00153433
-2.95837e-06
0.00154316
2.57583e-06
0.00154162
1.04185e-05
0.00153348
-8.55033e-07
-3.76729e-06
0.00157047
3.01199e-06
0.0015461
1.92782e-05
0.00153477
1.25386e-05
0.00154008
6.32583e-06
0.00155207
-1.19172e-05
0.00154966
-1.20334e-05
0.00153516
-6.42467e-06
0.00152476
-3.07792e-06
0.00152701
4.27221e-06
0.0015277
4.0623e-06
0.0015251
-1.96722e-06
0.00152934
-3.0336e-06
0.00153459
-9.75068e-07
0.00153746
-1.0079e-06
0.00154522
-3.48895e-06
0.00154478
-1.23437e-06
0.00153535
5.02004e-06
0.00154383
2.10273e-06
0.00155238
-6.91996e-10
0.00154293
-4.27431e-06
0.00153092
-6.04506e-06
0.00153418
-7.02685e-06
0.0015473
2.86232e-06
0.0015478
5.24633e-06
0.00154468
-1.75303e-06
0.00153741
7.10529e-06
0.00153496
6.05527e-06
0.00153286
2.71195e-07
0.00153322
1.94528e-06
0.0015463
1.2946e-06
0.00155676
-3.52954e-06
-1.16635e-05
0.00155442
-7.21189e-06
0.00156158
1.16186e-05
0.00156114
1.45819e-05
0.00156217
8.77958e-06
0.00155479
-9.77794e-06
0.00154244
-9.99925e-06
0.00153042
-5.1677e-06
0.00152286
1.40576e-06
0.00152606
1.69983e-06
0.00152613
2.27112e-06
0.00152468
-1.99511e-06
0.00152828
-2.01508e-06
0.00152883
8.06087e-07
0.00152394
6.00933e-07
0.00152225
-1.89791e-06
0.00152823
-2.00435e-06
0.00153713
1.76477e-06
0.00154041
2.66496e-06
0.00154356
-1.47332e-06
0.00153792
-2.72363e-06
0.00152602
-2.66161e-06
0.00151806
-1.59696e-06
0.00153094
1.27261e-06
0.00153286
7.13787e-06
0.00152335
2.59121e-06
0.00152379
2.08728e-06
0.00152374
3.84675e-06
0.00152765
-3.28448e-06
0.00154206
-8.07721e-06
0.00154185
4.42814e-06
0.00153684
2.59036e-06
-1.35606e-05
0.00150067
0.0015192
0.00155187
0.00156393
0.00153426
0.00150478
0.0014931
0.00149932
0.0015057
0.00150284
0.00149857
0.00150035
0.00150432
0.00150188
0.00149811
0.00150058
0.00150747
0.00151197
0.00151974
0.0015203
0.00150858
0.00149546
0.00150263
0.00151841
0.00152164
0.00152165
0.00152272
0.00151832
0.00151102
0.00151971
0.00152622
)
;

boundaryField
{
    wall
    {
        type            calculated;
        value           uniform 0;
    }
    outlet
    {
        type            cyclic;
        value           nonuniform List<scalar> 
16
(
0.00149158
0.00151243
0.0015214
0.00151635
0.0015102
0.00151221
0.00151669
0.00150515
0.00151199
0.00154107
0.00153777
0.00153638
0.00152744
0.00156949
0.00154263
0.00151229
)
;
    }
    inlet
    {
        type            cyclic;
        value           nonuniform List<scalar> 
16
(
-0.00149158
-0.00151243
-0.0015214
-0.00151635
-0.0015102
-0.00151221
-0.00151669
-0.00150515
-0.00151199
-0.00154107
-0.00153777
-0.00153638
-0.00152744
-0.00156949
-0.00154263
-0.00151229
)
;
    }
    procBoundary0to1
    {
        type            processor;
        value           nonuniform List<scalar> 
256
(
4.88015e-06
4.77397e-06
-4.80865e-06
-5.72341e-06
5.68826e-06
1.14544e-05
2.31062e-06
-1.68587e-06
1.38617e-06
-5.26656e-06
-1.37837e-05
1.04123e-06
7.79638e-06
2.20343e-06
-8.63213e-06
-5.43184e-06
-9.76967e-07
1.76307e-06
2.5199e-06
1.12414e-07
-3.9101e-06
-8.6063e-06
-5.81071e-06
-3.16798e-06
-2.18007e-06
-7.06009e-07
3.71478e-06
-3.15917e-06
-2.11292e-06
1.08076e-05
1.02345e-05
1.2139e-06
3.41133e-06
1.03787e-05
-6.18593e-06
-5.37231e-06
4.79993e-06
7.94459e-06
3.24031e-07
-2.34921e-06
-1.47458e-07
-2.3322e-06
-9.8395e-06
-1.96537e-07
6.61596e-06
2.0142e-06
-6.88833e-06
-5.46028e-06
-2.36043e-06
1.20241e-06
1.38258e-06
3.25584e-06
1.31347e-06
-5.20039e-06
-8.0297e-06
-5.8154e-06
-9.24322e-07
-2.71669e-07
1.95723e-06
-1.13192e-06
2.25963e-06
1.28583e-05
7.5855e-06
-4.38551e-06
-4.3936e-07
3.67348e-06
1.8767e-06
3.59841e-06
9.26738e-06
8.89688e-06
6.50097e-07
-3.44861e-06
-1.83682e-06
1.28306e-06
-4.90333e-06
-9.8649e-06
5.26389e-07
7.13543e-06
-1.15895e-06
-3.64976e-06
-2.22933e-06
-2.6835e-06
-2.99844e-06
-1.52651e-06
-4.27763e-06
-1.00801e-05
-1.52765e-06
-5.74329e-06
-9.41766e-06
-1.67878e-08
7.11619e-06
5.22321e-06
6.89133e-06
9.38272e-06
5.10767e-06
-5.12241e-06
1.85631e-06
2.83729e-06
4.21304e-06
5.69625e-06
4.182e-06
5.06048e-06
1.86365e-06
4.18105e-07
4.25445e-06
-1.41748e-08
-5.72426e-06
-2.2838e-06
-2.40989e-06
-2.85929e-06
1.29571e-06
3.04232e-06
-4.51669e-09
1.14807e-06
-1.0861e-07
-8.02052e-06
-6.7096e-06
-3.13541e-06
2.67194e-06
-4.28147e-06
-4.38675e-06
3.94193e-06
3.61275e-06
-7.48839e-07
3.01013e-06
7.51803e-06
1.14448e-06
-4.01912e-06
-1.85813e-06
-5.34393e-06
6.82819e-07
1.0904e-05
5.67133e-06
3.51469e-06
5.15489e-06
2.86135e-06
-5.02762e-06
-6.16777e-06
1.47226e-06
1.20615e-06
-4.14317e-06
-6.30909e-06
-2.05016e-06
3.62695e-06
6.21392e-06
-3.66414e-06
-9.56935e-06
-1.23206e-06
-2.06318e-06
-3.61835e-06
8.72203e-07
1.93375e-08
-1.82439e-06
8.41686e-07
2.16706e-06
-1.67536e-06
-3.67872e-07
7.70803e-06
8.7948e-06
3.12363e-06
-4.54984e-06
1.59145e-06
8.94489e-06
7.41042e-06
-3.10193e-06
-3.17754e-06
6.35048e-06
5.43726e-06
-3.54466e-06
-3.04676e-06
1.8448e-06
-1.6731e-06
-1.33798e-06
-3.16901e-06
-5.15383e-06
-2.16301e-06
1.35253e-06
-1.63249e-06
-1.80174e-06
3.98099e-06
2.7598e-06
-6.0632e-06
-1.11605e-06
4.38413e-06
7.32154e-07
-2.21567e-06
2.0541e-07
-1.34471e-07
-1.25724e-06
-4.3902e-06
-4.35496e-06
-2.28846e-06
-5.59844e-06
5.79879e-07
9.77762e-06
2.86851e-06
-1.01716e-06
6.67924e-06
9.94358e-06
4.72267e-06
-2.83325e-06
-3.48127e-06
-8.3885e-07
-6.05079e-07
1.01268e-06
9.51044e-07
-2.43151e-06
-3.19546e-06
-1.38997e-06
-1.02907e-07
4.63761e-07
4.32451e-06
2.87463e-06
-3.44471e-06
-3.43074e-06
3.43438e-07
1.32951e-06
8.91093e-07
2.24722e-06
1.92629e-07
-5.28385e-06
-4.63462e-06
-4.4009e-06
-8.32037e-06
-4.37537e-07
-8.09483e-06
-1.03834e-06
3.37634e-06
9.55579e-06
1.45226e-05
8.06879e-06
1.48521e-06
-4.41411e-06
-2.99377e-06
-2.34724e-07
1.45694e-06
5.00807e-07
7.5569e-07
-9.33355e-07
-2.61026e-06
-3.39428e-06
-1.71262e-06
-6.90644e-06
1.64424e-06
6.94857e-06
4.73757e-06
-4.60099e-06
-3.85716e-06
2.72684e-07
3.63283e-07
2.93582e-06
3.02926e-06
-1.71752e-06
-3.98986e-06
-7.67066e-06
-5.02103e-06
)
;
    }
}


// ************************************************************************* //
