/*--------------------------------*- C++ -*----------------------------------*\
| =========                 |                                                 |
| \\      /  F ield         | OpenFOAM: The Open Source CFD Toolbox           |
|  \\    /   O peration     | Version:  2506                                  |
|   \\  /    A nd           | Website:  www.openfoam.com                      |
|    \\/     M anipulation  |                                                 |
\*---------------------------------------------------------------------------*/
FoamFile
{
    version     2.0;
    format      ascii;
    arch        "LSB;label=32;scalar=64";
    class       volScalarField;
    location    "0.09";
    object      Ksl;
}
// * * * * * * * * * * * * * * * * * * * * * * * * * * * * * * * * * * * * * //

dimensions      [1 -3 -1 0 0 0 0];

internalField   nonuniform List<scalar> 
1152
(
134688
145643
167957
181584
172225
132912
111675
167596
136151
200539
220775
200615
170907
75650.2
171035
102462
197265
127121
271369
156624
120970
165313
153796
190057
166086
146501
215088
196525
147439
157855
168868
135960
244280
206132
246136
291333
320549
206885
210936
257006
273330
149330
302022
219539
215898
391373
320298
157809
176121
177767
255841
132558
234921
194817
216396
303509
195229
245706
292656
222235
218144
280885
374440
418688
213213
242741
251685
261535
226408
259457
145120
112508
227229
198015
328916
299185
251867
283439
351524
304300
244227
206597
293279
134641
146725
321870
188355
349531
185540
415224
243576
170294
441667
169545
206257
140681
53390.1
49794.6
61216
80767.7
120251
52306.5
182898
113751
50131
81598
123283
138177
37497.4
36451.3
78920.9
82077.4
0
0
0
0
0
0
0
0
0
0
0
0
0
0
0
0
0
0
0
0
0
0
0
0
0
0
0
0
0
0
0
0
0
0
0
0
0
0
0
0
0
0
0
0
0
0
0
0
0
0
0
0
0
0
0
0
0
0
0
0
0
0
0
0
0
0
0
0
0
0
0
0
0
0
0
0
0
0
0
0
0
0
0
0
0
0
0
0
0
0
0
0
0
0
0
0
0
0
0
0
0
0
0
0
0
0
0
0
0
0
0
0
0
0
0
0
0
0
0
0
0
0
0
0
0
0
0
0
0
0
0
0
0
0
0
0
0
0
0
0
0
0
0
0
0
0
0
0
0
0
0
0
0
0
0
0
0
0
0
0
0
0
0
0
0
0
0
0
0
0
0
0
0
0
0
0
0
0
0
0
0
0
0
0
0
0
0
0
0
0
0
0
0
0
0
0
0
0
0
0
0
0
0
0
0
0
0
0
0
0
0
0
0
0
0
0
0
0
0
0
0
0
0
0
0
0
0
0
0
0
0
0
0
0
0
0
0
0
0
0
0
0
0
0
0
0
0
0
0
0
0
0
0
0
0
0
0
0
0
0
0
0
0
0
0
0
0
0
0
0
0
0
205519
121273
109095
153211
162529
225663
173760
252636
190781
171499
112161
225046
134738
188156
249760
132547
126648
196097
172647
118378
173556
71591.1
169758
239400
133191
232423
214631
234578
124589
218355
299950
150427
174417
277254
257679
212621
208140
237461
223050
202526
246757
177910
222198
331852
296185
179702
185381
172079
316703
318754
167322
436353
191694
188366
217725
141736
265661
187108
206097
295925
280571
372083
243601
258736
193434
185934
154231
194544
264497
172212
483218
169845
180590
273456
236475
417331
151813
221984
253246
274726
82641.1
288387
348499
215745
247344
255060
299046
363178
225411
229555
182701
220744
210507
191010
222875
217013
118728
58792.2
40159
41834.4
132063
90212.9
122852
65895.8
147026
92615.3
92934.4
82097.2
67943.8
140930
89054.9
100746
0
0
0
0
0
0
0
0
0
0
0
0
-5.97129e-13
2489.82
5351.62
0
0
0
0
0
0
0
0
0
0
0
0
0
0
0
0
0
0
0
0
0
0
0
0
0
0
0
0
0
0
0
0
0
0
0
0
0
0
0
0
0
0
0
0
0
0
0
0
0
0
0
0
0
0
0
0
0
0
0
0
0
0
0
0
0
0
0
0
0
0
0
0
0
0
0
0
0
0
0
0
0
0
0
0
0
0
0
0
0
0
0
0
0
0
0
0
0
0
0
0
0
0
0
0
0
0
0
0
0
0
0
0
0
0
0
0
0
0
0
0
0
0
0
0
0
0
0
0
0
0
0
0
0
0
0
0
0
0
0
0
0
0
0
0
0
0
0
0
0
0
0
0
0
0
0
0
0
0
0
0
0
0
0
0
0
0
0
0
0
0
0
0
0
0
0
0
0
0
0
0
0
0
0
0
0
0
0
0
0
0
0
0
0
0
0
0
0
0
0
0
0
0
0
0
0
0
0
0
0
0
0
0
0
0
0
0
0
0
0
0
0
0
0
0
0
0
0
0
0
0
0
0
0
0
0
0
0
0
0
0
0
0
0
0
0
0
0
0
0
0
0
0
0
0
0
0
0
167144
146355
208682
196604
181864
154134
182114
100370
168880
234162
164553
220139
186154
188107
143290
307933
127854
203484
136325
108706
145134
150878
120757
185791
126014
174712
157368
142298
175982
243561
109247
161575
206984
177554
243034
136598
236939
231388
211208
224969
192163
212566
307597
291278
188594
282771
245615
189206
154723
267600
246033
282010
232688
192781
251632
148865
196819
369683
329018
211168
290157
256811
199767
223461
203768
205274
209917
247882
262850
235258
167656
320197
140121
157545
240403
397440
230014
364136
293918
300513
178353
264551
209979
214069
307808
299605
202457
343935
119600
327476
236994
229865
321317
148837
173318
378778
40682.1
64432.9
66511.5
65316.2
89974.2
46388.9
35196.8
58599.2
60626.5
42250.4
56127.7
60395.4
62158.7
51402.4
44591.7
48375.5
0
0
0
0
0
0
0
0
0
0
0
0
0
0
0
0
0
0
0
0
0
0
0
0
0
0
0
0
0
0
0
0
0
0
0
0
0
0
0
0
0
0
0
0
0
0
0
0
0
0
0
0
0
0
0
0
0
0
0
0
0
0
0
0
0
0
0
0
0
0
0
0
0
0
0
0
0
0
0
0
0
0
0
0
0
0
0
0
0
0
0
0
0
0
0
0
0
0
0
0
0
0
0
0
0
0
0
0
0
0
0
0
0
0
0
0
0
0
0
0
0
0
0
0
0
0
0
0
0
0
0
0
0
0
0
0
0
0
0
0
0
0
0
0
0
0
0
0
0
0
0
0
0
0
0
0
0
0
0
0
0
0
0
0
0
0
0
0
0
0
0
0
0
0
0
0
0
0
0
0
0
0
0
0
0
0
0
0
0
0
0
0
0
0
0
0
0
0
0
0
0
0
0
0
0
0
0
0
0
0
0
0
0
0
0
0
0
0
0
0
0
0
0
0
0
0
0
0
0
0
0
0
0
0
0
0
0
0
0
0
0
0
0
0
0
0
0
0
0
0
0
0
0
0
0
0
0
0
0
0
0
0
0
0
0
0
0
0
0
0
0
0
)
;

boundaryField
{
    inlet
    {
        type            zeroGradient;
    }
    outlet
    {
        type            zeroGradient;
    }
    wall
    {
        type            zeroGradient;
    }
    procBoundary0to1
    {
        type            processor;
        value           nonuniform List<scalar> 
192
(
122891
105508
156564
132577
423072
186313
184900
174998
182469
246811
342205
245787
363664
203405
224021
188188
225546
466652
198720
298748
418478
177679
248384
331243
59383.1
156827
128036
350193
0
0
0
0
0
0
0
0
0
0
0
0
0
0
0
0
0
0
0
0
0
0
0
0
0
0
0
0
0
0
0
0
0
0
0
0
0
0
0
0
0
0
0
0
0
0
0
0
0
0
0
0
0
0
0
0
0
0
0
0
0
0
0
0
0
0
0
0
163364
274449
140644
138257
209576
228362
160604
125993
255710
146178
231107
373903
190540
368190
219545
263609
207810
201409
157173
298098
212009
206887
232062
125549
65918.5
56496.5
62987.8
49276.5
0
0
0
0
0
0
0
0
0
0
0
0
0
0
0
0
0
0
0
0
0
0
0
0
0
0
0
0
0
0
0
0
0
0
0
0
0
0
0
0
0
0
0
0
0
0
0
0
0
0
0
0
0
0
0
0
0
0
0
0
0
0
0
0
0
0
0
0
)
;
    }
    procBoundary0to2
    {
        type            processor;
        value           nonuniform List<scalar> 
192
(
129836
264164
365340
160239
197790
177880
127572
145960
515808
197872
239561
212617
217966
198246
178587
198289
325600
246524
142813
283747
164715
356912
259613
210666
58613.4
77688.4
72325.5
97860.2
0
0
0
0
0
0
0
0
0
0
0
0
0
0
0
0
0
0
0
0
0
0
0
0
0
0
0
0
0
0
0
0
0
0
0
0
0
0
0
0
0
0
0
0
0
0
0
0
0
0
0
0
0
0
0
0
0
0
0
0
0
0
0
0
0
0
0
0
204647
118551
144847
201483
211171
151130
77613.1
271711
149371
295543
299870
245582
197574
80139.9
159302
226268
209508
216495
230022
264913
232591
198725
179406
218409
134163
82591.2
74979.5
129637
523.979
0
0
0
0
0
0
0
0
0
0
0
0
0
0
0
0
0
0
0
0
0
0
0
0
0
0
0
0
0
0
0
0
0
0
0
0
0
0
0
0
0
0
0
0
0
0
0
0
0
0
0
0
0
0
0
0
0
0
0
0
0
0
0
0
0
0
0
)
;
    }
}


// ************************************************************************* //
