/*--------------------------------*- C++ -*----------------------------------*\
| =========                 |                                                 |
| \\      /  F ield         | OpenFOAM: The Open Source CFD Toolbox           |
|  \\    /   O peration     | Version:  2506                                  |
|   \\  /    A nd           | Website:  www.openfoam.com                      |
|    \\/     M anipulation  |                                                 |
\*---------------------------------------------------------------------------*/
FoamFile
{
    version     2.0;
    format      ascii;
    arch        "LSB;label=32;scalar=64";
    class       volVectorField;
    location    "0.007";
    object      Us;
}
// * * * * * * * * * * * * * * * * * * * * * * * * * * * * * * * * * * * * * //

dimensions      [0 1 -1 0 0 0 0];

internalField   nonuniform List<vector> 
512
(
(0 0 0)
(0.107677 -1.62553e-05 -0.122002)
(0.164682 -0.00011992 -0.0571165)
(0 0 0)
(0 0 0)
(0 0 0)
(0 0 0)
(0 0 0)
(0 0 0)
(0 0 0)
(0 0 0)
(0 0 0)
(0 0 0)
(0 0 0)
(0 0 0)
(0 0 0)
(0 0 0)
(0 0 0)
(0 0 0)
(0 0 0)
(0 0 0)
(0 0 0)
(0 0 0)
(0 0 0)
(0 0 0)
(0.343592 -0.0019903 -0.0609098)
(0 0 0)
(0 0 0)
(0 0 0)
(0 0 0)
(0 0 0)
(0 0 0)
(0 0 0)
(0 0 0)
(0 0 0)
(0 0 0)
(0 0 0)
(0 0 0)
(0 0 0)
(0 0 0)
(0 0 0)
(0 0 0)
(0 0 0)
(0 0 0)
(0 0 0)
(0.339359 0.000736683 -0.109699)
(0 0 0)
(0 0 0)
(0 0 0)
(0 0 0)
(0 0 0)
(0 0 0)
(0 0 0)
(0 0 0)
(0 0 0)
(0 0 0)
(0 0 0)
(0 0 0)
(0 0 0)
(0 0 0)
(0 0 0)
(0 0 0)
(0 0 0)
(0 0 0)
(0 0 0)
(0 0 0)
(0.348996 -0.00163537 -0.0993629)
(0 0 0)
(0 0 0)
(0.329394 -0.00146386 -0.169204)
(0 0 0)
(0 0 0)
(0 0 0)
(0 0 0)
(0 0 0)
(0 0 0)
(0 0 0)
(0 0 0)
(0 0 0)
(0 0 0)
(0 0 0)
(0.342076 -0.000894348 -0.098959)
(0 0 0)
(0 0 0)
(0 0 0)
(0 0 0)
(0 0 0)
(0 0 0)
(0 0 0)
(0 0 0)
(0 0 0)
(0 0 0)
(0 0 0)
(0 0 0)
(0 0 0)
(0 0 0)
(0 0 0)
(0 0 0)
(0 0 0)
(0 0 0)
(0 0 0)
(0 0 0)
(0 0 0)
(0 0 0)
(0 0 0)
(0.338405 -0.000116922 -0.158613)
(0 0 0)
(0 0 0)
(0.33638 0.00123535 -0.138853)
(0 0 0)
(0 0 0)
(0 0 0)
(0 0 0)
(0 0 0)
(0 0 0)
(0.341727 -0.00115648 -0.102441)
(0 0 0)
(0 0 0)
(0.345169 -0.000741133 -0.114181)
(0 0 0)
(0 0 0)
(0.340633 0.000255651 -0.161314)
(0 0 0)
(0 0 0)
(0 0 0)
(0.345718 0.00176999 -0.0501764)
(0 0 0)
(0 0 0)
(0 0 0)
(0 0 0)
(0 0 0)
(0 0 0)
(0.335006 -0.00414124 -0.118876)
(0 0 0)
(0 0 0)
(0 0 0)
(0 0 0)
(0 0 0)
(0 0 0)
(0 0 0)
(0 0 0)
(0 0 0)
(0 0 0)
(0 0 0)
(0 0 0)
(0.338414 0.000324136 -0.0188087)
(0.342129 -0.000514219 -0.0480118)
(0 0 0)
(0 0 0)
(0.344862 -2.77061e-05 -0.129652)
(0.345118 -0.00234779 -0.139177)
(0 0 0)
(0 0 0)
(0 0 0)
(0 0 0)
(0 0 0)
(0 0 0)
(0 0 0)
(0 0 0)
(0 0 0)
(0 0 0)
(0 0 0)
(0.348242 -0.000775559 -0.0274163)
(0 0 0)
(0 0 0)
(0 0 0)
(0.335668 -0.00148462 -0.133688)
(0 0 0)
(0.33738 0.00254249 -0.181433)
(0 0 0)
(0 0 0)
(0 0 0)
(0 0 0)
(0 0 0)
(0 0 0)
(0 0 0)
(0 0 0)
(0 0 0)
(0.340501 0.00166734 -0.115799)
(0 0 0)
(0 0 0)
(0 0 0)
(0 0 0)
(0 0 0)
(0.349016 -0.00181517 -0.097988)
(0 0 0)
(0 0 0)
(0 0 0)
(0 0 0)
(0 0 0)
(0 0 0)
(0 0 0)
(0 0 0)
(0 0 0)
(0 0 0)
(0 0 0)
(0 0 0)
(0 0 0)
(0 0 0)
(0 0 0)
(0 0 0)
(0 0 0)
(0 0 0)
(0 0 0)
(0 0 0)
(0 0 0)
(0.331826 -0.00129864 -0.068137)
(0 0 0)
(0 0 0)
(0 0 0)
(0 0 0)
(0 0 0)
(0 0 0)
(0 0 0)
(0 0 0)
(0 0 0)
(0 0 0)
(0 0 0)
(0 0 0)
(0 0 0)
(0 0 0)
(0 0 0)
(0 0 0)
(0 0 0)
(0 0 0)
(0 0 0)
(0 0 0)
(0.324295 -0.00277322 -0.173734)
(0 0 0)
(0 0 0)
(0 0 0)
(0 0 0)
(0 0 0)
(0 0 0)
(0 0 0)
(0.245496 0.00168662 -0.0730841)
(0 0 0)
(0 0 0)
(0 0 0)
(0 0 0)
(0 0 0)
(0 0 0)
(0 0 0)
(0 0 0)
(0 0 0)
(0 0 0)
(0 0 0)
(0 0 0)
(0 0 0)
(0 0 0)
(0 0 0)
(0 0 0)
(0.164307 0.00039714 -0.105318)
(0 0 0)
(0 0 0)
(0 0 0)
(0.0213658 -6.96049e-05 0.0333082)
(0.120642 -0.000230272 0.00418728)
(0.0606926 -0.000308194 0.0933601)
(0.232299 -0.00553622 0.156928)
(0.00926511 0.000103408 0.00547477)
(0.133676 0.00222396 0.105399)
(0.0933806 0.000893248 0.0945166)
(0.0990352 -0.0271139 0.0431611)
(0.16634 -0.00191155 0.0746047)
(0.113195 0.000589862 0.16425)
(0.165009 0.000420035 0.0524447)
(0.12059 0.000140329 0.139991)
(0.077159 0.000264718 0.0346852)
(0.148506 0.000420961 0.105195)
(0.170839 -0.000670326 0.00189939)
(0.130034 -0.000471378 0.0806621)
(0.0628395 0.000589336 -0.0243534)
(0.190399 1.33224e-05 0.177589)
(0.046378 8.51915e-05 0.135007)
(0.108491 0.000110886 0.0269127)
(0.200946 0.000442341 0.00118554)
(0.150364 0.000689112 0.126845)
(0.11726 0.000618218 -0.0115458)
(0.00653886 -5.53894e-05 -8.26373e-08)
(0.0637134 -0.000412355 0.105269)
(0.169079 -0.00132154 0.0155209)
(0.147805 -0.0447568 0.0738041)
(0.0826351 0.000390411 0.264162)
(0.177592 0.000654774 0.121493)
(0.167109 0.000283954 0.0842388)
(0.0279448 0.000120602 0.0667095)
(0.107457 0.000883232 0.144648)
(0.110425 -0.0343466 -0.0263817)
(0.202975 -0.00413077 0.0439781)
(0.107718 -0.000221985 0.0516904)
(0.214732 0.000361782 0.131649)
(0.1171 0.000264451 0.0694318)
(0.247458 -0.000762917 0.116516)
(0.269385 -0.00216697 0.092274)
(0.116514 -0.000364062 -0.0125302)
(0.0895231 -0.0107284 0.154342)
(0.120393 0.000309564 0.0613085)
(0.0124101 -0.0001097 -0.00697153)
(0.220227 -0.000214405 0.146992)
(0.205707 0.000495392 0.0145922)
(0.131884 0.000353562 0.155568)
(0.156272 -0.000592491 0.0947219)
(0.113532 -0.000883311 0.0592896)
(0.159445 -0.00202084 0.00473152)
(0.140868 -0.0236114 0.0670988)
(0.177705 -0.00943467 0.0873321)
(0.250367 -0.0769065 0.0523845)
(0.154917 0.00022856 0.0463443)
(0.250105 0.0010003 0.158913)
(0.172958 0.00197231 0.0719709)
(0.339993 0.0028089 0.0770112)
(0.249202 0.000283636 0.00276565)
(0.148135 -0.0059802 -0.00733851)
(-0.00173246 0.0176713 -0.00287122)
(0.226077 0.00103357 0.157006)
(0.220689 0.000903426 0.0322084)
(0.16448 0.000320698 0.225087)
(0.146044 0.000169012 0.0169051)
(0.223785 0.000415633 0.0773658)
(0.221002 -0.000424615 0.239844)
(0.235886 -0.000700729 0.0443076)
(0.33743 -0.000966509 0.0750706)
(0.153216 -0.0194276 0.000817169)
(0.336976 -0.000857354 -0.113377)
(0.305624 -0.00182376 0.0131905)
(0.160466 -0.000436968 0.0829133)
(0.067586 0.041048 0.0287776)
(0.0819452 0.000395285 0.191093)
(0.284445 -0.000123594 0.125305)
(0.0972479 0.0334676 -0.00711468)
(0.103893 -7.94646e-05 -0.013406)
(0.229087 0.000680191 0.0928088)
(0.297538 -0.0206887 0.0444715)
(0.244582 -0.000608958 -0.00427813)
(0.190798 -0.00146728 0.0387784)
(0.33995 -0.00121107 -0.0935681)
(0.105838 0.0545956 0.0543764)
(0.0944583 5.7296e-06 0.125351)
(0.0670131 -8.47019e-05 0.00426155)
(0.214408 0.000401669 0.194663)
(0.33367 -0.109072 -0.00122445)
(0.171581 0.00166115 0.13571)
(0.293909 0.00169681 0.146408)
(0.0871006 -0.0256597 0.112954)
(0.259458 -0.000952883 0.0518909)
(0.237873 -0.00090333 0.0852321)
(0.259543 0.000390853 0.150428)
(0.348583 0.0495478 -0.00146584)
(0.01137 0.000109546 0.0941915)
(0.27466 0.00169812 0.08431)
(0.350554 0.00116423 -0.0483674)
(0.156162 0.386357 0.174861)
(0.351201 -0.000668732 -0.102704)
(0.125746 -0.000507007 0.0515521)
(0.186072 -0.00097935 -0.0328007)
(0.100628 0.000622385 -0.0524041)
(0.225328 -0.000500796 0.0830777)
(0.238857 0.00029857 0.144036)
(0.175274 0.000282419 0.0591524)
(0.07325 0.000334696 0.121827)
(0.324374 0.000220269 -0.0635401)
(0.0613492 7.28363e-05 0.0318959)
(0.251726 -0.00289266 0.0140263)
(0.0990443 0.00038291 -0.0226085)
(0.0435809 -6.49023e-06 0.348349)
(0.153356 0.000128554 0.0716881)
(0.13072 0.0251152 0.0806325)
(0.0721832 -0.123308 -0.00530767)
(0.311569 -0.000943457 0.000559352)
(0.157241 -0.000709849 0.0517344)
(0.197686 0.00775193 0.0411775)
(0.0529175 0.000153717 0.0599843)
(0.31019 0.00119191 0.102785)
(0.122511 -0.000146974 0.128149)
(0.0584838 -0.000492547 0.335961)
(0.154332 -0.0198648 0.20701)
(0.139273 0.00410628 0.0111996)
(0.0915298 0.00306908 0.11094)
(0.156011 -0.0158318 0.0733837)
(0.140875 0.00061766 0.073344)
(0.182225 0.00105135 0.054158)
(0.280086 0.000910345 0.144862)
(0.333725 -0.00106852 0.22217)
(0.101549 0.00796813 0.101824)
(0.13835 0.000585612 0.0373505)
(0.155576 0.000756941 0.11089)
(0.163003 -0.00155919 0.0302057)
(0.172098 -0.00195569 0.0385989)
(0.180926 -0.000944822 0.0943008)
(0.207935 -0.000338114 0.111168)
(0.283281 0.000145492 0.0221516)
(0.155991 0.000617619 0.0474292)
(0.285215 0.000996952 0.0560509)
(0.203711 0.0264129 0.0363435)
(0.0814899 -0.00601724 -0.00545222)
(0.153007 1.62358e-05 0.173226)
(0.333407 -0.000472722 -0.0711615)
(0.141109 -0.0105338 0.0587753)
(0.184154 0.000115799 0.168857)
(0.00628816 9.29117e-05 8.40288e-08)
(0.171848 0.000276374 0.0562025)
(0.340897 -0.000763542 0.0340215)
(0.170416 5.3652e-06 0.0570574)
(0.124984 -0.0480113 0.0951724)
(0.193185 -0.0194243 0.0243536)
(0.34451 -0.00181269 -0.0722036)
(0.188874 0.00980748 0.0159918)
(0.152488 0.000166509 0.131964)
(0.0989261 0.0145633 0.0689036)
(0.205147 0.00717631 0.0664276)
(0.159027 0.000636453 -0.001386)
(0.0669836 -0.000212216 0.152139)
(0.259037 0.000141152 0.160796)
(0.103113 -0.000112376 0.34359)
(0.249378 -0.000310168 0.0444629)
(0.237194 0.00137614 0.0530706)
(0.0094985 -0.0435228 -0.0152748)
(0.254019 -0.00249039 0.013233)
(0.119685 -0.000558084 0.13333)
(0.330921 -0.00207367 -0.0109354)
(0.188185 -0.00114634 -0.0210978)
(0.202947 -0.000622093 0.199883)
(0.157529 -0.0253853 0.0715941)
(0.0791157 0.00047878 0.07239)
(0.334312 0.00263808 0.0190613)
(0.0701144 0.000609297 -0.00864477)
(0.0116508 -0.000112292 -0.0425933)
(0.212732 0.000155192 0.0823765)
(0.254902 -0.000708248 -0.0078893)
(0.249978 -0.00113949 0.120848)
(0.252286 -0.00144301 0.00446872)
(0.270913 0.0645016 0.0272001)
(-0.00783648 -0.00827034 0.00145389)
(0.231942 0.00166243 -0.058982)
(0.16412 0.000660141 0.150885)
(-0.00833942 0.0548547 -0.0520077)
(0 0 0)
(0.10362 -0.00108631 0.139709)
(0.297589 -0.00255214 0.159246)
(0.256252 -0.00135452 0.106824)
(0.0880155 -0.0539331 0.171888)
(0 0 0)
(0.163773 0.00073763 -0.0931029)
(0.210818 -0.0205885 0.0835367)
(0.0473741 -0.0182091 0.0185712)
(0.314256 0.000288886 0.148913)
(0.278409 0.00202659 -0.0186094)
(0.0401972 0.000388919 0.0183289)
(0.335092 0.00139405 0.0013783)
(0.172329 -0.00620751 0.130988)
(0.226537 0.0174507 -0.000733774)
(0.174744 -0.00131305 0.0257785)
(0.11388 -0.000128319 -0.00495187)
(0.220919 0.000207215 0.170431)
(0.123504 0.000563861 0.0288093)
(0.164548 0.000722172 0.237678)
(0.232728 0.00122005 0.0300717)
(0.224076 0.000500247 -6.69492e-05)
(0.118293 -0.0371617 0.0735046)
(0.0975663 0.000360924 0.0841692)
(0.223528 0.000235326 -0.033328)
(0.144794 -0.000957358 0.0680503)
(0.246431 -0.0028973 0.0451565)
(0.252745 -0.00280986 -0.00495512)
(0.210153 -2.68525e-05 0.00808945)
(0.0800756 0.00094074 0.0545391)
(0.210672 0.00062177 0.193027)
(0.0206207 -0.000437263 0.00642289)
(0.183208 -0.000972753 0.0128998)
(0.276593 -0.000820021 0.00129619)
(0.176784 -0.000334279 0.123986)
(0.0798123 -0.0144712 0.0969814)
(0.249925 -0.0132875 0.0368817)
(0.223348 0.0115178 0.281214)
(0.0723413 0.000319658 0.17048)
(0 0 0)
(0.128038 -0.000488688 0.0724294)
(0.0664836 -9.10026e-05 0.0651654)
(0.0519402 -0.150416 0.0451614)
(0.0247619 -0.146174 -9.69817e-08)
(0.0272808 -0.00341958 0.172228)
(0.0746945 0.0330295 0.0696658)
(0.15561 -0.00166288 0.191639)
(0.0155637 -1.54382e-05 -0.000160602)
(0.127218 -0.000487651 -0.0290296)
(0.318322 0.00026976 -0.0128945)
(0.01987 -0.00881346 0.00380192)
(0.0932523 -0.0152131 0.045922)
(0.271313 0.039759 0.0619076)
(0.00802898 8.11771e-05 -0.0225473)
(0.110649 0.000755174 0.162612)
(0.157529 0.000846535 0.0147028)
(0.152265 0.0570271 0.0988669)
(0.201303 8.51115e-05 0.00815142)
(0.125971 -0.00140841 0.071016)
(0.113375 -0.0011608 0.221809)
(0.0513311 -2.20449e-05 0.0196481)
(0.017265 5.99815e-06 -0.0904486)
(0.174767 0.0662586 -0.0443943)
(0.128924 -0.000532441 0.00510371)
(0.0819779 0.0655414 0.0353242)
(0.114142 0.000195989 0.0623808)
(0.140196 0.00747989 -0.0273675)
(0.186083 -0.000273849 0.255316)
(0.0732212 -0.00994035 0.0365134)
(0.0844766 -0.000332715 0.0374703)
(0.161781 -0.000559273 0.0275528)
(0.193782 0.00205622 0.293302)
(0.111556 0.000586263 -0.0337077)
(0.197141 0.0466344 0.031035)
(0.156799 0.0287121 0.0111956)
)
;

boundaryField
{
    wall
    {
        type            zeroGradient;
    }
    outlet
    {
        type            cyclic;
    }
    inlet
    {
        type            cyclic;
    }
    procBoundary3to2
    {
        type            processor;
        value           uniform (0 0 0);
    }
}


// ************************************************************************* //
