/*--------------------------------*- C++ -*----------------------------------*\
| =========                 |                                                 |
| \\      /  F ield         | OpenFOAM: The Open Source CFD Toolbox           |
|  \\    /   O peration     | Version:  2506                                  |
|   \\  /    A nd           | Website:  www.openfoam.com                      |
|    \\/     M anipulation  |                                                 |
\*---------------------------------------------------------------------------*/
FoamFile
{
    version     2.0;
    format      ascii;
    arch        "LSB;label=32;scalar=64";
    class       volScalarField;
    location    "0.005";
    object      p;
}
// * * * * * * * * * * * * * * * * * * * * * * * * * * * * * * * * * * * * * //

dimensions      [0 2 -2 0 0 0 0];

internalField   nonuniform List<scalar> 
512
(
-0.289615
3.4403
6.20501
7.80911
5.21367
4.57647
7.48585
7.75359
4.11632
1.1863
2.13789
3.05104
1.97901
1.54223
3.42573
5.29226
4.78709
3.83842
2.6656
2.33332
3.5063
5.02229
6.09836
6.9083
9.08282
8.84358
4.55247
2.20923
1.27609
-0.675129
-2.57315
-3.51834
-0.183339
3.05455
5.7615
6.44699
5.72785
7.13055
8.31427
6.524
3.12676
0.866158
1.81931
2.70161
1.81613
1.71273
3.55026
5.39758
5.31328
4.59345
3.38055
3.02652
3.70051
4.83092
5.59401
6.14212
8.33801
8.62577
4.96389
2.99622
1.99554
-0.786628
-2.66247
-3.26842
0.585125
3.61917
5.37371
5.71485
6.13468
7.65844
7.99377
5.502
2.36302
0.140947
0.735847
1.43786
1.56579
2.29803
4.28401
5.35346
4.80476
4.09469
3.92794
3.62811
4.96969
6.19021
4.95148
4.85491
6.8884
7.3671
4.90708
3.57255
2.87514
-0.155919
-2.18319
-2.67907
1.21724
4.39249
6.36338
6.13822
5.6933
7.21409
7.1664
4.06124
1.2665
-0.568739
-0.058446
0.667103
0.712361
2.89891
6.25261
5.41007
3.43953
2.3204
4.05267
5.9518
6.53811
5.9973
4.18438
3.90368
5.63371
5.8289
4.11989
4.29127
4.52012
1.73067
-0.645538
-1.3026
2.27408
5.79059
6.72928
6.66662
7.31334
8.21491
5.56304
1.31654
-1.32973
-0.523737
0.649209
0.43197
0.247783
2.99717
6.22669
4.97813
2.58826
2.30093
4.42637
6.50015
6.3371
4.93463
3.59399
3.02983
4.65182
4.76143
3.85916
4.48933
6.02232
4.23311
1.47373
0.312979
3.95059
7.81201
9.90803
8.48397
8.05352
6.96815
2.69877
-1.07062
-2.56303
-0.668543
0.963415
0.286184
-0.0497654
2.51802
5.16567
4.20234
2.9609
3.40911
5.09138
5.97753
5.02572
3.55902
2.57693
2.34639
3.93543
4.85578
3.95336
3.92653
5.94983
6.74595
4.04052
2.1636
6.10192
9.1187
9.75704
8.40085
6.81085
4.85216
0.766422
-2.22353
-3.15105
-0.870408
0.943095
0.233859
-0.163144
2.30102
4.54362
3.73963
2.75646
4.30352
6.76602
5.84901
3.47226
1.95826
1.00186
1.99126
4.61042
5.16446
3.36955
2.30269
4.96541
7.6641
6.64948
5.20389
7.24808
10.8035
11.1454
8.1178
5.27198
3.76676
0.462137
-2.51902
-3.44112
-0.862032
1.20498
0.53439
0.00578839
2.21605
4.18287
3.27903
2.64092
5.20558
7.93321
5.77795
2.32745
0.464118
-0.134477
2.04128
5.1939
4.57208
2.74028
2.85366
5.04201
6.53632
6.90599
6.24501
0.394933
3.43657
6.00717
5.97589
5.22479
7.01754
9.03352
7.68128
4.81145
2.69795
1.5799
1.15523
1.51175
2.41456
3.17277
3.57645
3.87624
3.21548
3.01098
3.54306
3.20421
3.3531
6.38346
9.79679
9.07
5.97297
3.65161
2.79883
2.13808
0.166187
-1.5046
-2.27764
1.01164
3.59509
5.14046
5.1406
5.51196
7.80449
9.20763
7.29687
4.41658
2.39925
1.22929
0.88577
1.37354
2.13064
2.96875
3.68563
4.62252
4.36624
3.61395
3.61571
3.49355
3.32548
5.35912
8.7408
8.8664
6.08323
4.1275
3.82335
2.84076
-0.039771
-1.80069
-2.22147
1.33831
4.04253
5.50662
5.37646
5.62153
7.97799
8.91267
6.4069
3.46092
1.67605
0.765664
0.650475
0.907869
1.99346
3.20557
4.05801
4.25894
3.92674
4.21516
3.89531
3.9646
4.14068
4.64258
5.75165
6.87997
6.61465
4.49558
4.04295
3.50656
0.543218
-1.43673
-1.80563
1.9766
4.55488
4.99037
4.78135
6.37767
8.93631
8.44266
4.78101
2.07748
0.379466
-0.694077
-0.0633425
1.18294
2.31692
3.17463
3.96864
3.92073
3.62914
4.05477
4.61165
5.39911
4.91852
3.566
3.73793
5.71939
5.57266
3.86545
4.51142
4.96523
2.29931
0.000812377
-0.538294
2.9479
5.77244
6.37142
6.03305
7.31057
9.24068
6.70288
2.30568
-0.0527349
-0.480731
-0.362185
0.21111
1.19714
2.24035
3.1254
4.12651
3.93542
3.36518
4.23593
5.11029
5.5311
3.71079
1.97349
2.92458
5.02078
5.06892
4.20252
4.93933
6.19747
4.36233
1.87339
1.09358
4.96576
7.59342
8.03506
7.43279
7.7465
7.406
4.10846
-0.0195124
-1.73095
-1.14298
-0.268392
0.150552
0.837144
2.01171
3.056
4.16093
3.87558
3.19307
4.86383
6.14519
4.5846
1.91332
0.0604138
2.21497
5.25257
6.25181
4.50058
4.50474
6.0787
6.40026
3.97432
2.93431
5.98242
8.13613
9.08665
9.08
8.22512
5.66028
1.35411
-1.70572
-2.65845
-1.15061
-0.0717554
0.10643
0.737821
2.24558
3.4763
3.43118
3.11204
3.94262
5.51964
5.90897
3.5042
0.838362
-0.388572
2.34854
5.51546
5.81839
3.60688
2.44306
4.91813
7.60206
7.03529
5.35239
6.33907
8.30719
9.57993
9.32191
7.92848
5.36123
1.00436
-2.29884
-3.12185
-0.946447
0.703473
0.380952
0.658986
2.30099
3.44683
3.28932
3.27966
4.37157
5.45925
5.43558
3.0161
0.548923
-0.569186
2.09872
5.31129
4.46061
2.7166
2.82355
4.87677
6.6841
7.34919
6.08447
)
;

boundaryField
{
    wall
    {
        type            zeroGradient;
    }
    outlet
    {
        type            cyclic;
    }
    inlet
    {
        type            cyclic;
    }
    procBoundary0to1
    {
        type            processor;
        value           nonuniform List<scalar> 
256
(
2.53906
4.58712
5.4009
4.93012
5.24771
7.60031
9.10266
7.46627
6.01497
4.46675
0.425839
-1.31115
0.860372
3.40037
3.52602
2.67217
2.43594
2.3233
2.06827
2.95502
3.08153
3.56992
6.45373
9.31854
7.63588
5.09468
4.09186
3.06182
1.78734
0.956228
0.278353
-0.11108
2.71557
5.37895
5.71742
4.6868
4.74082
7.54067
9.42425
7.4413
5.64216
4.28877
0.491479
-1.28582
0.604058
2.7147
2.95108
2.88249
3.00541
2.88243
2.96851
3.13202
2.99653
2.75248
5.26436
8.70809
7.56297
5.17886
4.42314
3.99657
2.65757
0.822141
-0.0771906
-0.290147
2.54688
5.61744
6.01289
4.90017
5.04367
8.19012
9.38259
6.38513
4.23198
3.04493
0.612877
-0.0566806
0.468107
1.49137
2.30128
3.29054
3.61059
3.07824
3.33276
3.73854
3.42334
2.75248
3.84157
6.6473
6.9184
5.22139
4.48599
4.3867
4.34181
1.92416
0.0372636
-0.259414
2.78001
5.2843
5.73867
5.02028
6.30322
8.88643
8.7409
5.1802
2.40828
0.489268
-0.415198
0.616559
1.07511
0.940399
1.56885
3.23149
3.84398
3.00129
3.21255
4.47662
3.91628
3.38225
3.60802
4.34967
5.01238
4.67702
4.36314
5.14738
5.61558
3.11702
1.14207
0.700052
4.95652
6.44614
5.89227
6.30799
8.10552
9.10474
6.63143
2.92189
1.30358
-0.51417
-1.4058
-0.115529
1.53899
1.47829
1.65182
2.64623
3.03899
4.00496
4.04587
3.70925
4.20223
3.71653
2.56131
2.91474
4.97913
5.46071
4.68333
5.22732
6.26677
4.48991
2.55427
2.6327
5.36279
6.59605
7.5311
8.29173
8.01218
6.91071
4.48458
1.04454
-0.297321
-0.845175
-1.16522
-0.37056
0.740953
1.46178
2.16976
3.17368
3.48909
3.53133
4.1557
4.60518
3.8346
1.62729
1.04631
2.35199
4.97529
5.88151
4.44325
4.42646
6.03321
6.30587
4.43139
4.38827
5.29439
6.88369
9.33021
10.2801
7.19408
4.91634
2.72941
0.0124433
-1.06791
-0.920623
-0.959935
-0.476882
0.637338
1.76772
2.52403
2.88146
3.22156
3.73718
4.68463
4.8801
2.97055
0.918041
0.522471
2.84214
5.20285
5.26512
3.50304
2.62575
4.95133
7.93291
7.90256
5.57087
5.44819
7.87056
10.9728
9.43228
5.90351
4.45778
2.69027
0.0701811
-1.29035
-0.965818
-0.712694
-0.388109
0.604076
2.22664
3.05388
2.9393
3.0487
3.66089
4.30309
4.13893
2.45913
1.11919
0.933138
2.93708
5.05011
3.9651
2.63202
3.14775
4.71353
7.00147
8.33054
5.99496
)
;
    }
}


// ************************************************************************* //
