/*--------------------------------*- C++ -*----------------------------------*\
| =========                 |                                                 |
| \\      /  F ield         | OpenFOAM: The Open Source CFD Toolbox           |
|  \\    /   O peration     | Version:  2506                                  |
|   \\  /    A nd           | Website:  www.openfoam.com                      |
|    \\/     M anipulation  |                                                 |
\*---------------------------------------------------------------------------*/
FoamFile
{
    version     2.0;
    format      ascii;
    arch        "LSB;label=32;scalar=64";
    class       volScalarField;
    location    "0.009";
    object      p;
}
// * * * * * * * * * * * * * * * * * * * * * * * * * * * * * * * * * * * * * //

dimensions      [0 2 -2 0 0 0 0];

internalField   nonuniform List<scalar> 
512
(
-0.332957
-0.2888
0.0609923
-0.00290168
-0.265894
-0.463087
-0.424825
-0.120089
0.0707133
-0.210175
-0.490509
-0.261691
-0.0152021
0.0126725
0.015789
-0.103517
-0.113871
0.193051
0.388608
0.333982
0.203824
0.517422
0.651007
0.498426
0.504842
0.547239
0.458859
0.336117
0.192906
0.153327
0.319752
0.097888
-0.194883
-0.0701765
0.104578
-0.0831371
-0.377642
-0.537792
-0.368555
-0.088344
-0.0486383
-0.33353
-0.345311
-0.158859
-0.0659602
-0.068859
-0.124489
-0.149708
-0.0614052
0.240641
0.437406
0.373126
0.136697
0.184436
0.553602
0.650299
0.565704
0.572489
0.511029
0.30725
0.291824
0.112919
-0.0185728
-0.0198406
-0.0457159
0.10352
0.109693
-0.14828
-0.50868
-0.533062
-0.314484
-0.110395
-0.196405
-0.470835
-0.320911
0.049162
0.00210157
-0.178937
-0.154675
-0.0693291
0.0821956
0.21884
0.32612
0.312205
0.149179
0.328463
0.651446
0.522852
0.412444
0.645669
0.677496
0.494561
0.328386
0.135852
-0.127385
-0.114416
0.0101092
0.0884007
0.00235337
-0.218804
-0.514639
-0.547173
-0.350633
-0.166347
-0.464749
-0.8545
-0.354345
0.0518242
-0.0882507
-0.1655
0.0752012
0.164487
0.277866
0.275402
0.0163997
0.0430616
0.237876
0.138456
0.392147
0.527709
0.468487
0.54864
0.553963
0.446727
0.289776
0.289617
0.317376
0.115658
0.00374894
-0.251216
-0.134041
0.0443847
-0.251079
-0.506575
-0.440714
-0.310123
-0.578044
-0.651773
-0.273106
0.040854
-0.0675405
-0.124153
0.153811
0.190776
0.15241
0.117939
0.142615
0.329047
0.331265
0.154675
0.335015
0.44372
0.469855
0.467769
0.284452
0.11538
0.317007
0.653789
0.6945
0.312927
-0.171106
-0.188758
0.249031
0.248709
-0.158979
-0.360368
-0.465343
-0.677825
-0.846864
-0.603038
-0.173458
0.0157147
-0.13514
-0.278533
0.0679554
0.280213
0.285976
0.220833
0.126664
0.299776
0.328148
0.149214
0.307574
0.2487
0.307601
0.387687
0.45993
0.360155
0.226944
0.518593
0.729452
0.355263
0.0369053
0.0292874
0.383421
0.306117
-0.132724
-0.579274
-0.860425
-0.921999
-0.840982
-0.592764
-0.201141
0.00600947
-0.107548
-0.288471
-0.06741
0.284309
0.204916
-0.00966462
0.149643
0.471425
0.40335
0.126743
0.106327
0.0498335
0.263973
0.477866
0.64498
0.493607
0.226597
0.410142
0.635444
0.431277
-0.0278017
-0.196814
0.403046
0.446111
-0.235397
-0.69627
-0.695154
-0.550304
-0.742331
-0.830048
-0.248876
0.122785
-0.0364892
-0.248082
-0.0666161
0.24956
0.129287
0.00948568
0.367418
0.612164
0.406788
-0.0799884
-0.331351
-0.136745
0.31766
0.776776
0.866053
0.605558
0.400183
0.258149
0.403667
0.520895
-0.221628
-0.258369
0.0380291
-0.0111383
-0.222638
-0.453661
-0.278058
-0.0409146
-0.230171
-0.563691
-0.315248
-0.149777
-0.341548
-0.0867808
0.163816
0.0847997
0.0550057
0.108694
0.249154
0.595615
0.664048
0.540484
0.295941
0.251944
0.432269
0.208323
0.12974
0.378977
0.426241
0.394218
0.463055
0.252315
-0.113939
-0.175136
0.00384037
-0.177833
-0.440585
-0.439036
-0.208139
-0.012872
-0.219878
-0.647098
-0.496001
-0.181327
-0.281018
-0.141083
0.0285464
0.120587
0.225416
0.358365
0.288171
0.370389
0.483817
0.416787
0.289432
0.325786
0.476513
0.382876
0.309289
0.437301
0.429091
0.256524
0.208921
0.221011
-0.158413
-0.0727651
0.046067
-0.207689
-0.509727
-0.385823
-0.217053
-0.0990041
-0.257436
-0.591312
-0.633596
-0.370561
-0.204325
-0.0879492
0.152705
0.0974409
0.128022
0.307317
0.397461
0.5173
0.336445
0.361566
0.518078
0.466718
0.43517
0.449078
0.50446
0.483913
0.378991
0.259824
0.0966193
0.0230738
0.0734956
-0.0111731
-0.147845
-0.154316
-0.33613
-0.361267
-0.136425
-0.0573641
-0.531631
-1.03789
-0.512776
-0.164029
-0.182367
0.0147693
0.178402
0.160526
0.270176
0.256847
-0.0149307
0.16659
0.32928
0.31683
0.500591
0.48134
0.371654
0.397762
0.436619
0.38507
0.299209
0.367176
0.343586
0.154127
0.0188964
-0.202596
-0.135837
0.0476908
-0.0627425
-0.291311
-0.388281
-0.538796
-0.779237
-0.66171
-0.323164
-0.335831
-0.226933
0.135597
0.259193
0.144203
0.192151
0.222215
0.203989
0.285975
0.343572
0.319454
0.375283
0.298404
0.366568
0.476188
0.30831
0.0578492
0.291015
0.665206
0.665833
0.307459
0.04609
-0.0512654
0.150675
0.22215
-0.116772
-0.232548
-0.398444
-0.738619
-0.970654
-0.74504
-0.348925
-0.195569
-0.103969
0.0295756
0.190712
0.196335
0.253149
0.220901
0.250049
0.42459
0.354506
0.167647
0.0874282
0.0417386
0.262862
0.515036
0.505183
0.366098
0.319731
0.532959
0.635594
0.361257
-0.0124189
0.0654485
0.334307
0.518663
0.242073
-0.361145
-0.904356
-1.36203
-1.36562
-0.641346
-0.160527
-0.153434
-0.209112
-0.0929709
0.0723987
0.17833
0.187793
0.148933
0.384519
0.595777
0.452574
0.158153
-0.0967929
-0.167938
0.258501
0.494193
0.56909
0.444675
0.28861
0.43646
0.56806
0.346441
-0.180483
-0.18477
0.284529
0.693185
0.421006
-0.581025
-0.989415
-1.03573
-1.15729
-0.638126
-0.0780742
-0.0340973
-0.112838
-0.0543563
0.065711
0.152684
0.135103
0.150407
0.443521
0.597639
0.453796
0.062555
-0.229178
-0.356273
0.0568311
0.773736
0.863958
0.585249
0.499317
0.407492
0.448577
0.333787
)
;

boundaryField
{
    wall
    {
        type            zeroGradient;
    }
    outlet
    {
        type            cyclic;
    }
    inlet
    {
        type            cyclic;
    }
    procBoundary0to1
    {
        type            processor;
        value           nonuniform List<scalar> 
256
(
0.121819
-0.227646
-0.148855
-0.145996
-0.45757
-0.552691
-0.245666
-0.0240736
-0.102531
-0.277434
-0.162027
-0.311943
-0.540781
-0.201377
0.153615
0.0238098
-0.0474772
-0.0122135
0.240601
0.525206
0.654287
0.514861
0.293805
0.329245
0.58512
0.449788
0.188761
0.262172
0.195197
0.124813
0.380736
0.443925
0.0971493
-0.0838322
0.0878152
-0.224094
-0.684186
-0.606083
-0.201607
-0.000859931
-0.107338
-0.374994
-0.256423
-0.290268
-0.490161
-0.120809
0.0628829
-0.143417
0.00949913
0.139891
0.198274
0.450479
0.625784
0.477098
0.292159
0.477292
0.608649
0.407256
0.27189
0.435504
0.34531
0.173807
0.117185
0.279758
-0.0916818
-0.116617
0.0242714
-0.220713
-0.552821
-0.515366
-0.201957
-0.0323189
-0.155069
-0.450147
-0.291577
-0.114658
-0.426155
-0.376041
-0.0211059
0.121392
0.156483
0.0879588
0.126424
0.428461
0.420922
0.406322
0.410523
0.419144
0.475352
0.329821
0.28504
0.436555
0.416811
0.426091
0.306577
0.13903
-0.0867177
-0.251919
-0.110791
0.0119518
-0.24699
-0.505459
-0.338888
-0.19459
-0.462853
-0.476004
-0.322066
-0.290869
-0.212347
-0.0781604
0.06902
0.0921545
0.0860467
0.161945
0.332345
0.597158
0.465932
0.250643
0.322485
0.355132
0.32284
0.246416
0.250193
0.355136
0.417471
0.550082
0.491754
0.243854
0.096351
-0.00986553
-0.223226
-0.206583
-0.190272
-0.110985
-0.251948
-0.365191
-0.491438
-0.488714
-0.438288
-0.3814
-0.178507
0.0716835
0.012697
-0.0221093
0.169951
0.278856
0.304219
0.427806
0.385136
0.244753
0.259709
0.346555
0.308345
0.370928
0.382609
0.258646
0.270697
0.522707
0.538856
0.259673
-0.150827
-0.04597
-0.00453509
0.182191
0.0136761
-0.309483
-0.416001
-0.566953
-0.724594
-0.664836
-0.505455
-0.27793
-0.113867
-0.000588954
0.124194
0.18195
0.176415
0.164406
0.258447
0.456583
0.462726
0.352786
0.183451
0.122056
0.297335
0.403056
0.405067
0.422914
0.400638
0.583028
0.589328
0.113488
-0.166418
-0.20851
0.282701
0.568966
0.211501
-0.574474
-0.839429
-0.659018
-0.70526
-0.723508
-0.24113
-0.148851
-0.310277
-0.0689423
0.140305
0.0850512
0.141053
0.33475
0.337801
0.380592
0.355014
0.169739
-0.0306251
0.087155
0.461161
0.490915
0.466272
0.393983
0.255731
0.444721
0.557381
0.288544
-0.257713
-0.0648541
0.374035
0.533962
0.133097
-0.655245
-0.84977
-0.427988
-0.584645
-0.695947
-0.245332
-0.0715444
-0.154472
0.0359508
0.0179037
-0.0822925
0.101568
0.339151
0.448259
0.360532
0.144919
0.0137633
0.027226
0.021514
0.336961
0.778719
0.766502
0.463018
0.327466
0.394154
0.49452
0.260728
)
;
    }
}


// ************************************************************************* //
