/*--------------------------------*- C++ -*----------------------------------*\
| =========                 |                                                 |
| \\      /  F ield         | OpenFOAM: The Open Source CFD Toolbox           |
|  \\    /   O peration     | Version:  2506                                  |
|   \\  /    A nd           | Website:  www.openfoam.com                      |
|    \\/     M anipulation  |                                                 |
\*---------------------------------------------------------------------------*/
FoamFile
{
    version     2.0;
    format      ascii;
    arch        "LSB;label=32;scalar=64";
    class       surfaceScalarField;
    location    "0.009";
    object      phi;
}
// * * * * * * * * * * * * * * * * * * * * * * * * * * * * * * * * * * * * * //

dimensions      [0 3 -1 0 0 0 0];

oriented        oriented;

internalField   nonuniform List<scalar> 
1200
(
0.00151218
4.32678e-07
-5.56054e-07
0.00151192
3.66134e-08
2.31991e-07
0.00151228
-6.25275e-07
2.63761e-07
0.00151656
-1.59215e-06
-2.6925e-06
0.00151902
-7.00282e-07
-1.7558e-06
0.00151026
4.66191e-06
4.09751e-06
0.0014996
4.92966e-06
5.72475e-06
0.00150398
-1.10999e-06
-3.26393e-06
0.00150451
2.49611e-07
-7.76265e-07
0.00149884
2.4013e-06
3.26216e-06
0.00150265
-1.09793e-06
-2.70831e-06
0.00151144
-1.06166e-06
-7.73409e-06
0.00150947
-3.49287e-07
2.32741e-06
0.00150378
1.20526e-07
5.56633e-06
0.0015026
9.76078e-07
2.05114e-07
0.00150566
8.3587e-07
-3.90054e-06
0.00150826
1.03651e-06
-3.6321e-06
0.00150913
-4.22011e-07
-4.50121e-07
0.00150531
-1.01605e-06
4.83172e-06
0.00150267
1.11679e-07
2.53555e-06
0.00150559
8.02778e-07
-3.72489e-06
0.00150773
1.48971e-06
-3.62964e-06
0.00150931
-3.47159e-07
-1.23515e-06
0.00151174
-2.83281e-06
4.00287e-07
0.00151551
-3.7719e-07
-3.38679e-06
0.00151799
2.40078e-06
-4.88253e-06
0.00150872
3.22675e-06
6.04743e-06
0.0015031
1.24766e-06
4.36879e-06
0.00150657
-3.52902e-06
6.17673e-08
0.00151037
-2.79422e-06
-1.00992e-06
0.00150981
-2.89521e-07
8.4904e-07
2.4919e-06
1.66845e-06
0.00154126
-4.25176e-06
-7.52221e-07
0.00153795
2.43255e-08
3.32146e-06
0.00153315
1.49273e-06
2.67759e-06
0.00152943
2.83676e-06
-7.01956e-07
0.00152796
2.52739e-06
-1.75821e-06
0.00152861
2.69445e-06
1.30851e-06
0.00152761
3.39921e-06
2.53912e-06
0.00153206
-2.72275e-06
-2.84321e-06
0.00153879
-3.82462e-06
-2.65684e-06
0.00153748
2.91065e-06
8.01505e-07
0.00153221
3.44763e-06
7.28464e-07
0.00153195
5.58804e-07
-1.3603e-06
0.00153038
-1.4919e-06
2.71355e-06
0.00152566
2.44801e-07
4.58998e-06
0.00152656
7.64556e-08
2.90581e-09
0.00152853
8.68625e-07
-2.00233e-06
0.00153249
-1.50942e-07
-2.76906e-06
0.00153818
-2.90335e-06
-3.21396e-06
0.00153674
-3.21572e-07
7.48968e-07
0.00152858
3.05763e-06
5.21653e-06
0.00152642
1.02659e-06
1.93475e-06
0.00153707
-4.46129e-06
-4.70482e-06
0.00154404
-5.54058e-06
-1.77301e-06
0.00154245
-2.28917e-06
1.04242e-06
0.00154147
2.17231e-06
-1.56296e-06
0.00154437
3.3795e-06
-3.88148e-06
0.001544
2.0272e-06
1.57283e-06
0.001544
-3.86741e-08
1.28454e-06
0.00153893
7.9338e-07
7.42602e-07
0.00153102
2.72902e-06
2.38816e-06
0.00152863
3.99506e-07
1.70431e-06
-3.05757e-06
-1.64315e-06
0.00154214
-1.10029e-05
-2.75403e-06
0.00154526
-4.87723e-06
1.77843e-06
0.00154232
1.62304e-06
2.80866e-06
0.00153689
7.09572e-06
1.1738e-06
0.00153174
7.50936e-06
1.6485e-07
0.00152782
4.80259e-06
1.81369e-06
0.00152783
-1.07974e-07
3.49694e-06
0.00153459
-6.97281e-06
-2.51454e-06
0.00153924
-5.22879e-06
-3.24381e-06
0.00153757
5.95199e-06
-1.37119e-06
0.00153572
5.18675e-06
1.09271e-07
0.0015348
2.59585e-06
-1.11599e-06
0.00153458
-1.32549e-07
-1.13835e-06
0.00153117
1.18467e-06
2.4733e-06
0.00152927
5.35109e-07
1.4357e-06
0.00153021
-6.0031e-08
-4.02438e-09
0.00153473
-3.19021e-06
-1.47967e-06
0.00153843
-5.4414e-06
-1.1698e-06
0.00153405
3.02889e-06
1.03575e-06
0.00153142
5.21802e-06
4.64716e-07
0.00153531
-3.80847e-07
-2.48453e-06
0.00153663
-2.66831e-06
-3.11151e-06
0.00153364
-2.44647e-06
-1.05501e-07
0.00153217
-2.68981e-06
1.87171e-06
0.00153921
-2.13183e-06
-2.73706e-06
0.0015471
6.10553e-07
-5.12045e-06
0.00154797
8.2305e-07
3.35122e-07
0.00154342
2.38569e-06
2.12987e-06
0.00153517
6.55443e-06
2.48659e-06
0.0015265
8.91465e-06
2.48669e-06
0.00152401
1.18396e-06
1.70551e-06
-9.90897e-06
-1.77157e-06
0.0015345
-1.26307e-05
-8.81608e-07
0.00153119
-3.29984e-06
1.73589e-06
0.00152823
3.14122e-06
1.44092e-06
0.00152822
4.74558e-06
2.35328e-06
0.00152334
9.36659e-06
3.02691e-06
0.00152043
5.43291e-06
2.27968e-06
0.00152794
-4.30271e-06
-3.31957e-06
0.00153022
-4.2014e-06
-5.04586e-06
0.00152883
-1.12033e-06
-2.72002e-06
0.00153252
2.66458e-06
-4.0342e-07
0.00153513
3.75097e-06
-1.17178e-06
0.0015361
1.47886e-06
1.48903e-07
0.00153343
-1.94277e-06
4.47433e-06
0.00153336
-7.0592e-08
1.32646e-06
0.00153184
8.40482e-07
1.21483e-06
0.00152931
3.2238e-07
2.15349e-06
0.00152551
2.13022e-09
6.07666e-07
0.00152243
-1.27903e-06
-1.0862e-06
0.00152638
-1.29905e-06
3.78481e-07
0.00153092
3.65574e-07
3.13932e-07
0.00153004
-8.09409e-08
5.73434e-07
0.00153459
-4.7871e-06
-2.43174e-06
0.0015362
-3.58793e-06
-4.64412e-07
0.00153405
-1.90033e-06
1.3578e-06
0.00153686
-3.66235e-06
-1.27933e-06
0.00154034
-1.47768e-06
-1.39252e-06
0.00153653
3.30883e-06
1.33092e-06
0.00153177
4.81037e-06
2.3318e-06
0.00153275
5.294e-06
2.76541e-07
0.00153316
6.87146e-06
1.63578e-06
0.00152833
3.96148e-06
2.05814e-06
-1.23464e-05
-1.22681e-06
0.00152388
-8.87607e-06
3.34754e-06
0.00152198
-7.26057e-07
-6.80553e-07
0.00152763
-1.25644e-06
-1.24566e-06
0.00153107
-1.39142e-06
2.69639e-06
0.00153687
7.08238e-07
2.8521e-06
0.001542
-1.06884e-06
1.3773e-06
0.00154241
-3.91519e-06
-7.95594e-07
0.00154184
-3.50149e-06
-1.37919e-07
0.00153696
4.65337e-06
-8.93215e-07
0.00153626
6.08769e-06
-2.71733e-06
0.0015408
4.33665e-06
-5.12386e-06
0.00154
7.67792e-07
1.507e-06
0.00153653
-2.35294e-06
3.88255e-06
0.00153755
-2.43154e-08
-1.07357e-06
0.00153803
1.26973e-06
-9.00282e-07
0.00153543
4.99672e-07
2.42211e-06
0.00153447
-7.24069e-07
1.68537e-06
0.00153601
-2.7633e-06
-5.56887e-08
0.00153677
-1.09897e-06
-9.66888e-07
0.00153592
-4.00187e-07
1.61733e-06
0.00153578
-1.28661e-06
1.34655e-06
0.0015381
-3.66111e-06
-3.44583e-06
0.00153898
-3.11181e-06
-1.35198e-06
0.0015346
5.68392e-07
1.90911e-06
0.00152949
4.02825e-07
1.04401e-06
0.00152765
1.74099e-06
-1.38146e-06
0.00152977
1.61599e-06
-4.26972e-07
0.00153473
2.58564e-07
-4.05472e-07
0.00153797
3.70115e-06
-1.64936e-06
0.0015378
6.83613e-06
2.09685e-07
0.00153654
3.06352e-06
2.16045e-06
-1.02663e-05
3.47667e-06
0.00153038
-1.07979e-05
1.36716e-06
0.00153732
-1.59783e-06
-6.07055e-06
0.00153932
1.27976e-06
-4.53602e-06
0.00153839
-2.61569e-06
2.15341e-06
0.00153927
-2.91119e-06
2.73363e-06
0.00153575
-3.33702e-07
2.78446e-06
0.00152949
1.2759e-06
1.07385e-06
0.00152645
-3.06288e-07
-1.57242e-07
0.00153263
1.2285e-06
-2.75299e-06
0.00153814
3.18659e-06
-2.60839e-06
0.00154189
2.7907e-06
-2.20438e-06
0.00154038
4.89004e-07
1.79062e-06
0.00153587
-2.07084e-06
4.22843e-06
0.00153545
9.61718e-08
2.99662e-07
0.00153277
3.54862e-06
3.94935e-07
0.00153128
3.69302e-07
1.62387e-06
0.00153483
-3.31518e-06
-9.55838e-07
0.00153305
-5.55534e-07
-4.36105e-07
0.00153012
5.72492e-07
1.26094e-06
0.00153241
-3.90675e-06
1.21947e-06
0.0015379
-5.20843e-06
-1.56773e-06
0.00154089
-2.90215e-06
-3.75182e-06
0.00154095
-7.91007e-07
-2.37793e-06
0.00153349
3.57795e-06
4.44982e-06
0.00152849
2.51587e-06
2.88729e-06
0.00153192
2.20229e-07
-1.91002e-06
0.00153178
2.37425e-06
-6.21179e-07
0.0015297
1.40953e-06
9.31387e-07
0.00153377
1.13247e-06
-1.4961e-06
0.00154001
2.27022e-06
-1.67956e-06
0.00153839
4.8705e-06
-1.86518e-07
-3.56181e-06
1.86523e-06
0.00153394
-3.74892e-06
-2.3967e-06
0.0015315
4.02071e-06
-3.17956e-06
0.00152805
4.16447e-06
5.68646e-07
0.00152698
-4.00704e-06
2.45314e-06
0.00152869
-3.57422e-06
-1.04321e-06
0.00153152
1.54848e-06
-4.71096e-06
0.00153232
1.4043e-06
-9.29238e-07
0.00153166
-1.77139e-06
2.12397e-06
0.0015361
-3.15613e-06
-5.78853e-08
0.00153901
2.75921e-06
-2.48298e-06
0.00154219
3.19343e-06
-3.57701e-06
0.00154036
5.04957e-07
1.81028e-06
0.00153404
-1.02743e-06
5.2809e-06
0.00153396
-3.45679e-07
5.20499e-07
0.00153887
1.89184e-06
-3.25865e-06
0.00153854
3.64571e-07
3.4287e-07
0.00153566
-2.39764e-06
1.95537e-06
0.00153392
-3.39774e-07
1.53041e-06
0.00153212
8.93741e-07
1.47306e-06
0.00153252
-5.11112e-06
8.04412e-07
0.00153325
-4.85926e-06
-1.07602e-06
0.00153436
-1.45351e-07
-3.87115e-06
0.00153178
2.9444e-06
-1.15007e-06
0.00152588
5.05337e-06
4.42054e-06
0.0015231
3.78824e-06
1.50667e-06
0.00152662
-2.01537e-06
-1.27992e-06
0.00152951
-4.56511e-08
-4.687e-07
0.00152786
2.66066e-06
4.01412e-07
0.00153141
-1.55596e-06
-8.62874e-07
0.00153714
-2.97744e-06
-4.8518e-07
0.00154023
2.72466e-06
-9.40486e-07
-6.87222e-07
-1.23931e-06
0.00150503
-9.26899e-07
0.0015124
-3.35491e-06
0.00151487
1.70232e-06
0.00150748
3.37879e-06
0.00150439
-4.86082e-07
0.00150963
-3.69352e-06
0.00151146
-4.21004e-07
0.00150464
5.05183e-06
0.00149816
3.31941e-06
0.00150681
-5.89268e-06
0.00151545
-5.44568e-06
0.00151315
2.81112e-06
0.00150616
5.95956e-06
0.0015054
4.10951e-07
0.00151117
-3.87666e-06
0.00151165
-1.15326e-07
0.00150765
1.60636e-06
0.00150661
6.97982e-07
0.00150631
1.19728e-06
0.00149913
2.06325e-06
0.00149127
2.99698e-06
0.0014962
-5.06976e-06
0.00150437
-5.22598e-06
0.00150694
2.47936e-06
0.00150741
3.32646e-06
0.00150487
5.19516e-07
0.00150512
-2.99568e-07
0.00150701
7.75005e-07
0.00150536
9.76591e-08
0.00150298
-5.98688e-07
0.0015074
-1.70221e-06
-1.13348e-06
0.00153629
-1.06437e-07
0.00153482
4.60268e-07
0.00153331
-4.65982e-07
0.00152985
9.04233e-07
0.00152653
2.50322e-06
0.00152328
1.53574e-06
0.001522
1.38712e-06
0.00152092
-1.71688e-06
0.00152343
-1.94037e-06
0.00153067
-5.53345e-07
0.00153499
-9.90829e-08
0.00153164
-1.07802e-08
0.00152919
-4.90291e-07
0.00152843
-4.44549e-07
0.00152587
5.32603e-07
0.00152469
8.4222e-07
0.00152324
1.76807e-06
0.00152441
-1.99008e-06
0.00153121
-3.05655e-06
0.00153475
-1.23068e-06
0.00153144
9.40008e-07
0.001529
3.49729e-06
0.00153032
1.95836e-06
0.00153595
-3.11049e-06
0.00153457
-1.01195e-06
0.0015275
3.64341e-06
0.0015301
2.14631e-06
0.00153374
-1.17997e-06
0.00153694
-2.34011e-06
0.00153408
-5.85562e-07
0.00153113
-2.19293e-07
-1.69069e-06
0.00156482
-3.94834e-06
0.00156771
-1.45088e-06
0.00156593
1.84358e-07
0.0015613
4.18141e-06
0.00155465
6.22724e-06
0.00154815
4.20276e-06
0.00154715
1.66363e-06
0.00154888
-3.32383e-06
0.00155276
-4.50094e-06
0.00156026
-4.64457e-06
0.0015655
-1.25656e-07
0.00156589
1.10948e-06
0.0015638
-2.85019e-07
0.00156368
4.32849e-07
0.00156237
-2.17188e-07
0.00156114
1.95644e-06
0.00156131
1.45511e-06
0.00155563
-5.48396e-07
0.00155323
-1.48425e-06
0.00155789
-1.46343e-06
0.00156066
1.10853e-06
0.00155763
4.7501e-06
0.00156219
-6.72388e-08
0.00156864
-4.56633e-06
0.00156712
-1.5746e-07
0.00156165
4.19756e-06
0.00156289
8.56462e-07
0.001566
-2.4572e-06
0.00156468
1.09997e-08
0.00155853
2.98831e-06
0.00155498
6.17148e-07
-2.06947e-06
0.00156216
-1.05383e-05
0.00156796
-4.88727e-06
0.00156659
3.67357e-06
0.00155981
8.75882e-06
0.00155342
7.62273e-06
0.00154991
2.01785e-06
0.00155637
-6.00948e-06
0.00156497
-1.12463e-05
0.00156764
-5.39218e-06
0.00155677
5.84672e-06
0.00155321
4.33755e-06
0.00155688
1.20339e-06
0.00155479
1.68021e-06
0.00154929
1.25625e-06
0.00154627
4.88287e-07
0.00154918
-7.85535e-07
0.00155539
-3.90521e-06
0.00155773
-3.62803e-06
0.00155653
1.04229e-06
0.00155382
2.73726e-06
0.00155412
1.07611e-06
0.00156291
-1.7532e-06
0.00156808
-1.832e-06
0.00156901
-1.51206e-06
0.00156976
7.69302e-07
0.00156887
1.7633e-06
0.00156754
-8.45116e-07
0.00156342
3.14234e-08
0.00155787
5.15082e-06
0.00154989
8.70074e-06
0.00154485
3.0818e-06
-8.67941e-06
0.00155806
-7.09592e-06
0.00155436
-3.00519e-06
0.0015559
1.70005e-06
0.0015583
6.63057e-06
0.00156014
5.37154e-06
0.00155958
2.12594e-07
0.00155435
-4.93353e-06
0.00154404
-4.91545e-06
0.00153519
1.34137e-06
0.00153751
4.60637e-06
0.00153637
4.96581e-06
0.00153405
2.68963e-06
0.00153862
4.2576e-07
0.00154407
-2.43464e-06
0.00154806
-3.2143e-06
0.00154931
-2.30731e-06
0.00154658
-2.08282e-06
0.0015429
-1.03228e-06
0.00154706
-1.35289e-06
0.00155362
-1.07978e-06
0.00156026
-2.75368e-06
0.00156478
-6.48968e-06
0.00156527
-1.66256e-06
0.0015623
2.80634e-06
0.00156215
1.6399e-06
0.00156361
-7.9692e-07
0.00156
7.76531e-07
0.00155631
3.76992e-06
0.0015585
4.55476e-06
0.00156009
7.69132e-06
0.00155845
5.1602e-06
-9.22773e-06
0.00155739
-6.37065e-06
0.00155558
1.66406e-07
0.0015558
2.01841e-06
0.00155668
4.34372e-06
0.00155707
2.99972e-06
0.00155951
-4.80277e-06
0.00156052
-9.73942e-06
0.00156023
-5.91662e-06
0.00155988
3.83227e-06
0.00155625
9.09147e-06
0.00155069
5.52895e-06
0.00155521
-1.87603e-06
0.00156333
-4.06319e-06
0.00156343
-2.06842e-06
0.00156119
-1.43454e-06
0.00156127
-3.10523e-06
0.00156109
-2.15901e-06
0.00155978
-2.05753e-07
0.00155912
2.25328e-06
0.001562
3.97803e-07
0.00156653
-4.48582e-06
0.0015629
-5.07149e-06
0.00155903
9.59024e-07
0.00155749
6.42092e-06
0.00155681
4.03564e-06
0.00155378
1.14294e-06
0.00155172
1.1267e-06
0.00155773
-4.66536e-07
0.00156273
1.57678e-06
0.00156234
5.77817e-06
0.00156048
3.05394e-06
-7.36037e-06
0.00157473
-9.93727e-06
0.00157275
1.78838e-07
0.00156344
3.90409e-06
0.00155801
3.62746e-06
0.00156217
-6.94676e-07
0.00156594
-4.58329e-06
0.00156238
-3.55079e-06
0.00155397
2.87403e-07
0.00155146
4.82811e-06
0.00155643
3.90632e-06
0.00155841
1.59991e-06
0.00155919
-1.52517e-06
0.00155905
-1.04129e-06
0.00155478
7.04237e-08
0.00155283
-5.35103e-07
0.0015569
-3.41347e-06
0.001557
-1.13954e-06
0.00155596
1.79304e-06
0.00156026
8.96142e-07
0.00156331
-5.86971e-07
0.00156229
-5.84773e-06
0.00156134
-6.16775e-06
0.00156271
-1.64252e-06
0.00156507
6.34786e-06
0.00156694
3.25788e-06
0.00156373
2.6515e-06
0.00156001
4.03522e-06
0.0015575
3.02346e-06
0.00155841
1.19693e-06
0.00156503
5.52963e-07
0.0015682
1.90634e-06
-4.56432e-06
0.00156339
-6.68687e-06
0.00156474
-9.46565e-07
0.00156264
5.34291e-06
0.00155791
6.40942e-06
0.00155361
1.62665e-06
0.0015459
-2.25791e-06
0.00154128
-3.3849e-06
0.00154416
-2.32051e-06
0.00155193
-3.395e-08
0.00155478
2.02797e-06
0.00155473
7.43403e-07
0.00155705
-1.57667e-06
0.00155864
-1.26398e-06
0.00155571
4.34592e-08
0.00155208
-6.17066e-07
0.00155307
-1.76306e-06
0.00155684
-7.62859e-07
0.00156084
1.58811e-06
0.00156397
2.76452e-07
0.00156299
-6.88248e-07
0.00155676
-2.3813e-06
0.00154822
-1.63394e-06
0.001548
-1.47804e-06
0.00155436
5.71218e-06
0.00155408
5.61332e-06
0.00155389
9.30993e-07
0.00155422
1.43554e-06
0.00155179
3.61241e-06
0.00155513
-1.81761e-06
0.00156049
-2.86629e-06
0.00156465
-7.40859e-09
-3.66688e-06
0.00152848
0.0015282
0.00153731
0.00154455
0.0015434
0.00153134
0.00152275
0.00152279
0.00152948
0.00152925
0.00152671
0.00152685
0.00152888
0.00152869
0.00152383
0.00152198
0.00152499
0.00152974
0.00153341
0.00153502
0.00153139
0.0015195
0.00151183
0.00152594
0.00153794
0.00153915
0.00153903
0.00154062
0.00153628
0.00153269
0.00153582
)
;

boundaryField
{
    wall
    {
        type            calculated;
        value           uniform 0;
    }
    outlet
    {
        type            cyclic;
        value           nonuniform List<scalar> 
16
(
0.00150565
0.00153582
0.00153263
0.00153199
0.00153098
0.00152982
0.00153859
0.00150785
0.0015338
0.00155607
0.00155379
0.0015616
0.00155721
0.00156802
0.00156544
0.00153426
)
;
    }
    inlet
    {
        type            cyclic;
        value           nonuniform List<scalar> 
16
(
-0.00150565
-0.00153582
-0.00153263
-0.00153199
-0.00153098
-0.00152982
-0.00153859
-0.00150785
-0.0015338
-0.00155607
-0.00155379
-0.0015616
-0.00155721
-0.00156802
-0.00156544
-0.00153426
)
;
    }
    procBoundary0to1
    {
        type            processor;
        value           nonuniform List<scalar> 
256
(
-2.9348e-06
1.24084e-06
2.24248e-06
-1.41836e-07
-9.37169e-07
5.81368e-06
5.61735e-06
-4.66023e-07
-1.34837e-06
-3.42531e-06
-6.9318e-06
-4.36996e-06
5.2652e-06
6.77456e-06
2.23435e-06
-3.5632e-06
-3.9564e-06
3.76107e-07
1.08498e-06
2.27219e-07
-1.35914e-06
-4.68426e-06
-4.50899e-06
-2.12453e-06
-9.94531e-07
-1.46048e-06
1.30926e-06
1.9099e-06
-8.07118e-07
2.44409e-06
4.01773e-06
6.83849e-07
-5.66268e-06
2.34515e-06
3.80466e-06
6.57327e-07
1.16158e-06
5.14359e-06
3.26209e-06
-2.96191e-06
-3.98048e-06
-2.60313e-06
-4.48303e-06
-2.87003e-06
4.59038e-06
3.83765e-06
2.05632e-06
-1.87884e-06
-2.62556e-06
1.02069e-06
1.57619e-06
7.85584e-07
-9.99549e-07
-2.92901e-06
-4.30769e-06
-3.95004e-06
-9.02033e-07
1.03977e-06
1.61912e-06
-5.47068e-07
-2.88986e-07
4.9683e-06
4.41136e-06
-2.35149e-06
-4.53057e-06
-5.89433e-07
6.87032e-07
3.38183e-06
5.15577e-06
7.51559e-06
4.70406e-06
-3.19407e-06
-5.02074e-06
-9.93566e-07
-7.86812e-07
-4.88319e-06
-1.01678e-06
7.15528e-06
3.74948e-06
-1.76522e-07
-2.326e-06
-4.28517e-07
-2.9378e-07
-1.02676e-06
-2.7505e-06
-5.40135e-06
-3.51163e-06
-2.10481e-06
-4.4209e-06
-1.79533e-06
3.371e-06
3.7618e-06
2.8922e-06
4.75918e-06
4.277e-06
-4.10249e-06
-7.81774e-07
3.55464e-06
1.87277e-06
2.075e-06
3.44725e-06
4.63604e-06
8.40926e-07
-1.06462e-06
-6.09805e-07
-1.47614e-06
-6.69289e-07
9.823e-07
1.16186e-06
-4.28273e-07
9.24461e-07
2.43015e-06
1.51006e-06
1.14489e-09
-1.39087e-06
-2.42656e-06
-2.23992e-06
-2.21633e-06
-1.12056e-06
7.9649e-09
-1.9951e-06
-2.97074e-07
3.32577e-06
2.27661e-06
-1.31154e-06
1.05202e-06
1.62164e-06
-3.83066e-06
2.44736e-06
-2.04171e-06
-1.7922e-06
4.1084e-06
4.83295e-06
3.9554e-06
2.99835e-06
1.15158e-06
-3.0311e-06
-3.57245e-06
-1.31881e-07
1.55518e-06
2.54027e-07
-1.54689e-06
-4.32423e-07
3.14057e-06
1.94056e-06
4.24538e-07
-3.91562e-06
-2.73541e-06
-1.45416e-06
-1.23005e-06
-1.11043e-07
-1.61732e-07
-6.73034e-07
-2.86071e-07
1.2765e-06
-2.17065e-06
-3.67735e-06
2.51116e-06
6.13265e-06
4.87468e-06
-1.77213e-06
-4.1033e-06
2.88463e-06
8.30075e-06
2.26657e-06
-1.20567e-06
-1.55112e-06
2.0455e-06
-1.23896e-06
-2.39044e-06
-2.60267e-07
6.6136e-07
1.35062e-06
2.42917e-06
1.44652e-06
-2.13544e-06
-2.07919e-06
-1.39326e-06
-1.68165e-06
-8.45873e-07
8.13854e-07
-1.70491e-06
-1.14708e-06
2.16056e-06
1.79972e-06
-2.13731e-07
1.8602e-07
-4.75358e-08
-2.02185e-06
-3.07433e-06
-2.21396e-06
-7.4668e-07
-3.59644e-06
-3.39718e-06
1.22667e-06
4.40289e-06
9.31827e-07
6.7588e-07
3.52662e-06
1.84831e-06
-2.96761e-06
-3.45236e-06
-2.6682e-06
-4.62675e-07
3.91425e-06
3.47864e-06
4.51436e-07
-2.29769e-06
-2.18565e-06
-2.27118e-06
-1.03165e-06
1.88114e-06
1.6893e-06
1.40386e-07
-1.10251e-06
-1.2992e-06
-5.66136e-07
6.24553e-07
1.80207e-06
2.24181e-06
-1.18173e-06
-2.43196e-06
-3.18974e-06
-2.92643e-06
-1.83395e-06
-4.02907e-06
-2.05959e-06
2.54249e-06
2.29723e-06
6.10076e-06
4.7841e-06
2.69438e-06
-3.40393e-06
-3.63075e-06
-2.16081e-06
1.09217e-06
2.66589e-06
6.43448e-07
3.62169e-07
-2.98825e-08
-2.16756e-06
-2.45865e-06
-2.19777e-06
-2.3128e-07
4.24195e-06
5.19155e-06
9.58753e-07
-5.91785e-06
-3.05382e-06
2.33048e-07
1.2596e-06
2.79742e-06
2.61693e-06
1.25321e-07
-4.83961e-06
-3.23262e-06
)
;
    }
}


// ************************************************************************* //
