FoamFile
{version 2.0; format ascii;class Cloud<passiveParticle>; location 0;object  positions;}
2524
(
( 0.0116057 -0.00458399 0.00445879 ) 0 
( 0.00189744 -0.0132084 0.00332537 ) 0 
( 0.0048269 -0.00856224 0.00162624 ) 0 
( 0.0096624 -0.00122353 0.00616004 ) 0 
( 0.00451301 -0.00406509 0.00576733 ) 0 
( 0.00518525 -0.00422119 0.000733438 ) 0 
( 0.00814736 -0.00254828 0.00384189 ) 0 
( 0.00183762 -0.01223 0.00199242 ) 0 
( 0.00996493 -0.0011062 0.00237692 ) 0 
( 0.0118979 -0.0019424 0.000499747 ) 0 
( 0.00166834 -0.0068053 0.00147659 ) 0 
( 0.0109446 -0.00582048 0.00388509 ) 0 
( 0.00720548 -0.00905275 0.00228091 ) 0 
( 0.000620163 -0.00726251 0.00220389 ) 0 
( 0.00636423 -0.00373152 0.00617424 ) 0 
( 0.00988504 -0.00552416 0.00428766 ) 0 
( 0.00451315 -0.00958072 0.00643657 ) 0 
( 0.00162933 -0.00471509 0.0022484 ) 0 
( 0.00755454 -0.00404277 0.00558861 ) 0 
( 0.00832178 -0.00412979 0.00398819 ) 0 
( 0.00589887 -0.000594509 0.00350198 ) 0 
( 0.00146129 -0.00757535 0.00756095 ) 0 
( 0.0122472 -0.00367064 0.00513533 ) 0 
( 0.00898316 -0.00460959 0.00103466 ) 0 
( 0.00950967 -0.00492185 0.00267785 ) 0 
( 0.00305845 -0.00153275 0.00219609 ) 0 
( 0.00785008 -0.00648792 0.00316016 ) 0 
( 0.00182009 -0.00612398 0.00746489 ) 0 
( 0.00607211 -0.00462003 0.00652808 ) 0 
( 0.00284522 -0.00182433 0.000499871 ) 0 
( 0.00760079 -0.00141328 0.00124095 ) 0 
( 0.00979494 -0.00291123 0.000499611 ) 0 
( 0.00705629 -0.00195695 0.000499768 ) 0 
( 0.00250663 -0.00995839 0.00651751 ) 0 
( 0.00954775 -0.00695121 0.00625066 ) 0 
( 0.000221756 -0.0117949 0.00140809 ) 0 
( 0.00275775 -0.0115016 0.00164084 ) 0 
( 0.00330281 -0.00203342 0.00136582 ) 0 
( 0.00926745 -0.00264157 0.00491723 ) 0 
( 0.00174437 -0.00932872 0.00636857 ) 0 
( 0.0110095 -0.00238971 0.00471903 ) 0 
( 0.00255408 -0.00847444 0.000499864 ) 0 
( 0.00660209 -0.00108235 0.00583886 ) 0 
( 0.00755055 -0.00393679 0.00459438 ) 0 
( 0.00384017 -0.0086309 0.0014188 ) 0 
( 0.00127793 -0.000248539 0.00553512 ) 0 
( 0.00456212 -0.00745415 0.000499785 ) 0 
( 0.00621883 -0.01022 0.00178457 ) 0 
( 0.0120031 -0.00398242 0.000499715 ) 0 
( 0.00283264 -0.0024325 0.00574793 ) 0 
( 0.00544816 -0.00178577 0.000863542 ) 0 
( 0.00438417 -0.00570922 0.00109747 ) 0 
( 0.00107931 -0.0123051 0.00134507 ) 0 
( 0.0102092 -0.000100252 0.00140591 ) 0 
( 0.00290652 -0.00900545 0.00138301 ) 0 
( 0.0103453 -0.00715356 0.00180199 ) 0 
( 0.00897739 -0.00579441 0.00662916 ) 0 
( 0.0129894 -0.00308226 0.00251606 ) 0 
( 0.00252156 -0.00450889 0.0018467 ) 0 
( 0.00679616 -0.00642234 0.00734024 ) 0 
( 0.00827412 -0.00489015 0.00234513 ) 0 
( 0.00109803 -0.00274454 0.00663576 ) 0 
( 0.00856056 -0.00695523 0.00125824 ) 0 
( 0.0103798 -0.00839542 0.00315707 ) 0 
( 0.00226666 -0.00719768 0.00482049 ) 0 
( 0.00454062 -0.0125542 0.00487403 ) 0 
( 0.00674247 -0.0045913 0.00578691 ) 0 
( 0.0090627 -0.00172767 0.00292816 ) 0 
( 0.0065151 -0.00370258 0.00127101 ) 0 
( 0.00928983 -7.14689e-06 0.00224288 ) 0 
( 0.00389187 -0.00859274 0.0028551 ) 0 
( 0.0121304 -0.00557489 0.00579085 ) 0 
( 0.00449996 -0.00636923 0.00256723 ) 0 
( 0.00952306 -7.6935e-06 0.00352655 ) 0 
( 0.0032015 -0.000371768 0.00567396 ) 0 
( 0.00364462 -0.00584611 0.003461 ) 0 
( 0.00515324 -0.00826712 0.00714156 ) 0 
( 0.00906108 -0.00974341 0.00502723 ) 0 
( 0.00662023 -0.00369026 0.00414239 ) 0 
( 0.0041966 -0.00391726 0.00455602 ) 0 
( 0.00321354 -0.0109478 0.0064227 ) 0 
( 0.00367938 -0.00609038 0.000499645 ) 0 
( 0.00456354 -0.00750565 0.00546921 ) 0 
( 0.0115295 -0.00169404 0.00641505 ) 0 
( 0.0058959 -0.00355778 0.000499608 ) 0 
( 0.0103348 -0.00515228 0.00332036 ) 0 
( 0.00617589 -0.00241492 0.00279186 ) 0 
( 0.00521961 -0.00224609 0.00255377 ) 0 
( 0.0128693 -0.00279738 0.00145443 ) 0 
( 0.00519832 -0.000939166 0.0013341 ) 0 
( 0.00164914 -0.000991057 0.00384601 ) 0 
( 0.00878266 -0.00153348 0.00107534 ) 0 
( 0.00515082 -0.011702 0.00262785 ) 0 
( 0.000985191 -0.00680232 0.00797973 ) 0 
( 0.00310598 -0.000657257 0.00169921 ) 0 
( 0.011899 -0.00432476 0.00666302 ) 0 
( 0.00306006 -0.00802438 0.0012656 ) 0 
( 0.00222494 -0.00733514 0.00211634 ) 0 
( 0.00771816 -0.00643214 0.00112831 ) 0 
( 0.00236002 -0.0111174 0.00493213 ) 0 
( 0.00162871 -0.00473974 0.0081438 ) 0 
( 0.00861559 -0.00814996 0.00687597 ) 0 
( 0.00459819 -0.0125332 0.00703132 ) 0 
( 0.0072485 -0.00145786 0.00332015 ) 0 
( 0.00810039 -0.00297905 0.000499713 ) 0 
( 0.00193133 -0.0047483 0.00321597 ) 0 
( 0.00172765 -0.00561813 0.00660771 ) 0 
( 0.00297212 -0.00503998 0.00672832 ) 0 
( 0.00357135 -0.00705319 0.000746726 ) 0 
( 0.00705946 -0.00452356 0.00144482 ) 0 
( 0.00656123 -0.00842328 0.00105492 ) 0 
( 0.00119144 -0.00316862 0.00567945 ) 0 
( 0.00456687 -0.0115915 0.00344898 ) 0 
( 0.00740009 -0.00324804 0.00177462 ) 0 
( 0.00791006 -0.000183454 0.00429747 ) 0 
( 0.0107856 -0.00216581 0.00371764 ) 0 
( 0.00693183 -0.00687175 0.00515046 ) 0 
( 0.00809754 -0.0100887 0.00358914 ) 0 
( 0.00965234 -0.000335545 0.0068956 ) 0 
( 0.0078908 -0.00834308 0.00244424 ) 0 
( 0.00561103 -0.00439151 0.00279689 ) 0 
( 0.0111543 -0.000203553 0.00270275 ) 0 
( 0.000444485 -0.0121956 0.00754792 ) 0 
( 0.00197567 -0.00278809 0.00250463 ) 0 
( 0.00724519 -0.0112131 0.00676011 ) 0 
( 0.0070836 -0.00484838 0.000499671 ) 0 
( 0.00387544 -0.00278428 0.00283321 ) 0 
( 0.00228194 -0.0113092 0.00658171 ) 0 
( 0.00750412 -0.0105331 0.00575743 ) 0 
( 0.00409119 -0.010016 0.00533072 ) 0 
( 0.00598251 -0.0087964 0.00696442 ) 0 
( 0.00686555 -0.0103632 0.000974208 ) 0 
( 0.00579668 -0.00971381 0.00524206 ) 0 
( 0.000653758 -0.00758645 0.00333039 ) 0 
( 0.001692 -0.00909924 0.000499636 ) 0 
( 0.0116688 -0.00438276 0.00135383 ) 0 
( 0.0109057 -0.000968203 0.00529565 ) 0 
( 0.00169031 -0.00843188 0.00448616 ) 0 
( 0.00797903 -0.00278006 0.00657199 ) 0 
( 0.00950386 -0.00937498 0.00585006 ) 0 
( 0.00454732 -0.00814632 0.00452425 ) 0 
( 0.010477 -0.00419054 0.00112445 ) 0 
( 0.00253128 -0.00655498 0.00410046 ) 0 
( 0.00546602 -0.0086189 0.00351042 ) 0 
( 0.000107684 -0.00946804 0.00133479 ) 0 
( 0.00524111 -0.0122782 0.00127362 ) 0 
( 0.00312117 -0.00116431 0.00334203 ) 0 
( 0.0121143 -0.00560971 0.00131289 ) 0 
( 0.0100874 -0.00373689 0.00348391 ) 0 
( 0.0089735 -0.00988375 0.00402564 ) 0 
( 0.00560722 -0.00799663 0.00624799 ) 0 
( 0.000462031 -0.00327581 0.00148911 ) 0 
( 0.00042033 -0.0042189 0.00432693 ) 0 
( 0.00627392 -0.00208445 0.00690511 ) 0 
( 0.00955692 -0.00381491 0.00123284 ) 0 
( 0.00730515 -0.00513314 0.00397384 ) 0 
( 0.00979558 -0.00907047 0.00494069 ) 0 
( 0.0108308 -0.0012513 0.00285552 ) 0 
( 0.0122008 -0.00188866 0.00422078 ) 0 
( 0.00299448 -0.0114804 0.000499866 ) 0 
( 0.00976579 -0.00543826 0.00114959 ) 0 
( 0.0112463 -0.00264784 0.00696072 ) 0 
( 0.00738584 -0.00416869 0.00363584 ) 0 
( 0.0100543 -0.00566252 0.00538284 ) 0 
( 0.000945949 -0.00357349 0.00376668 ) 0 
( 0.0108266 -0.00112589 0.00185902 ) 0 
( 0.00144759 -0.00737945 0.00275885 ) 0 
( 0.00654529 -0.00606476 0.00644109 ) 0 
( 0.00265746 -0.0130699 0.000499861 ) 0 
( 0.00485376 -0.0114265 0.00444771 ) 0 
( 0.00472199 -0.00141359 0.00210771 ) 0 
( 0.00485036 -0.00307601 0.00211448 ) 0 
( 0.00833284 -0.000885457 0.00487373 ) 0 
( 0.01022 -0.00712279 0.0069703 ) 0 
( 0.0110969 -0.00565506 0.00291077 ) 0 
( 0.00162149 -0.000145762 0.00331273 ) 0 
( 0.000523743 -0.0110151 0.006495 ) 0 
( 0.0100655 -0.00649755 0.00414187 ) 0 
( 0.00523695 -0.00585293 0.00300303 ) 0 
( 0.000131883 -0.0117232 0.00254501 ) 0 
( 0.002271 -0.00103461 0.00807332 ) 0 
( 0.00704543 -0.00596154 0.00343433 ) 0 
( 0.00139794 -0.0102503 0.00614593 ) 0 
( 0.0106898 -0.000518661 0.00353027 ) 0 
( 0.0109957 -0.000590698 0.00103095 ) 0 
( 0.000755198 -0.00982101 0.00509437 ) 0 
( 0.0013943 -0.0044368 0.00400384 ) 0 
( 0.0114859 -0.00438449 0.00270265 ) 0 
( 0.00486855 -0.00941553 0.00551696 ) 0 
( 0.00900618 -0.00545392 0.000499734 ) 0 
( 0.00386855 -0.0117074 0.00740299 ) 0 
( 0.00123812 -0.000931261 0.00282296 ) 0 
( 0.000192531 -0.0133487 0.00284774 ) 0 
( 0.00186152 -0.00390998 0.00572244 ) 0 
( 0.00650981 -0.00688898 0.00239272 ) 0 
( 0.00304376 -0.0119448 0.00645737 ) 0 
( 0.0104369 -0.00832478 0.00122449 ) 0 
( 0.00356821 -0.00913736 0.00378594 ) 0 
( 0.00161556 -0.0132507 0.00656143 ) 0 
( 0.0125289 -0.0046097 0.0028812 ) 0 
( 0.00988928 -0.00207122 0.0066393 ) 0 
( 0.0115817 -0.00290385 0.00241228 ) 0 
( 0.00653204 -0.00586937 0.0021526 ) 0 
( 0.00520053 -0.0100524 0.00153378 ) 0 
( 0.004729 -0.00654168 0.00726782 ) 0 
( 0.00255921 -0.00219467 0.00667977 ) 0 
( 0.0124414 -0.00157592 0.00514083 ) 0 
( 0.00103449 -0.00389311 0.00202859 ) 0 
( 0.00113313 -0.0118162 0.00642764 ) 0 
( 0.00919093 -0.000700101 0.00535485 ) 0 
( 0.00920879 -0.00953221 0.000499872 ) 0 
( 0.0100681 -0.00237163 0.0043828 ) 0 
( 0.00917649 -0.000642368 0.00435464 ) 0 
( 0.00464479 -0.00120405 0.00543104 ) 0 
( 0.00338202 -0.00556662 0.00747263 ) 0 
( 0.00827416 -0.00182549 0.00205737 ) 0 
( 0.00250365 -0.00630718 0.00124476 ) 0 
( 0.00320534 -0.00740219 0.00454077 ) 0 
( 0.00472056 -0.0111831 0.00603661 ) 0 
( 0.00512605 -0.00676973 0.00354894 ) 0 
( 0.000425976 -0.00298918 0.00739561 ) 0 
( 0.00329384 -0.00171274 0.00847964 ) 0 
( 0.00852006 -0.00716746 0.00286172 ) 0 
( 0.00221163 -0.00833152 0.00222061 ) 0 
( 0.000354839 -0.00181688 0.00544381 ) 0 
( 0.000442199 -0.00455805 0.00756653 ) 0 
( 0.00597678 -0.0102733 0.00360573 ) 0 
( 0.000226491 -0.00305855 0.00329942 ) 0 
( 0.00400171 -0.000593894 0.00125917 ) 0 
( 0.00142303 -0.00852984 0.00281718 ) 0 
( 0.00935533 -0.00773048 0.00277885 ) 0 
( 0.00443732 -0.0105745 0.00310368 ) 0 
( 0.00799909 -0.0089559 0.00675925 ) 0 
( 0.00107891 -0.00584549 0.00502699 ) 0 
( 0.00595789 -0.0119463 0.00574374 ) 0 
( 0.00027489 -0.0084041 0.0012955 ) 0 
( 0.00805547 -0.0019069 0.000499704 ) 0 
( 0.0111741 -0.00454131 0.000499652 ) 0 
( 0.00579166 -0.0120283 0.00332255 ) 0 
( 0.00316497 -0.00804409 0.00689199 ) 0 
( 0.00142529 -0.00118252 0.00756153 ) 0 
( 0.0109406 -0.0059334 0.00576051 ) 0 
( 0.00194736 -0.000168489 0.00441186 ) 0 
( 0.00429892 -0.0126389 0.00340578 ) 0 
( 0.00952781 -0.00237504 0.00129996 ) 0 
( 0.0120454 -0.00347419 0.00153439 ) 0 
( 0.0056933 -0.0109823 0.00140738 ) 0 
( 0.0100393 -0.00762759 0.00558043 ) 0 
( 0.0101533 -0.000182108 0.00271793 ) 0 
( 0.00258676 -0.00226475 0.00458535 ) 0 
( 0.00478093 -0.00653494 0.00536876 ) 0 
( 0.00561249 -0.00109401 0.00565716 ) 0 
( 0.00834911 -0.0104172 0.00459588 ) 0 
( 0.00130592 -0.00461825 0.00507248 ) 0 
( 0.00385167 -0.00938416 0.00208292 ) 0 
( 0.010839 -0.00438247 0.00670772 ) 0 
( 0.00161658 -0.00650464 0.00450131 ) 0 
( 0.00798897 -0.00140052 0.00676083 ) 0 
( 0.00632466 -0.0117572 0.00140198 ) 0 
( 0.000811898 -0.00942132 0.00602036 ) 0 
( 0.00750931 -0.00174321 0.00512097 ) 0 
( 0.0107547 -0.00316783 0.00399678 ) 0 
( 0.00293598 -0.00252716 0.00215417 ) 0 
( 0.00273462 -0.00133048 0.00620605 ) 0 
( 0.0101834 -0.00506864 0.00638009 ) 0 
( 0.00909693 -0.00900828 0.00669993 ) 0 
( 0.000557814 -0.0091382 0.00439115 ) 0 
( 0.0049786 -0.00517123 0.000499847 ) 0 
( 0.0012553 -0.00397695 0.00754116 ) 0 
( 0.00587483 -0.0105624 0.00458086 ) 0 
( 0.00189755 -0.00642665 0.00238324 ) 0 
( 0.00977568 -0.00434995 0.00456677 ) 0 
( 0.00596467 -0.00088821 0.00658413 ) 0 
( 0.000183774 -0.00592283 0.00458834 ) 0 
( 0.00357417 -0.0038954 0.00123418 ) 0 
( 0.00632686 -0.0076048 0.004694 ) 0 
( 0.0103469 -0.00320378 0.00128017 ) 0 
( 0.000760174 -0.0127329 0.00657016 ) 0 
( 0.00101596 -0.00512963 0.00335012 ) 0 
( 0.00321268 -0.012738 0.0058209 ) 0 
( 0.00607542 -0.00251993 0.000499884 ) 0 
( 0.0060088 -0.00705955 0.0039186 ) 0 
( 0.0076833 -0.00889711 0.00325032 ) 0 
( 0.0127035 -0.0041046 0.00435888 ) 0 
( 0.00186689 -0.009743 0.00354294 ) 0 
( 0.00338334 -0.00346562 0.00575482 ) 0 
( 0.0099701 -0.00336839 0.00458345 ) 0 
( 0.00830622 -0.00255247 0.00517711 ) 0 
( 0.00306753 -0.00371494 0.00807326 ) 0 
( 0.00263796 -0.00596393 0.00691287 ) 0 
( 0.00210256 -0.0108449 0.00049952 ) 0 
( 0.00670892 -0.00959917 0.00564058 ) 0 
( 0.00465485 -0.00700712 0.0043984 ) 0 
( 0.00697084 -0.00801608 0.00534098 ) 0 
( 0.0107256 -0.00401783 0.00466875 ) 0 
( 0.00427459 -0.0022587 0.00700338 ) 0 
( 0.0105554 -0.00681742 0.00607923 ) 0 
( 0.00449276 -0.00946166 0.00459158 ) 0 
( 0.00252132 -0.00332007 0.00525737 ) 0 
( 0.00419864 -0.0030556 0.00805816 ) 0 
( 0.00562328 -0.00339775 0.00268572 ) 0 
( 0.00010914 -0.00746978 0.00779245 ) 0 
( 0.00582546 -0.00941659 0.00619622 ) 0 
( 0.00273022 -0.008192 0.0049707 ) 0 
( 0.0107297 -0.00644067 0.00239902 ) 0 
( 0.00164277 -0.00565285 0.000499872 ) 0 
( 0.00768197 -0.00613277 0.00526769 ) 0 
( 0.00955477 -0.00713748 0.00119025 ) 0 
( 0.00561402 -0.0028292 0.00351073 ) 0 
( 0.00879571 -0.00500454 0.00408899 ) 0 
( 0.00560512 -0.000145947 0.00597446 ) 0 
( 0.0124995 -0.00158251 0.00331691 ) 0 
( 0.00370229 -0.00801308 0.000499637 ) 0 
( 0.00398452 -0.0119562 0.0027218 ) 0 
( 0.00783087 -0.00972267 0.00269689 ) 0 
( 0.000919176 -0.0064982 0.00277709 ) 0 
( 0.00211086 -0.0104421 0.00422372 ) 0 
( 0.00684508 -0.00957014 0.0030604 ) 0 
( 0.0012568 -4.14417e-05 0.00220515 ) 0 
( 0.0108555 -0.00776834 0.0061717 ) 0 
( 0.00350499 -0.00444333 0.00206769 ) 0 
( 0.00667617 -0.00777093 0.00193049 ) 0 
( 0.00137064 -0.00748442 0.00447921 ) 0 
( 0.0103002 -0.00619219 0.00153098 ) 0 
( 0.0106996 -0.0079843 0.0071354 ) 0 
( 0.00199621 -0.00633139 0.00542579 ) 0 
( 0.000793023 -0.00514564 0.00437255 ) 0 
( 0.0105822 -0.00322698 0.00278039 ) 0 
( 0.0106887 -0.00492985 0.00426056 ) 0 
( 2.45306e-05 -0.00940457 0.00358835 ) 0 
( 0.00422032 -0.00410146 0.00049962 ) 0 
( 0.00584722 -0.00799713 0.00049959 ) 0 
( 0.000296446 -0.00119243 0.00261111 ) 0 
( 0.00714035 -0.00723776 0.00424304 ) 0 
( 0.00126845 -0.00248581 0.00758635 ) 0 
( 0.00349173 -0.00218753 0.00762231 ) 0 
( 0.00672577 -5.81784e-05 0.00192645 ) 0 
( 0.00146106 -0.0126776 0.000499573 ) 0 
( 0.00139825 -0.00783166 0.001852 ) 0 
( 0.00604079 -0.000856898 0.00782008 ) 0 
( 0.00485658 -0.0115342 0.000499555 ) 0 
( 0.00299128 -0.00692236 0.00261414 ) 0 
( 0.0131794 -0.00212853 0.00552754 ) 0 
( 0.0124777 -0.00289232 0.00571887 ) 0 
( 0.00758669 -0.00960487 0.00611946 ) 0 
( 0.00435994 -0.00142669 0.00449885 ) 0 
( 0.00250749 -0.00303536 0.000499647 ) 0 
( 0.0113764 -0.000325247 0.00423109 ) 0 
( 0.00555567 -0.00377365 0.00168219 ) 0 
( 0.000798809 -0.0057964 0.0069456 ) 0 
( 0.00507057 -0.0028602 0.00706444 ) 0 
( 0.00830692 -4.4228e-05 0.00242365 ) 0 
( 0.0112097 -0.00617766 0.00111589 ) 0 
( 0.00672348 -0.0033654 0.00734862 ) 0 
( 0.0022409 -0.00520551 0.00742945 ) 0 
( 1.36673e-05 -0.00792667 0.00264169 ) 0 
( 0.00789973 -0.0101707 0.0012723 ) 0 
( 0.00548868 -0.00127266 0.00276678 ) 0 
( 0.00772292 -0.00337044 0.00737362 ) 0 
( 0.00387903 -0.00607362 0.00562653 ) 0 
( 0.00407394 -0.00271932 0.00128927 ) 0 
( 0.00280516 -0.0129953 0.00494514 ) 0 
( 0.00774039 -0.0064462 0.00692378 ) 0 
( 0.00650612 -0.00978681 0.00454121 ) 0 
( 0.00333147 -0.0034322 0.00468253 ) 0 
( 0.008838 -0.00517763 0.00744323 ) 0 
( 0.00243298 -0.00784954 0.00407955 ) 0 
( 0.00679109 -0.00656557 0.00148334 ) 0 
( 0.00208535 -0.00355825 0.00791822 ) 0 
( 0.00745369 -0.00561176 0.00166661 ) 0 
( 0.00996819 -0.00604908 0.00634934 ) 0 
( 0.00438236 -0.00193104 0.00606492 ) 0 
( 0.00683956 -0.00433647 0.00714144 ) 0 
( 0.00589961 -0.00556068 0.000499766 ) 0 
( 0.0119068 -0.000894897 0.000499455 ) 0 
( 0.00269557 -0.0130751 0.00660895 ) 0 
( 0.00330989 -0.00981197 0.00592032 ) 0 
( 0.0087838 -0.00326343 0.00691615 ) 0 
( 0.00139345 -0.00768838 0.000499758 ) 0 
( 0.00741051 -0.0111045 0.00494233 ) 0 
( 0.00154115 -0.000464071 0.0068762 ) 0 
( 0.00350474 -0.00266439 0.0065114 ) 0 
( 0.000725205 -0.00443978 0.00660273 ) 0 
( 0.00366012 -0.0043884 0.00535796 ) 0 
( 0.00388864 -0.00507887 0.000499754 ) 0 
( 0.00117038 -0.0132987 0.00264498 ) 0 
( 0.00914135 -0.00699061 0.00208869 ) 0 
( 0.00447123 -0.0114221 0.0014152 ) 0 
( 0.000871562 -0.00420227 0.000499783 ) 0 
( 0.00387731 -0.00837224 0.00613932 ) 0 
( 0.00457329 -0.00367679 0.00133313 ) 0 
( 0.00604266 -0.00848593 0.0043164 ) 0 
( 0.0067116 -0.000479888 0.00718156 ) 0 
( 0.0112288 -0.00355157 0.000962549 ) 0 
( 0.00541632 -0.0111582 0.00531889 ) 0 
( 0.00528536 -0.00302143 0.00108171 ) 0 
( 0.00613643 -0.00452824 0.000499801 ) 0 
( 0.00750083 -0.00294842 0.00473679 ) 0 
( 0.00424925 -0.0060164 0.00469946 ) 0 
( 0.00336971 -0.000265406 0.0029814 ) 0 
( 0.0103279 -0.00734356 0.00460763 ) 0 
( 0.00604419 -0.00781407 0.00714742 ) 0 
( 0.00837114 -0.00568985 0.00127699 ) 0 
( 0.00445707 -0.0094275 0.00128838 ) 0 
( 0.0133025 -0.00112224 0.00293842 ) 0 
( 0.0128326 -0.00368083 0.00330156 ) 0 
( 0.00152742 -0.00218279 0.00592868 ) 0 
( 0.00674796 -0.00888601 0.00490137 ) 0 
( 0.00200325 -0.0106101 0.0030639 ) 0 
( 0.0100099 -0.00274038 0.00345525 ) 0 
( 0.00500566 -0.00971647 0.00340761 ) 0 
( 0.0112262 -0.00558172 0.00191853 ) 0 
( 0.00195695 -0.00429294 0.000499597 ) 0 
( 0.00221414 -0.0131652 0.00573726 ) 0 
( 0.00391548 -0.000707694 0.00374244 ) 0 
( 0.000865075 -0.00853744 0.000499702 ) 0 
( 0.00999539 -0.00665403 0.00526717 ) 0 
( 0.00343305 -0.010037 0.00688645 ) 0 
( 0.000686086 -0.0107116 0.00456534 ) 0 
( 0.000401373 -0.00209292 0.00693456 ) 0 
( 3.21002e-06 -0.00562609 0.00180442 ) 0 
( 0.00665338 -0.000634937 0.00284709 ) 0 
( 0.00581742 -0.0120159 0.000499848 ) 0 
( 0.00249002 -0.0121796 0.00438303 ) 0 
( 0.00222995 -0.00506716 0.00107022 ) 0 
( 0.00160436 -0.0112062 0.00579086 ) 0 
( 0.00559112 -0.00669926 0.00593112 ) 0 
( 0.00119522 -0.00559207 0.00245479 ) 0 
( 0.00406737 -0.0104528 0.00623501 ) 0 
( 0.00730297 -0.00820878 0.00441771 ) 0 
( 0.00652599 -0.000117991 0.00558629 ) 0 
( 0.00581854 -0.00991679 0.00267099 ) 0 
( 0.000832268 -0.000399952 0.00774929 ) 0 
( 0.00638362 -0.011725 0.00662105 ) 0 
( 0.0038884 -0.0119015 0.000700814 ) 0 
( 0.0122692 -0.00282756 0.00316546 ) 0 
( 0.00996367 -0.00397137 0.00643864 ) 0 
( 0.0115922 -0.00359087 0.00434284 ) 0 
( 0.00368425 -0.00632713 0.001471 ) 0 
( 0.0017826 -0.00963794 0.00541869 ) 0 
( 0.00729967 -0.0036843 0.00652401 ) 0 
( 0.00630876 -0.00178905 0.00510642 ) 0 
( 0.00488096 -0.0104857 0.00403423 ) 0 
( 0.00276392 -0.00972275 0.00398431 ) 0 
( 0.0104499 -0.00691269 0.000805609 ) 0 
( 0.00398275 -0.000128527 0.00214392 ) 0 
( 0.00140895 -0.0037077 0.00659071 ) 0 
( 0.00412763 -0.00490459 0.00691639 ) 0 
( 0.00168443 -0.00037101 0.00854484 ) 0 
( 0.00316074 -0.00212224 0.0030582 ) 0 
( 0.00310995 -0.00301206 0.00129716 ) 0 
( 0.00170728 -0.0088176 0.00725734 ) 0 
( 0.00189961 -0.00389317 0.00472359 ) 0 
( 0.000994487 -0.0111741 0.000499876 ) 0 
( 0.0113848 -0.00503419 0.0061799 ) 0 
( 0.011788 -0.000962396 0.00285393 ) 0 
( 0.00059999 -0.00324002 0.000499578 ) 0 
( 0.00635677 -0.0114293 0.00498666 ) 0 
( 0.0107193 -0.00613677 0.00480665 ) 0 
( 0.0016835 -0.0104367 0.00131009 ) 0 
( 0.010995 -0.00143778 0.000499799 ) 0 
( 0.00396417 -0.00328892 0.00373402 ) 0 
( 0.00818197 -0.000982869 0.00274503 ) 0 
( 0.00683873 -0.00413968 0.00279938 ) 0 
( 0.00835368 -0.00354354 0.00128522 ) 0 
( 0.00848575 -0.0063081 0.000499686 ) 0 
( 0.00303523 -0.00495643 0.003481 ) 0 
( 0.00829398 -0.00777201 0.00600821 ) 0 
( 0.00155827 -0.00792328 0.00360056 ) 0 
( 0.0119688 -0.0025959 0.00491085 ) 0 
( 0.00955221 -0.00340561 0.00549575 ) 0 
( 0.00711647 -0.0091905 0.00402 ) 0 
( 0.00673062 -0.00157729 0.00775017 ) 0 
( 0.00289823 -0.00314556 0.00296985 ) 0 
( 0.00104136 -0.00569689 0.00792343 ) 0 
( 0.0089115 -0.00735615 0.00376215 ) 0 
( 0.00478235 -0.0115164 0.00697693 ) 0 
( 0.00796222 -0.0054823 0.0070693 ) 0 
( 0.00591093 -0.0108931 0.00245849 ) 0 
( 0.00506809 -0.0123496 0.0039755 ) 0 
( 0.00985736 -0.00460581 0.0072041 ) 0 
( 0.0106652 -0.00209107 0.0059344 ) 0 
( 0.0059784 -0.0084388 0.00537136 ) 0 
( 0.00718524 -0.00557161 0.0076925 ) 0 
( 0.00901434 -0.00423388 0.00196073 ) 0 
( 0.00369823 -0.00737181 0.00617715 ) 0 
( 0.00677124 -0.00456588 0.00460069 ) 0 
( 0.00826154 -0.00665599 0.00405744 ) 0 
( 0.00280324 -0.00335322 0.00669113 ) 0 
( 0.00748189 -0.00212127 0.00723239 ) 0 
( 0.0113722 -0.00370098 0.00608324 ) 0 
( 0.00294186 -0.0105099 0.00339389 ) 0 
( 0.00948761 -0.00801484 0.00479136 ) 0 
( 0.00218366 -0.00548008 0.00258293 ) 0 
( 0.00202521 -0.0113186 0.00235863 ) 0 
( 0.0100459 -0.000742194 0.00483835 ) 0 
( 0.00123164 -0.00282214 0.00317191 ) 0 
( 0.000748013 -0.00819432 0.00412036 ) 0 
( 0.0112898 -0.00712491 0.00147537 ) 0 
( 0.0116999 -0.00642943 0.00215726 ) 0 
( 0.00737004 -0.00734757 0.00262303 ) 0 
( 0.0100342 -0.00177379 0.0031604 ) 0 
( 0.0106578 -0.00114204 0.00624834 ) 0 
( 0.00147337 -0.00837147 0.00626943 ) 0 
( 0.00775907 -0.000714412 0.00751071 ) 0 
( 0.00587489 -0.0083494 0.00177819 ) 0 
( 0.0116168 -0.0026615 0.00397253 ) 0 
( 0.0119723 -0.00586785 0.00382293 ) 0 
( 0.00763995 -0.00413849 0.0021621 ) 0 
( 0.000667651 -0.00193135 0.00167891 ) 0 
( 0.00166309 -0.00186835 0.00446532 ) 0 
( 0.0125379 -0.000122172 0.0005624 ) 0 
( 0.0031341 -0.00416148 0.00717686 ) 0 
( 0.000210051 -0.00119905 0.00116642 ) 0 
( 0.00500709 -0.0102796 0.00500474 ) 0 
( 0.0031934 -0.00937567 0.000499664 ) 0 
( 0.00850345 -0.000611101 0.00361584 ) 0 
( 0.00728103 -0.0030415 0.00376579 ) 0 
( 0.0102294 -0.00192835 0.00185488 ) 0 
( 0.00646677 -0.00327205 0.00323307 ) 0 
( 0.00993619 -0.00107933 0.0038731 ) 0 
( 0.0111459 -0.00367683 0.00195102 ) 0 
( 0.0116548 -0.00441489 0.00544303 ) 0 
( 0.00932235 -0.00521207 0.00589318 ) 0 
( 0.00625181 -0.00152059 0.00336995 ) 0 
( 0.00737871 -0.00627017 0.004325 ) 0 
( 0.00735191 -0.00102991 0.00218591 ) 0 
( 0.00469311 -0.0124979 0.00223176 ) 0 
( 0.00626623 -0.00734065 0.00112644 ) 0 
( 0.000247455 -0.0128568 0.00125979 ) 0 
( 0.0010843 -0.00926152 0.00127682 ) 0 
( 0.00887286 -0.00268834 0.00272616 ) 0 
( 0.00987344 -0.00468603 0.0004998 ) 0 
( 0.0103207 -0.00539624 0.00233577 ) 0 
( 0.00782108 -0.00917654 0.00524708 ) 0 
( 0.00323038 -0.00823617 0.00351482 ) 0 
( 0.00764904 -2.14063e-05 0.000499776 ) 0 
( 0.00389416 -0.0118886 0.00535111 ) 0 
( 0.000349205 -0.00269053 0.00592947 ) 0 
( 0.00504324 -0.00961039 0.000499502 ) 0 
( 0.0122189 -0.00373099 0.00251366 ) 0 
( 0.00735655 -0.00866608 0.000499773 ) 0 
( 0.00380489 -0.00257393 0.00556221 ) 0 
( 0.0114806 -0.00499383 0.00355535 ) 0 
( 0.000600916 -0.00988468 0.00209825 ) 0 
( 0.00403408 -0.0109331 0.000499734 ) 0 
( 0.00587754 -0.00289579 0.00647559 ) 0 
( 0.00740564 -0.000484852 0.00348847 ) 0 
( 0.00401878 -0.00521812 0.00414328 ) 0 
( 0.00616182 -0.00929974 0.00373864 ) 0 
( 0.00625767 -0.00739714 0.00566956 ) 0 
( 0.00475405 -0.00316455 0.00312163 ) 0 
( 0.01077 -0.00225005 0.00267924 ) 0 
( 0.000851027 -0.00157935 0.000499807 ) 0 
( 0.00231698 -0.0100907 0.00219033 ) 0 
( 0.00942677 -0.00560657 0.00340258 ) 0 
( 0.00227144 -0.00515825 0.0048609 ) 0 
( 0.00371776 -0.0011789 0.00049968 ) 0 
( 0.00488836 -0.00430738 0.00666261 ) 0 
( 0.00914817 -0.00553696 0.00496346 ) 0 
( 0.000749619 -0.00528021 0.00606206 ) 0 
( 0.00904417 -0.00736136 0.00549046 ) 0 
( 0.00179254 -0.0114342 0.0013882 ) 0 
( 0.008348 -0.00638298 0.00205007 ) 0 
( 0.0122723 -0.00525502 0.00672721 ) 0 
( 0.000907689 -0.00148802 0.00629258 ) 0 
( 0.00420923 -0.0126692 0.00589068 ) 0 
( 0.00653435 -0.00269252 0.00473765 ) 0 
( 0.0057846 -0.00332818 0.00455483 ) 0 
( 0.00533236 -0.00186686 0.00355569 ) 0 
( 0.00357338 -0.0109825 0.00138572 ) 0 
( 0.00562892 -0.00643041 0.00227424 ) 0 
( 0.00511437 -0.0105882 0.000694114 ) 0 
( 0.00678564 -0.00948687 0.000499639 ) 0 
( 0.0109902 -0.00255455 0.00168563 ) 0 
( 0.00758265 -0.00246371 0.00118219 ) 0 
( 0.0048483 -0.00280226 0.00591276 ) 0 
( 0.00697614 -0.00138351 0.00678506 ) 0 
( 0.00594428 -0.00985434 0.000895395 ) 0 
( 0.00878201 -0.00430335 0.00297563 ) 0 
( 0.00989836 -0.00750297 0.00369709 ) 0 
( 0.00239356 -0.00443874 0.00404677 ) 0 
( 0.00868572 -0.0010091 0.00616028 ) 0 
( 0.00750048 -0.000429576 0.00140027 ) 0 
( 0.00563972 -0.00269064 0.00531144 ) 0 
( 0.00855808 -0.0102461 0.0022529 ) 0 
( 0.00801306 -0.001992 0.00595332 ) 0 
( 0.0115389 -0.00180423 0.00221478 ) 0 
( 0.00335346 -0.00537817 0.00512492 ) 0 
( 0.00999315 -0.0088522 0.000499844 ) 0 
( 0.0132366 -0.00173853 0.0069772 ) 0 
( 0.00405341 -0.0119866 0.00421063 ) 0 
( 0.00963684 -0.00790053 0.00183107 ) 0 
( 0.0111846 -0.00728869 0.0026725 ) 0 
( 0.0120353 -0.00577702 0.00481651 ) 0 
( 0.00524174 -0.00579798 0.00160368 ) 0 
( 0.000660495 -0.00678363 0.0044107 ) 0 
( 0.0111804 -0.00525197 0.00506936 ) 0 
( 0.00408306 -0.00957717 0.00304787 ) 0 
( 0.00467441 -0.000317663 0.00667497 ) 0 
( 0.0133116 -0.000790609 0.00391869 ) 0 
( 0.0121644 -0.000708991 0.00374499 ) 0 
( 0.00211103 -0.00734835 0.00579665 ) 0 
( 0.00610072 -0.0103648 0.00603847 ) 0 
( 0.00357676 -0.0128619 0.00431391 ) 0 
( 0.00128922 -0.00894678 0.00372681 ) 0 
( 0.00805714 -0.0093849 0.00429812 ) 0 
( 0.0117338 -0.000121917 0.00516078 ) 0 
( 0.00721478 -0.00583954 0.000499759 ) 0 
( 0.004754 -0.00240651 0.000499639 ) 0 
( 0.00267573 -0.00430823 0.00519841 ) 0 
( 0.00625137 -0.00891011 0.00254467 ) 0 
( 0.00699011 -0.00771109 0.000499655 ) 0 
( 0.000272247 -0.00735016 0.00584454 ) 0 
( 0.00321428 -0.00151557 0.00534864 ) 0 
( 0.00168243 -0.00534466 0.00564719 ) 0 
( 0.00771695 -0.00483344 0.00617851 ) 0 
( 0.00432707 -0.000612099 0.00756492 ) 0 
( 0.00578146 -0.00277235 0.00191324 ) 0 
( 0.00112307 -0.0100105 0.000499871 ) 0 
( 0.00660573 -0.00130478 0.00428353 ) 0 
( 0.00166325 -0.00316835 0.0016176 ) 0 
( 0.00805201 -0.00463545 0.00139811 ) 0 
( 0.0100589 -0.00876198 0.00692221 ) 0 
( 0.00250697 -0.000375973 0.00639626 ) 0 
( 0.0105911 -0.00150814 0.00449785 ) 0 
( 0.00637732 -0.00533392 0.00303461 ) 0 
( 0.00238248 -0.00372989 0.00120799 ) 0 
( 0.00360495 -0.00328655 0.00728758 ) 0 
( 0.0052216 -0.00093006 0.00725165 ) 0 
( 0.00884542 -0.00876053 0.00496834 ) 0 
( 0.00347229 -0.00958271 0.00467591 ) 0 
( 0.00456638 -7.58772e-05 0.00416294 ) 0 
( 0.00925469 -0.00166351 0.00194707 ) 0 
( 0.00614201 -0.00402037 0.00783029 ) 0 
( 0.00382607 -0.00107788 0.00600718 ) 0 
( 0.00149984 -0.0095924 0.00446078 ) 0 
( 0.0102511 -0.00614415 0.00322524 ) 0 
( 0.00163006 -0.00188153 0.0068766 ) 0 
( 0.00663896 -0.00270902 0.00140315 ) 0 
( 0.00576151 -0.0052394 0.00225003 ) 0 
( 0.00292911 -0.00033971 0.00469994 ) 0 
( 0.0046534 -0.0125131 0.000499593 ) 0 
( 0.00737457 -0.00639903 0.00227802 ) 0 
( 0.000147435 -0.00395337 0.00251241 ) 0 
( 0.00216391 -0.00760195 0.00113109 ) 0 
( 0.00887589 -0.00419358 0.00727032 ) 0 
( 0.00375647 -0.00759864 0.0029521 ) 0 
( 8.27978e-05 -0.00554775 0.00759777 ) 0 
( 0.0092102 -0.000738707 0.00292017 ) 0 
( 0.000427996 -0.00604312 0.000942134 ) 0 
( 0.00309288 -0.00377772 0.00377506 ) 0 
( 0.0115213 -0.00674441 0.00582827 ) 0 
( 0.00361332 -7.22658e-05 0.000499732 ) 0 
( 0.00461368 -0.00802161 0.00324574 ) 0 
( 7.9201e-06 -0.00536076 0.00378026 ) 0 
( 0.0107547 -0.00173744 0.00704536 ) 0 
( 0.0100514 -0.00466688 0.00547412 ) 0 
( 0.00665408 -0.000309464 0.00414162 ) 0 
( 0.00470896 -0.00688257 0.00140476 ) 0 
( 0.00152678 -0.00664627 0.000499753 ) 0 
( 0.000417832 -0.0124927 0.0056621 ) 0 
( 0.0024198 -0.00319539 0.00423162 ) 0 
( 0.00483065 -0.00216815 0.0050422 ) 0 
( 0.00223473 -0.00170764 0.005406 ) 0 
( 0.00482289 -0.00895164 0.00279002 ) 0 
( 0.00155347 -0.0105379 0.0050483 ) 0 
( 0.00457496 -0.00235527 0.00398875 ) 0 
( 0.00499453 -0.00520658 0.00436162 ) 0 
( 0.00192543 -0.00221662 0.000499682 ) 0 
( 0.000541744 -0.011616 0.00519743 ) 0 
( 0.00222061 -0.000891371 0.00300412 ) 0 
( 0.00366729 -0.0111882 0.00327793 ) 0 
( 0.00212181 -0.0131804 0.00742077 ) 0 
( 0.00204456 -0.00122366 0.000499675 ) 0 
( 0.00139524 -0.00448122 0.00130486 ) 0 
( 0.00357912 -0.00838225 0.00444152 ) 0 
( 0.00847788 -0.0032509 0.00447181 ) 0 
( 0.00260646 -0.00696558 0.000499628 ) 0 
( 0.000640398 -0.00862139 0.0022004 ) 0 
( 0.000614849 -0.00227481 0.00378397 ) 0 
( 0.00809189 -0.0019277 0.00305979 ) 0 
( 0.00121684 -0.00677954 0.00700743 ) 0 
( 0.0100581 -0.00877857 0.00205733 ) 0 
( 0.0133462 -0.000324486 0.00233706 ) 0 
( 0.0131081 -0.00248463 0.00373872 ) 0 
( 0.00554102 -0.00506248 0.00353501 ) 0 
( 0.00480957 -0.00991368 0.00244711 ) 0 
( 0.00999108 -0.00112473 0.00130986 ) 0 
( 0.00733088 -0.00209502 0.00420217 ) 0 
( 0.000689745 -0.00518548 0.00049978 ) 0 
( 0.00695083 -0.00300378 0.00049987 ) 0 
( 0.00334985 -0.0108331 0.00541234 ) 0 
( 0.00441498 -0.00791252 0.00226494 ) 0 
( 0.00443736 -0.00180665 0.00299495 ) 0 
( 0.00937267 -0.00950675 0.00213165 ) 0 
( 0.00488379 -0.00843072 0.00568882 ) 0 
( 0.0067715 -0.00929752 0.00660984 ) 0 
( 0.00459556 -0.00492625 0.00323962 ) 0 
( 0.0033838 -0.00661008 0.006751 ) 0 
( 0.00294712 -0.00415361 0.000499659 ) 0 
( 0.0057143 -0.00375041 0.00696824 ) 0 
( 0.00139452 -0.0104695 0.00226674 ) 0 
( 0.00630807 -0.00702345 0.00659547 ) 0 
( 0.00265761 -0.00037174 0.00373813 ) 0 
( 0.0106472 -0.00303589 0.00626077 ) 0 
( 0.005888 -0.00404486 0.00524425 ) 0 
( 0.00396941 -0.0109902 0.0042101 ) 0 
( 0.00554815 -0.0121426 0.00482787 ) 0 
( 0.00354253 -0.00610296 0.00245758 ) 0 
( 0.00606033 -0.00751532 0.00303003 ) 0 
( 0.000283449 -0.0110738 0.00372481 ) 0 
( 9.87077e-05 -0.00339413 0.00522717 ) 0 
( 0.0120133 -0.00497699 0.00208048 ) 0 
( 0.00246118 -0.0123593 0.00122155 ) 0 
( 0.00579559 -0.00459226 0.00438358 ) 0 
( 0.00200584 -0.0118396 0.000499574 ) 0 
( 0.0118521 -0.000970229 0.00567647 ) 0 
( 0.00588566 -0.00199691 0.00598818 ) 0 
( 0.000713339 -0.0107022 0.0055648 ) 0 
( 0.00690147 -0.011428 0.00773378 ) 0 
( 0.00784135 -0.00748052 0.00357264 ) 0 
( 0.000821035 -0.00927117 0.00716457 ) 0 
( 0.0125436 -0.00135542 0.00232986 ) 0 
( 0.00219157 -0.00689263 0.00321768 ) 0 
( 0.00879286 -0.000716272 0.000499629 ) 0 
( 0.00761561 -0.00113584 0.00421787 ) 0 
( 0.00366365 -0.0119123 0.00174255 ) 0 
( 0.00342715 -0.0098839 0.00132814 ) 0 
( 0.0030577 -0.00884576 0.00236523 ) 0 
( 3.58198e-05 -0.00855083 0.00500955 ) 0 
( 0.00768996 -0.00558066 0.0027715 ) 0 
( 0.00142856 -0.0109005 0.00690484 ) 0 
( 0.00665794 -0.010505 0.00522006 ) 0 
( 0.00390088 -0.00337564 0.00202328 ) 0 