/*--------------------------------*- C++ -*----------------------------------*\
| =========                 |                                                 |
| \\      /  F ield         | OpenFOAM: The Open Source CFD Toolbox           |
|  \\    /   O peration     | Version:  2506                                  |
|   \\  /    A nd           | Website:  www.openfoam.com                      |
|    \\/     M anipulation  |                                                 |
\*---------------------------------------------------------------------------*/
FoamFile
{
    version     2.0;
    format      ascii;
    arch        "LSB;label=32;scalar=64";
    class       volScalarField;
    location    "0.05";
    object      Ksl;
}
// * * * * * * * * * * * * * * * * * * * * * * * * * * * * * * * * * * * * * //

dimensions      [1 -3 -1 0 0 0 0];

internalField   nonuniform List<scalar> 
1152
(
191329
108284
99942.4
410489
135485
99400.1
148251
161272
115024
149352
96396.7
99453.3
134780
55884.2
100041
108801
245909
180103
128918
882770
204416
160998
1.14932e+06
229207
279722
146136
133554
1.43805e+06
178348
421653
212172
229787
326511
254194
636779
1.49465e+07
614005
349697
123827
226790
217525
253530
659307
123887
426403
117967
562162
644122
266028
137759
369285
157154
123584
287793
249700
196962
501731
257290
275607
8.32319e+06
348970
124873
229462
114810
285988
327881
390324
220952
284766
177881
154441
363116
234217
175468
593991
88785.9
156025
458255
392766
3.99199e+06
278410
143094
150731
164154
155284
181060
365576
135448
185417
158027
341295
236620
245031
157628
172970
214952
58758.7
49753.3
70800.9
74488.9
31092.7
55012.4
80704.5
357438
45227.8
52025.8
105436
32356.9
31594.5
109933
288388
82259.6
0
0
0
0
0
0
0
0
0
0
0
0
0
0
0
0
0
0
0
0
0
0
0
0
0
0
0
0
0
0
0
0
0
0
0
0
0
0
0
0
0
0
0
0
0
0
0
0
0
0
0
0
0
0
0
0
0
0
0
0
0
0
0
0
0
0
0
0
0
0
0
0
0
0
0
0
0
0
0
0
0
0
0
0
0
0
0
0
0
0
0
0
0
0
0
0
0
0
0
0
0
0
0
0
0
0
0
0
0
0
0
0
0
0
0
0
0
0
0
0
0
0
0
0
0
0
0
0
0
0
0
0
0
0
0
0
0
0
0
0
0
0
0
0
0
0
0
0
0
0
0
0
0
0
0
0
0
0
0
0
0
0
0
0
0
0
0
0
0
0
0
0
0
0
0
0
0
0
0
0
0
0
0
0
0
0
0
0
0
0
0
0
0
0
0
0
0
0
0
0
0
0
0
0
0
0
0
0
0
0
0
0
0
0
0
0
0
0
0
0
0
0
0
0
0
0
0
0
0
0
0
0
0
0
0
0
0
0
0
0
0
0
0
0
0
0
0
0
0
0
0
0
0
0
0
0
0
0
0
0
0
0
0
0
0
0
0
0
0
0
0
0
130315
98556.3
89238.6
129107
179891
111545
96677.7
79226.7
143257
81955.7
112764
147829
180718
181177
89587.2
94426.7
146701
201032
264463
331939
494562
147151
273511
216526
187714
311061
352029
249169
217759
198032
200636
195963
147732
181241
290520
220626
148482
219357
248992
123071
215355
216591
171802
467484
312527
450236
460317
165471
242528
328969
204845
2.33287e+07
1.68816e+06
130757
446371
203888
200792
185518
193762
260188
151236
931547
300753
219062
118200
300317
160250
477650
274714
183848
262404
169965
136218
345584
150770
192293
295606
217651
194912
221992
284527
638775
211281
111606
219222
235421
215283
193575
312108
149242
467062
246555
150555
288855
167700
162606
42426.1
53910.9
28557.2
30759.7
91155.1
33818.4
22546.1
21064.2
27377.7
14032.9
32871.6
35580.5
78756.3
42920.6
17379.9
35827.6
0
0
0
0
0
0
0
0
0
0
0
0
0
0
0
0
0
0
0
0
0
0
0
0
0
0
0
0
0
0
0
0
0
0
0
0
0
0
0
0
0
0
0
0
0
0
0
0
0
0
0
0
0
0
0
0
0
0
0
0
0
0
0
0
0
0
0
0
0
0
0
0
0
0
0
0
0
0
0
0
0
0
0
0
0
0
0
0
0
0
0
0
0
0
0
0
0
0
0
0
0
0
0
0
0
0
0
0
0
0
0
0
0
0
0
0
0
0
0
0
0
0
0
0
0
0
0
0
0
0
0
0
0
0
0
0
0
0
0
0
0
0
0
0
0
0
0
0
0
0
0
0
0
0
0
0
0
0
0
0
0
0
0
0
0
0
0
0
0
0
0
0
0
0
0
0
0
0
0
0
0
0
0
0
0
0
0
0
0
0
0
0
0
0
0
0
0
0
0
0
0
0
0
0
0
0
0
0
0
0
0
0
0
0
0
0
0
0
0
0
0
0
0
0
0
0
0
0
0
0
0
0
0
0
0
0
0
0
0
0
0
0
0
0
0
0
0
0
0
0
0
0
0
0
0
0
0
0
0
0
0
0
0
0
0
0
0
0
0
0
0
0
94731.7
225661
116668
248328
123529
82129.3
132644
143753
150126
124299
121921
82285.5
108553
139148
116498
483928
154188
160580
357433
159547
656767
328746
176255
145697
330867
181379
158047
302794
145102
287314
325179
139779
201322
469720
221544
204762
369000
113460
215434
208605
97501.1
3.29973e+07
208447
367219
644522
142607
209149
135697
153999
221695
295575
131040
399588
178199
227144
211579
329538
223362
308937
181617
157850
844271
198679
354868
154104
308774
226465
162880
379099
148467
209673
227639
184751
203548
243366
385804
196207
177724
204827
179885
200656
150787
219629
108225
165451
152780
237459
248326
233135
196799
302114
149536
8.62404e+06
175729
183897
140628
100488
77164
63304
78149.2
64002
130618
81609.8
74723.9
45112.7
67335.2
50231.2
27340.7
115951
38207.6
65742.3
61226.1
0
0
156.414
0
0
0
0
0
0
0
0
0
0
0
0
0
0
0
0
0
0
0
0
0
0
0
0
0
0
0
0
0
0
0
0
0
0
0
0
0
0
0
0
0
0
0
0
0
0
0
0
0
0
0
0
0
0
0
0
0
0
0
0
0
0
0
0
0
0
0
0
0
0
0
0
0
0
0
0
0
0
0
0
0
0
0
0
0
0
0
0
0
0
0
0
0
0
0
0
0
0
0
0
0
0
0
0
0
0
0
0
0
0
0
0
0
0
0
0
0
0
0
0
0
0
0
0
0
0
0
0
0
0
0
0
0
0
0
0
0
0
0
0
0
0
0
0
0
0
0
0
0
0
0
0
0
0
0
0
0
0
0
0
0
0
0
0
0
0
0
0
0
0
0
0
0
0
0
0
0
0
0
0
0
0
0
0
0
0
0
0
0
0
0
0
0
0
0
0
0
0
0
0
0
0
0
0
0
0
0
0
0
0
0
0
0
0
0
0
0
0
0
0
0
0
0
0
0
0
0
0
0
0
0
0
0
0
0
0
0
0
0
0
0
0
0
0
0
0
0
0
0
0
0
0
0
0
0
0
0
0
0
0
0
0
0
0
0
0
0
0
0
)
;

boundaryField
{
    inlet
    {
        type            zeroGradient;
    }
    outlet
    {
        type            zeroGradient;
    }
    wall
    {
        type            zeroGradient;
    }
    procBoundary0to1
    {
        type            processor;
        value           nonuniform List<scalar> 
192
(
51593.7
121749
96845.9
236030
323924
212591
188822
249625
103529
435622
282321
163305
1.0829e+06
263295
158417
6.50872e+06
153384
175026
1.53357e+06
124031
1.77385e+06
116757
270282
321035
43238.9
52924.9
137373
98695.5
0
0
0
233.926
0
0
0
0
0
0
0
0
0
0
0
0
0
0
0
0
0
0
0
0
0
0
0
0
0
0
0
0
0
0
0
0
0
0
0
0
0
0
0
0
0
0
0
0
0
0
0
0
0
0
0
0
0
0
0
0
0
0
0
0
0
0
0
0
72543.1
134159
108982
95455.1
245577
270587
180171
175650
311341
255707
218837
8.23042e+06
831012
549052
164497
284277
258479
201000
165327
328529
6.00349e+07
126449
383776
245979
91500.6
39957
33762.9
25111.1
0
0
0
0
0
0
0
0
0
0
0
0
0
0
0
0
0
0
0
0
0
0
0
0
0
0
0
0
0
0
0
0
0
0
0
0
0
0
0
0
0
0
0
0
0
0
0
0
0
0
0
0
0
0
0
0
0
0
0
0
0
0
0
0
0
0
0
0
)
;
    }
    procBoundary0to2
    {
        type            processor;
        value           nonuniform List<scalar> 
192
(
134921
243404
134252
125233
211913
311926
163635
4.22315e+07
197630
559490
215475
147280
175254
4.71893e+06
258096
157502
2.58939e+06
193164
187085
149472
111656
329865
277578
1.8844e+06
93653.8
73971
69584.7
65100.6
0
0
0
0
0
0
0
0
0
0
0
0
0
0
0
0
0
0
0
0
0
0
0
0
0
0
0
0
0
0
0
0
0
0
0
0
0
0
0
0
0
0
0
0
0
0
0
0
0
0
0
0
0
0
0
0
0
0
0
0
0
0
0
0
0
0
0
0
112188
76566.6
154529
99695
492388
204296
643938
620369
160444
107856
243824
143006
306332
149046
262812
198617
148242
238219
378402
170088
222519
91257.5
327223
161655
35156.7
15189.9
44917.6
22440.5
0
0
0
0
0
0
0
0
0
0
0
0
0
0
0
0
0
0
0
0
0
0
0
0
0
0
0
0
0
0
0
0
0
0
0
0
0
0
0
0
0
0
0
0
0
0
0
0
0
0
0
0
0
0
0
0
0
0
0
0
0
0
0
0
0
0
0
0
)
;
    }
}


// ************************************************************************* //
