/*--------------------------------*- C++ -*----------------------------------*\
| =========                 |                                                 |
| \\      /  F ield         | OpenFOAM: The Open Source CFD Toolbox           |
|  \\    /   O peration     | Version:  2506                                  |
|   \\  /    A nd           | Website:  www.openfoam.com                      |
|    \\/     M anipulation  |                                                 |
\*---------------------------------------------------------------------------*/
FoamFile
{
    version     2.0;
    format      ascii;
    arch        "LSB;label=32;scalar=64";
    class       volScalarField;
    location    "0.05";
    object      p;
}
// * * * * * * * * * * * * * * * * * * * * * * * * * * * * * * * * * * * * * //

dimensions      [0 2 -2 0 0 0 0];

internalField   nonuniform List<scalar> 
1152
(
15.5509
15.4231
15.4069
15.6286
15.5284
15.434
15.5802
15.6225
15.5356
15.4186
15.384
15.4689
15.4758
15.3711
15.3976
15.4027
13.4159
13.5109
13.5572
13.4792
13.5826
13.6388
13.3373
13.4262
13.6292
13.6026
13.6775
13.484
13.5939
13.7283
13.8113
13.8156
10.4484
10.5717
11.0186
10.1121
10.1688
10.7959
10.6676
10.5751
10.6426
10.8358
10.9546
10.5129
10.6659
10.5597
10.7657
10.5328
7.58145
7.56929
7.54643
7.64973
7.39196
7.37299
7.65892
7.55844
7.38323
7.50443
7.63389
7.31831
7.36775
7.80083
7.73078
7.7608
4.46316
4.41485
4.16715
4.39354
4.49656
4.36476
4.51771
4.46486
4.17444
4.33819
4.62513
4.72655
4.24695
4.70665
4.71271
5.20495
1.37018
1.53701
1.62597
1.72179
1.36527
1.59811
1.78675
1.9004
1.43219
1.63761
1.66592
1.7985
1.44931
1.74322
1.89861
1.78661
1.01358
1.02007
1.01511
1.01484
1.01695
1.01647
1.01216
0.999853
1.01642
1.01891
1.00701
1.02737
1.02044
1.01165
0.999595
1.00828
1.00515
1.00488
1.00438
1.00406
1.00542
1.00474
1.00403
1.00348
1.00534
1.00485
1.00387
1.00401
1.00563
1.00489
1.0041
1.00326
1.01009
1.01024
1.00956
1.00927
1.01015
1.00997
1.00919
1.00858
1.01021
1.01014
1.00913
1.0098
1.01028
1.00968
1.00869
1.00881
1.00745
1.00738
1.00695
1.00663
1.00752
1.0073
1.00683
1.0064
1.00761
1.00739
1.00685
1.00674
1.00764
1.00731
1.00679
1.00654
1.00715
1.00699
1.00669
1.0064
1.00716
1.00697
1.00665
1.00632
1.00721
1.00702
1.00666
1.00641
1.00724
1.00703
1.00668
1.0064
1.00639
1.00627
1.00603
1.0058
1.00642
1.00627
1.00603
1.00578
1.00646
1.0063
1.00606
1.00581
1.0065
1.00633
1.0061
1.00585
1.00576
1.00565
1.00548
1.00529
1.00578
1.00566
1.00548
1.00529
1.00582
1.00568
1.00551
1.00532
1.00585
1.00572
1.00555
1.00536
1.00517
1.00507
1.00495
1.00481
1.00519
1.00509
1.00496
1.00482
1.00522
1.00512
1.00499
1.00484
1.00525
1.00515
1.00502
1.00488
1.00462
1.00454
1.00445
1.00434
1.00464
1.00456
1.00446
1.00435
1.00466
1.00458
1.00448
1.00437
1.00468
1.0046
1.00451
1.0044
1.00409
1.00403
1.00396
1.00388
1.0041
1.00404
1.00397
1.00389
1.00412
1.00406
1.00399
1.00391
1.00414
1.00408
1.00401
1.00393
1.00358
1.00353
1.00348
1.00342
1.00359
1.00354
1.00349
1.00343
1.0036
1.00356
1.0035
1.00344
1.00362
1.00357
1.00352
1.00346
1.00308
1.00304
1.00301
1.00296
1.00309
1.00305
1.00302
1.00297
1.0031
1.00307
1.00303
1.00298
1.00311
1.00308
1.00304
1.00299
1.00259
1.00257
1.00254
1.00251
1.0026
1.00257
1.00255
1.00251
1.00261
1.00258
1.00255
1.00252
1.00262
1.00259
1.00256
1.00253
1.00211
1.00209
1.00207
1.00205
1.00212
1.0021
1.00208
1.00206
1.00212
1.00211
1.00209
1.00206
1.00213
1.00211
1.00209
1.00207
1.00164
1.00163
1.00161
1.0016
1.00164
1.00163
1.00162
1.0016
1.00165
1.00163
1.00162
1.0016
1.00165
1.00164
1.00162
1.00161
1.00117
1.00116
1.00115
1.00114
1.00117
1.00116
1.00115
1.00114
1.00117
1.00117
1.00116
1.00115
1.00118
1.00117
1.00116
1.00115
1.0007
1.00069
1.00069
1.00068
1.0007
1.0007
1.00069
1.00069
1.0007
1.0007
1.00069
1.00069
1.0007
1.0007
1.00069
1.00069
1.00023
1.00023
1.00023
1.00023
1.00023
1.00023
1.00023
1.00023
1.00023
1.00023
1.00023
1.00023
1.00023
1.00023
1.00023
1.00023
15.2785
15.3334
15.3946
15.4684
15.6642
15.45
15.4615
15.4549
15.5644
15.5108
15.5631
15.5717
15.707
15.5966
15.5109
15.4757
13.2073
13.3202
13.4762
13.4078
13.0464
13.3249
13.4822
13.4133
13.3396
13.5885
13.4806
13.598
13.3595
13.4823
13.7228
13.5632
10.6092
10.606
10.5075
10.3726
10.411
10.3509
10.3873
10.3297
10.1956
10.1548
10.1821
10.365
9.94286
10.5108
10.5244
10.4794
7.46324
7.60683
7.44063
7.81281
7.7413
7.51575
7.47753
7.513
7.05339
7.27137
7.19744
7.17193
7.08953
7.05208
7.0352
7.39786
4.55384
4.53483
4.3826
4.13516
4.36025
4.59858
4.33156
4.34206
4.37292
4.29776
4.35639
4.2587
4.27657
4.02485
4.02493
4.15319
1.68383
1.3862
1.3539
1.34216
1.59348
1.36618
1.22423
1.27663
1.36371
1.18582
1.30515
1.33242
1.56939
1.32027
1.23665
1.35937
1.02049
1.0129
1.01677
1.01746
1.01109
1.01473
1.0147
1.01667
1.0166
1.01314
1.01407
1.01795
1.01442
1.0148
1.01781
1.01764
1.00548
1.00539
1.00569
1.00566
1.00581
1.00599
1.00598
1.00592
1.00665
1.0069
1.00601
1.00592
1.00592
1.00607
1.0065
1.00592
1.01087
1.01056
1.01053
1.01048
1.01001
1.0101
1.01021
1.01032
1.01064
1.01046
1.01033
1.0105
1.01039
1.01036
1.01045
1.01043
1.00769
1.00768
1.00764
1.00758
1.00764
1.00771
1.00771
1.00767
1.00806
1.00806
1.00794
1.00782
1.00795
1.00799
1.00795
1.00784
1.00745
1.0074
1.00736
1.0073
1.00739
1.00736
1.00735
1.0073
1.00759
1.00754
1.00746
1.00737
1.00756
1.00752
1.00747
1.00739
1.00658
1.00657
1.00653
1.00649
1.0066
1.00659
1.00656
1.00651
1.00676
1.00674
1.00668
1.00659
1.00678
1.00676
1.0067
1.00662
1.00592
1.0059
1.00588
1.00584
1.00596
1.00595
1.00592
1.00587
1.00606
1.00604
1.00599
1.00592
1.00609
1.00607
1.00602
1.00595
1.00529
1.00528
1.00526
1.00524
1.00534
1.00533
1.0053
1.00526
1.00541
1.00539
1.00535
1.0053
1.00544
1.00543
1.00539
1.00533
1.0047
1.0047
1.00468
1.00466
1.00475
1.00474
1.00472
1.00469
1.0048
1.00479
1.00476
1.00472
1.00483
1.00482
1.00479
1.00474
1.00415
1.00415
1.00414
1.00412
1.00419
1.00418
1.00417
1.00414
1.00423
1.00422
1.0042
1.00417
1.00426
1.00425
1.00422
1.00419
1.00362
1.00362
1.00361
1.0036
1.00366
1.00365
1.00364
1.00362
1.00369
1.00368
1.00366
1.00364
1.00371
1.0037
1.00368
1.00365
1.00311
1.00311
1.0031
1.0031
1.00314
1.00313
1.00313
1.00311
1.00316
1.00316
1.00314
1.00313
1.00318
1.00317
1.00316
1.00314
1.00262
1.00261
1.00261
1.00261
1.00264
1.00263
1.00263
1.00262
1.00265
1.00265
1.00264
1.00263
1.00267
1.00266
1.00265
1.00264
1.00213
1.00213
1.00213
1.00212
1.00215
1.00214
1.00214
1.00213
1.00216
1.00215
1.00215
1.00214
1.00217
1.00216
1.00216
1.00215
1.00165
1.00165
1.00165
1.00164
1.00166
1.00166
1.00166
1.00165
1.00167
1.00167
1.00166
1.00166
1.00168
1.00167
1.00167
1.00166
1.00118
1.00117
1.00117
1.00117
1.00118
1.00118
1.00118
1.00118
1.00119
1.00119
1.00118
1.00118
1.00119
1.00119
1.00119
1.00118
1.0007
1.0007
1.0007
1.0007
1.00071
1.00071
1.00071
1.0007
1.00071
1.00071
1.00071
1.00071
1.00071
1.00071
1.00071
1.00071
1.00023
1.00023
1.00023
1.00023
1.00024
1.00024
1.00024
1.00023
1.00024
1.00024
1.00024
1.00024
1.00024
1.00024
1.00024
1.00024
15.2373
15.3414
15.3942
15.4183
15.3597
15.2777
15.327
15.3166
15.4196
15.3134
15.3083
15.309
15.4171
15.4367
15.4276
15.4335
13.3817
13.1433
13.33
13.0795
13.3971
12.9744
13.1756
13.2027
13.0285
12.8964
13.2144
13.4816
13.2786
13.1731
13.3314
13.154
10.4793
10.3013
10.2416
10.0949
10.5506
10.0789
10.3652
10.3823
10.7235
10.1693
10.4474
10.2384
10.6498
10.6981
10.4935
10.3925
7.42797
7.41958
7.32945
7.13399
7.57578
7.60117
7.45301
7.28944
7.91762
7.82326
7.54931
7.34437
7.70548
7.71159
7.51795
7.56156
4.59697
4.38464
4.33399
4.25757
4.42347
4.49209
4.44386
4.32468
4.47362
4.4643
4.38988
4.23155
4.52074
4.30487
4.27661
4.12806
1.97713
1.89184
1.72723
1.84469
1.74998
1.9909
1.75982
1.63665
1.56214
1.71922
1.46285
1.34889
1.21741
1.50857
1.58276
1.57428
1.01506
1.01895
1.01473
1.02158
1.01627
1.01047
1.01278
1.01097
1.01709
1.01508
1.01549
1.01689
1.02538
1.02221
1.01556
1.01344
1.00484
1.0048
1.00475
1.00404
1.00494
1.00464
1.00479
1.00455
1.00522
1.00494
1.00491
1.00503
1.00553
1.00517
1.00465
1.00429
1.01033
1.01052
1.01014
1.01102
1.01027
1.0101
1.00986
1.01011
1.0103
1.01023
1.00988
1.00988
1.01029
1.01034
1.00973
1.00942
1.00736
1.00739
1.00722
1.00729
1.00741
1.00739
1.00719
1.00712
1.00742
1.00741
1.00714
1.00699
1.00741
1.0074
1.00703
1.00675
1.00726
1.00719
1.00695
1.00684
1.00722
1.00712
1.00687
1.00671
1.00721
1.00709
1.00683
1.00661
1.00718
1.00704
1.00676
1.00648
1.00641
1.00635
1.00616
1.00601
1.00641
1.00635
1.00614
1.00597
1.0064
1.00633
1.00611
1.00591
1.00638
1.00628
1.00606
1.00584
1.00579
1.00571
1.00554
1.0054
1.00578
1.0057
1.00553
1.00537
1.00577
1.00568
1.00552
1.00534
1.00575
1.00566
1.00549
1.00531
1.00519
1.00511
1.00498
1.00485
1.00518
1.00511
1.00498
1.00484
1.00517
1.00509
1.00497
1.00483
1.00516
1.00508
1.00495
1.00481
1.00463
1.00456
1.00446
1.00435
1.00462
1.00455
1.00446
1.00435
1.00462
1.00455
1.00445
1.00434
1.00461
1.00454
1.00444
1.00434
1.00409
1.00403
1.00396
1.00388
1.00409
1.00403
1.00396
1.00388
1.00409
1.00403
1.00396
1.00388
1.00408
1.00402
1.00395
1.00387
1.00358
1.00353
1.00348
1.00341
1.00358
1.00353
1.00348
1.00341
1.00357
1.00353
1.00347
1.00341
1.00357
1.00353
1.00347
1.00342
1.00308
1.00304
1.003
1.00296
1.00308
1.00304
1.003
1.00296
1.00308
1.00304
1.003
1.00296
1.00307
1.00304
1.003
1.00296
1.00259
1.00256
1.00253
1.0025
1.00259
1.00256
1.00253
1.0025
1.00259
1.00256
1.00253
1.0025
1.00259
1.00256
1.00253
1.0025
1.00211
1.00209
1.00207
1.00205
1.00211
1.00209
1.00207
1.00205
1.00211
1.00209
1.00207
1.00205
1.00211
1.00209
1.00207
1.00205
1.00164
1.00162
1.00161
1.00159
1.00164
1.00162
1.00161
1.00159
1.00164
1.00162
1.00161
1.00159
1.00164
1.00162
1.00161
1.00159
1.00117
1.00116
1.00115
1.00114
1.00117
1.00116
1.00115
1.00114
1.00117
1.00116
1.00115
1.00114
1.00117
1.00116
1.00115
1.00114
1.0007
1.00069
1.00069
1.00068
1.0007
1.00069
1.00069
1.00068
1.0007
1.00069
1.00069
1.00068
1.0007
1.00069
1.00069
1.00068
1.00023
1.00023
1.00023
1.00023
1.00023
1.00023
1.00023
1.00023
1.00023
1.00023
1.00023
1.00023
1.00023
1.00023
1.00023
1.00023
)
;

boundaryField
{
    inlet
    {
        type            zeroGradient;
    }
    outlet
    {
        type            fixedValue;
        value           uniform 1;
    }
    wall
    {
        type            zeroGradient;
    }
    procBoundary0to1
    {
        type            processor;
        value           nonuniform List<scalar> 
192
(
15.3299
15.4197
15.3504
15.2597
13.6854
13.7038
13.648
13.5132
10.4846
10.6267
10.6414
10.9445
7.80162
7.29516
7.47872
7.65637
4.34521
4.23802
4.74679
4.7601
1.39698
1.7263
1.73091
2.13691
1.01891
1.0197
1.00341
1.00593
1.00373
1.00314
1.00262
1.00303
1.00877
1.00838
1.00788
1.00772
1.00615
1.00597
1.00588
1.00593
1.00601
1.00593
1.00593
1.00599
1.0055
1.00547
1.0055
1.00555
1.00507
1.00507
1.00509
1.00514
1.00465
1.00465
1.00468
1.00471
1.00422
1.00423
1.00425
1.00428
1.00379
1.0038
1.00382
1.00384
1.00336
1.00337
1.00338
1.0034
1.00292
1.00293
1.00294
1.00295
1.00248
1.00248
1.00249
1.0025
1.00203
1.00203
1.00204
1.00205
1.00158
1.00158
1.00159
1.00159
1.00113
1.00113
1.00114
1.00114
1.00068
1.00068
1.00068
1.00068
1.00023
1.00023
1.00023
1.00023
15.2907
15.3576
15.3261
15.3261
13.8846
13.5675
13.5348
13.6051
10.7478
10.572
10.2778
10.4501
7.02796
7.06076
7.18201
7.30044
3.6673
3.8071
4.29058
4.23373
1.241
1.48003
1.33051
1.23032
1.06908
1.02597
1.01447
1.01319
1.01038
1.00672
1.00517
1.00447
1.01183
1.0105
1.00949
1.00894
1.00726
1.00696
1.00659
1.00632
1.00651
1.00638
1.00623
1.00611
1.0057
1.00566
1.0056
1.00555
1.00515
1.00513
1.00511
1.00509
1.00467
1.00467
1.00466
1.00465
1.00422
1.00422
1.00422
1.00422
1.00378
1.00378
1.00378
1.00379
1.00335
1.00335
1.00335
1.00335
1.00291
1.00291
1.00291
1.00291
1.00247
1.00247
1.00247
1.00247
1.00202
1.00202
1.00202
1.00203
1.00157
1.00157
1.00158
1.00158
1.00113
1.00113
1.00113
1.00113
1.00068
1.00068
1.00068
1.00068
1.00023
1.00023
1.00023
1.00023
)
;
    }
    procBoundary0to2
    {
        type            processor;
        value           nonuniform List<scalar> 
192
(
15.5102
15.5686
15.4188
15.0413
13.4385
13.5346
13.5503
13.0128
10.5062
10.7625
11.1049
11.5094
7.65522
7.45222
7.78738
8.00199
4.13368
4.59199
4.82444
5.07418
1.62224
1.69773
1.81423
1.86662
1.01476
1.01486
1.01543
1.01756
1.00552
1.0052
1.00468
1.00393
1.01039
1.01005
1.00958
1.00947
1.00774
1.00745
1.00704
1.00676
1.00733
1.00711
1.00681
1.00653
1.00656
1.00639
1.00617
1.00594
1.0059
1.00577
1.00561
1.00542
1.00529
1.00518
1.00506
1.00492
1.00471
1.00463
1.00454
1.00444
1.00416
1.0041
1.00403
1.00396
1.00363
1.00359
1.00354
1.00348
1.00312
1.00309
1.00305
1.00301
1.00263
1.0026
1.00257
1.00254
1.00214
1.00212
1.0021
1.00208
1.00166
1.00164
1.00163
1.00161
1.00118
1.00117
1.00116
1.00115
1.00071
1.0007
1.0007
1.00069
1.00024
1.00023
1.00023
1.00023
15.4608
15.3528
15.5789
15.5024
13.1932
13.099
13.2849
13.4124
10.1561
10.2106
10.2131
10.3221
7.26887
7.57617
7.50525
7.51722
4.1059
3.99943
4.29652
4.25835
1.40171
1.30862
1.25398
1.36165
1.01789
1.02218
1.01425
1.0208
1.00643
1.00751
1.00619
1.00653
1.01115
1.0113
1.01074
1.01085
1.0083
1.00839
1.00816
1.00803
1.00777
1.00773
1.00763
1.00751
1.00689
1.00687
1.0068
1.0067
1.00616
1.00613
1.00608
1.006
1.00549
1.00547
1.00543
1.00537
1.00486
1.00485
1.00482
1.00477
1.00428
1.00427
1.00424
1.00421
1.00372
1.00371
1.0037
1.00367
1.00319
1.00318
1.00317
1.00315
1.00268
1.00267
1.00266
1.00265
1.00217
1.00217
1.00216
1.00215
1.00168
1.00168
1.00167
1.00167
1.0012
1.0012
1.00119
1.00119
1.00072
1.00072
1.00071
1.00071
1.00024
1.00024
1.00024
1.00024
)
;
    }
}


// ************************************************************************* //
