/*--------------------------------*- C++ -*----------------------------------*\
| =========                 |                                                 |
| \\      /  F ield         | OpenFOAM: The Open Source CFD Toolbox           |
|  \\    /   O peration     | Version:  2506                                  |
|   \\  /    A nd           | Website:  www.openfoam.com                      |
|    \\/     M anipulation  |                                                 |
\*---------------------------------------------------------------------------*/
FoamFile
{
    version     2.0;
    format      ascii;
    arch        "LSB;label=32;scalar=64";
    class       surfaceScalarField;
    location    "0.05";
    object      phi;
}
// * * * * * * * * * * * * * * * * * * * * * * * * * * * * * * * * * * * * * //

dimensions      [0 3 -1 0 0 0 0];

oriented        oriented;

internalField   nonuniform List<scalar> 
3120
(
3.68435e-09
3.62916e-10
2.0055e-08
2.97811e-09
5.62045e-09
7.00276e-10
-2.34648e-10
3.66773e-08
-6.69553e-10
-5.85405e-09
-5.41493e-09
4.58816e-08
-1.01634e-09
6.11635e-10
6.6286e-09
1.11492e-09
3.64261e-09
-2.92147e-10
2.7153e-08
3.33936e-09
-5.14765e-09
1.27375e-09
4.04426e-08
-1.02472e-09
7.29678e-09
1.64215e-08
5.06419e-09
2.21841e-08
4.67099e-09
1.90702e-09
2.81575e-08
-1.73064e-09
2.21202e-09
3.16304e-09
3.24001e-08
-3.14583e-09
-4.85696e-11
4.12077e-08
3.01957e-09
2.6723e-08
8.10491e-09
2.8147e-08
-5.32746e-10
3.83079e-10
5.58342e-08
1.24294e-09
3.0774e-08
2.28424e-08
-1.98355e-09
-2.62392e-09
2.0143e-08
1.48019e-10
4.37149e-09
-1.42391e-09
-3.4063e-09
3.30909e-08
6.43301e-09
1.84934e-09
5.44064e-09
3.21014e-08
5.06636e-09
1.12714e-09
4.95664e-09
4.01536e-09
-9.84531e-10
-5.40199e-10
2.28414e-08
3.21242e-09
4.88893e-09
1.01388e-09
3.01489e-08
-1.34735e-09
-6.20162e-09
3.43e-08
2.03219e-10
2.68463e-08
7.01778e-10
9.59241e-10
2.51896e-08
7.66695e-10
-1.89415e-09
-2.76799e-09
3.87779e-08
3.84993e-09
-3.96058e-09
3.32225e-08
-2.12255e-09
3.58259e-08
-2.07141e-09
2.70462e-08
7.8134e-10
-8.35402e-10
5.05424e-08
5.52945e-11
2.06994e-08
1.77388e-08
-1.80254e-09
2.0184e-09
1.94646e-08
2.30449e-09
-1.84198e-09
-4.27009e-09
-2.09436e-09
4.18075e-08
-4.15462e-09
1.0245e-09
8.33073e-09
1.2429e-08
6.04706e-09
5.02589e-09
4.66313e-08
-2.07495e-08
-4.08704e-09
-4.57579e-09
3.86634e-08
-5.14075e-09
3.35892e-09
-4.29369e-10
2.1038e-08
3.0448e-09
-5.35841e-09
4.83033e-08
2.11201e-09
3.35688e-08
-3.09176e-09
-2.46693e-10
2.06663e-08
3.28593e-09
-1.27604e-09
8.15744e-09
2.83753e-08
8.39497e-09
8.6477e-10
1.73283e-08
-2.20759e-10
5.00165e-08
3.6799e-09
1.82891e-08
2.43757e-09
-4.20475e-09
7.04635e-08
1.14392e-09
2.00173e-08
4.42555e-08
4.75237e-10
6.04382e-09
2.24727e-08
-6.04669e-09
-3.48043e-09
2.32608e-10
4.9106e-09
4.06768e-08
-3.53734e-09
-2.10554e-09
-1.23041e-09
1.59271e-08
7.041e-11
2.85042e-09
4.3162e-08
1.23688e-09
3.91392e-10
9.32227e-10
4.64161e-08
-3.03257e-09
-4.07159e-09
-1.5906e-09
3.20021e-08
1.89671e-09
3.41963e-10
4.07626e-08
6.40836e-09
2.74583e-08
-1.52834e-09
-8.10086e-11
2.0849e-08
2.3589e-09
-1.91442e-09
-8.01304e-09
3.51839e-08
1.20408e-09
-1.48796e-09
1.60398e-08
-7.55852e-09
6.9247e-08
-1.14037e-08
3.50388e-08
-2.26265e-10
1.78924e-09
4.39455e-08
-3.63019e-10
2.15161e-08
4.47288e-08
2.13108e-10
-1.42548e-10
2.03357e-08
3.23333e-09
-1.16687e-09
1.85356e-09
9.09072e-10
3.56498e-08
2.47745e-09
-3.00681e-09
-6.40689e-09
2.89145e-08
-1.7201e-09
-9.3649e-10
3.51513e-08
4.93701e-09
1.74595e-09
5.03522e-09
3.59799e-08
3.51253e-09
-4.49745e-09
6.37905e-10
3.85167e-08
6.3928e-10
-2.01286e-09
3.12318e-08
-1.03074e-08
3.35937e-08
-4.12078e-09
-1.11534e-09
3.20018e-08
-8.81537e-10
-4.89553e-09
-5.376e-09
4.19725e-08
-3.52339e-09
-4.36268e-10
1.3091e-08
-1.56683e-08
7.19127e-08
-8.29586e-09
3.74871e-08
2.78204e-09
-2.83401e-10
2.89895e-08
-2.32331e-09
2.45166e-08
1.85219e-08
-4.16501e-09
1.8841e-10
2.27151e-08
1.55263e-09
4.44945e-11
-3.10828e-09
-1.49531e-09
3.60511e-08
3.73196e-11
-2.81219e-09
-3.17888e-09
3.07903e-08
1.00692e-09
-5.54677e-09
2.87624e-08
4.77997e-09
-6.48734e-09
-1.44613e-09
4.13991e-08
2.70262e-09
-3.76482e-09
-7.29733e-10
3.50286e-08
-2.75584e-09
1.1922e-09
2.58517e-08
2.55402e-09
1.59982e-08
-5.84847e-09
-7.69448e-11
3.42829e-08
2.19821e-09
-1.0571e-09
-2.59428e-09
3.90457e-08
-2.13942e-09
-3.48077e-09
1.88463e-08
5.87168e-11
7.14892e-08
-7.08767e-09
4.70922e-08
2.51139e-09
-4.33757e-09
2.2597e-08
1.56717e-09
1.3579e-08
2.56501e-08
-1.99367e-09
-1.10851e-09
3.07757e-08
4.99355e-11
-5.00829e-09
1.53048e-10
1.02602e-09
3.89933e-08
-6.11513e-09
-4.0891e-10
1.02802e-10
3.13571e-08
-1.07606e-10
8.95763e-11
2.88092e-08
4.14819e-10
-1.10721e-09
5.09183e-12
3.98381e-08
1.55458e-09
-2.10823e-10
1.17762e-10
3.50403e-08
-3.46055e-10
2.46916e-10
2.58428e-08
-4.63643e-09
2.3336e-08
-1.54312e-09
-5.97681e-10
3.59656e-08
4.63036e-10
4.00725e-10
1.3457e-09
3.58738e-08
-4.01397e-09
6.76933e-11
2.34401e-08
3.20309e-09
5.9431e-08
7.47968e-10
4.26971e-08
1.33518e-09
4.50956e-10
2.40132e-08
-2.02318e-10
1.5404e-08
2.89107e-08
2.72744e-09
-3.81493e-09
3.28698e-08
-4.39733e-09
3.39024e-09
2.17831e-09
-9.28628e-10
3.88198e-08
1.65083e-09
-8.08872e-11
2.61385e-10
3.27138e-08
6.40772e-10
-2.87733e-10
3.10941e-08
-4.25985e-10
5.16789e-09
-1.2602e-09
3.64079e-08
-4.29271e-09
3.6416e-09
-3.34901e-10
3.59724e-08
1.04307e-09
7.00737e-10
2.80016e-08
-1.15018e-09
2.59499e-08
4.12507e-09
-1.22006e-10
3.56975e-08
-4.99541e-09
3.09927e-09
1.26284e-09
3.53016e-08
-3.96768e-10
7.48066e-10
2.68886e-08
4.5157e-09
5.16687e-08
6.30864e-09
3.80954e-08
-3.97572e-09
4.50819e-09
2.61398e-08
2.75352e-09
1.77743e-08
3.46137e-08
5.89199e-10
-5.03487e-10
3.379e-08
-1.60487e-09
5.98567e-10
1.99004e-09
1.31013e-09
3.52778e-08
8.30642e-10
-3.47998e-11
2.31682e-09
3.29013e-08
-4.79635e-10
-2.58919e-11
3.27776e-08
-1.23017e-09
1.46592e-09
-1.89182e-10
3.4648e-08
-2.05588e-11
3.21215e-09
1.36055e-09
3.41754e-08
3.67245e-10
2.06069e-09
3.11024e-08
-3.68573e-09
3.1409e-08
1.30015e-09
4.2502e-10
3.41278e-08
-3.44824e-10
7.97347e-10
3.53337e-09
3.36313e-08
-4.0439e-09
2.84055e-09
3.09497e-08
3.24569e-09
3.90376e-08
4.27289e-09
3.40617e-08
-5.76381e-10
3.05086e-09
3.02874e-08
-3.1462e-09
2.7881e-08
3.43385e-08
3.09004e-10
-8.16393e-10
3.35383e-08
-6.53412e-10
1.41216e-09
7.14003e-10
2.03591e-10
3.39074e-08
7.6143e-10
-1.13475e-10
7.40779e-10
3.30775e-08
-8.96575e-11
-1.7908e-11
3.32772e-08
-5.49795e-10
9.35226e-10
-2.00725e-10
3.36681e-08
-5.71255e-10
1.29608e-09
5.37982e-10
3.348e-08
8.27219e-12
7.08073e-10
3.24228e-08
-1.20261e-09
3.2862e-08
1.00994e-09
4.81036e-10
3.34941e-08
-1.05813e-09
4.47813e-10
1.46466e-09
3.32666e-08
-1.51849e-09
1.18534e-09
3.24386e-08
1.09074e-09
3.48851e-08
1.83006e-09
3.3101e-08
-8.33726e-10
9.07568e-10
3.20829e-08
-1.5707e-09
3.13579e-08
3.3633e-08
4.88563e-10
1.79087e-10
3.34522e-08
-6.9423e-10
1.12341e-10
5.09583e-10
3.91722e-10
3.35256e-08
-3.1063e-11
5.54137e-11
4.63984e-10
3.32487e-08
-1.81069e-10
2.21125e-10
3.33769e-08
-3.83207e-10
5.00417e-10
2.57625e-10
3.34664e-08
-3.77391e-10
5.61806e-10
4.23362e-10
3.33868e-08
2.64941e-11
4.02942e-10
3.30191e-08
-1.32532e-10
3.32256e-08
5.21614e-10
4.40241e-10
3.33933e-08
-6.03458e-10
2.55385e-10
6.77432e-10
3.32786e-08
-4.68198e-10
5.61029e-10
3.3004e-08
4.38639e-10
3.37363e-08
6.14073e-10
3.3123e-08
-3.59841e-10
2.46636e-10
3.28421e-08
-6.31209e-10
3.26084e-08
3.33823e-08
2.02346e-10
3.6353e-11
3.33193e-08
-2.60182e-10
1.5423e-10
2.00056e-10
1.78136e-10
3.33837e-08
-3.38736e-11
3.5005e-11
2.12625e-10
3.32979e-08
-9.67576e-11
1.73206e-10
3.33693e-08
-2.31328e-10
2.24707e-10
1.2249e-10
3.33525e-08
-1.97009e-10
2.21627e-10
2.16026e-10
3.33519e-08
2.12691e-11
1.99832e-10
3.32323e-08
4.41315e-11
3.33237e-08
2.89852e-10
2.32984e-10
3.33519e-08
-3.59023e-10
1.69857e-10
3.02636e-10
3.33119e-08
-1.04547e-10
2.57427e-10
3.32209e-08
1.91596e-10
3.34504e-08
2.7336e-10
3.32183e-08
-2.24896e-10
1.29336e-10
3.31468e-08
-2.09635e-10
3.30796e-08
3.33417e-08
1.49059e-10
6.47101e-11
3.32711e-08
-1.81962e-10
1.63077e-11
1.32508e-10
1.10809e-10
3.33387e-08
-4.90715e-11
4.68334e-11
1.11759e-10
3.33312e-08
-5.93067e-11
1.08376e-10
3.33684e-08
-1.27411e-10
1.40395e-10
8.72576e-11
3.33267e-08
-1.37168e-10
1.28334e-10
1.18972e-10
3.33558e-08
3.52415e-11
1.06092e-10
3.33312e-08
6.13644e-11
3.33662e-08
1.74355e-10
1.27637e-10
3.33512e-08
-2.14022e-10
1.12778e-10
1.4141e-10
3.3351e-08
-9.88046e-12
1.20902e-10
3.33288e-08
8.82598e-11
3.3398e-08
1.43282e-10
3.32964e-08
-1.33559e-10
8.02455e-11
3.32902e-08
-5.17141e-11
3.32755e-08
3.33607e-08
7.94548e-11
3.37937e-11
3.32458e-08
-9.14024e-11
3.52421e-12
7.13095e-11
5.46923e-11
3.33227e-08
-3.0143e-11
3.49222e-11
5.4017e-11
3.33467e-08
-3.2925e-11
5.81937e-11
3.33706e-08
-6.51532e-11
7.91087e-11
4.40896e-11
3.33192e-08
-8.19353e-11
6.8851e-11
5.6859e-11
3.3364e-08
2.95941e-11
5.22367e-11
3.33724e-08
3.95873e-11
3.33895e-08
9.79447e-11
5.82288e-11
3.33571e-08
-1.18005e-10
6.74605e-11
5.98325e-11
3.33785e-08
1.61287e-11
5.24874e-11
3.33801e-08
4.04492e-11
3.34025e-08
7.95527e-11
3.334e-08
-7.85732e-11
5.07434e-11
3.33582e-08
-3.01686e-12
3.33617e-08
3.33899e-08
4.67329e-11
1.71611e-11
3.32353e-08
-5.10379e-11
-2.1456e-12
4.13006e-11
2.56411e-11
3.33189e-08
-1.59274e-11
2.44247e-11
2.56656e-11
3.33551e-08
-1.69656e-11
2.90035e-11
3.33747e-08
-3.21089e-11
4.74744e-11
2.05825e-11
3.3319e-08
-5.05834e-11
4.02114e-11
2.5093e-11
3.3372e-08
2.23473e-11
2.37394e-11
3.33925e-08
2.07723e-11
3.34043e-08
5.64371e-11
2.45348e-11
3.33623e-08
-6.55607e-11
4.10458e-11
2.37134e-11
3.33954e-08
1.8136e-11
2.03754e-11
3.34066e-08
1.58918e-11
3.34165e-08
4.69664e-11
3.33649e-08
-4.68172e-11
3.36896e-11
3.33934e-08
1.08242e-11
3.34032e-08
3.34143e-08
2.79027e-11
7.1955e-12
3.32308e-08
-2.89463e-11
-1.39432e-12
2.4962e-11
1.08995e-11
3.33185e-08
-7.06446e-12
1.67379e-11
1.12656e-11
3.33602e-08
-7.78707e-12
1.30589e-11
3.33786e-08
-1.47034e-11
2.90456e-11
7.31657e-12
3.33201e-08
-3.01819e-11
2.47561e-11
9.76742e-12
3.33777e-08
1.60583e-11
9.59653e-12
3.34031e-08
8.94175e-12
3.34137e-08
3.28993e-11
8.12543e-12
3.33655e-08
-3.68048e-11
2.54461e-11
7.64933e-12
3.3405e-08
1.47627e-11
6.3676e-12
3.34207e-08
4.97535e-12
3.34276e-08
2.87558e-11
3.33778e-08
-2.87648e-11
2.25163e-11
3.34114e-08
1.20891e-11
3.34241e-08
3.34303e-08
1.71197e-11
1.98671e-12
3.32288e-08
-1.67617e-11
-1.17883e-13
1.57028e-11
3.66455e-12
3.33191e-08
-2.27294e-12
1.15324e-11
4.05362e-12
3.33633e-08
-2.81168e-12
5.05369e-12
3.33817e-08
-6.02505e-12
1.80237e-11
1.68208e-12
3.33208e-08
-1.82645e-11
1.57392e-11
2.75625e-12
3.33811e-08
1.13099e-11
2.85261e-12
3.34089e-08
2.80263e-12
3.34195e-08
1.96215e-11
1.37131e-12
3.33674e-08
-2.11236e-11
1.61133e-11
8.47175e-13
3.34105e-08
1.09588e-11
3.16758e-13
3.34285e-08
-3.26605e-14
3.3435e-08
1.80413e-11
3.33843e-08
-1.78426e-11
1.50705e-11
3.34205e-08
1.01391e-11
3.34347e-08
3.34397e-08
1.07405e-11
-4.62767e-13
3.32279e-08
-9.93618e-12
8.13034e-13
1.01335e-11
3.26717e-13
3.33197e-08
9.90748e-14
7.96159e-12
6.2657e-13
3.33653e-08
-3.07261e-13
1.18414e-12
3.33839e-08
-1.86792e-12
1.13651e-11
-7.93804e-13
3.33212e-08
-1.12409e-11
1.02013e-11
-3.43252e-13
3.3383e-08
7.87731e-12
-2.49871e-13
3.34121e-08
-1.67429e-13
3.34231e-08
1.20231e-11
-1.41092e-12
3.33685e-08
-1.24369e-11
1.03921e-11
-1.75553e-12
3.34135e-08
7.82204e-12
-1.97542e-12
3.34329e-08
-1.98589e-12
3.34396e-08
1.14059e-11
3.33873e-08
-1.11457e-11
1.00283e-11
3.34251e-08
7.63933e-12
3.34403e-08
3.34452e-08
6.88181e-12
-1.43586e-12
3.32275e-08
-6.05783e-12
1.27357e-12
6.64515e-12
-1.06402e-12
3.33201e-08
1.10768e-12
5.47763e-12
-8.46462e-13
3.33666e-08
8.07664e-13
-5.35108e-13
3.33854e-08
4.55996e-15
7.28458e-12
-1.72619e-12
3.33213e-08
-7.06673e-12
6.69081e-12
-1.55822e-12
3.33842e-08
5.43856e-12
-1.49765e-12
3.3414e-08
-1.41713e-12
3.34253e-08
7.54683e-12
-2.24977e-12
3.33691e-08
-7.56486e-12
6.79033e-12
-2.48335e-12
3.34152e-08
5.45315e-12
-2.59782e-12
3.34354e-08
-2.56731e-12
3.34423e-08
7.27882e-12
3.33887e-08
-7.03671e-12
6.6526e-12
3.34274e-08
5.41665e-12
3.34433e-08
3.34484e-08
4.46527e-12
-1.67461e-12
3.32273e-08
-3.78927e-12
1.39516e-12
4.37482e-12
-1.48804e-12
3.33204e-08
1.38605e-12
3.73868e-12
-1.31925e-12
3.33673e-08
1.16569e-12
-1.13149e-12
3.33864e-08
7.12492e-13
4.7271e-12
-1.91791e-12
3.33214e-08
-4.53677e-12
4.41735e-12
-1.85018e-12
3.33848e-08
3.73019e-12
-1.79216e-12
3.34151e-08
-1.73258e-12
3.34267e-08
4.83991e-12
-2.26651e-12
3.33694e-08
-4.75892e-12
4.4904e-12
-2.41344e-12
3.34161e-08
3.7592e-12
-2.46181e-12
3.34367e-08
-2.48573e-12
3.3444e-08
4.72412e-12
3.33893e-08
-4.51803e-12
4.44043e-12
3.34286e-08
3.71444e-12
3.34449e-08
3.34503e-08
2.90077e-12
-1.53601e-12
3.32271e-08
-2.41693e-12
1.28389e-12
2.85819e-12
-1.42166e-12
3.33206e-08
1.27688e-12
2.52297e-12
-1.2795e-12
3.33678e-08
1.11066e-12
-1.1459e-12
3.3387e-08
8.24349e-13
3.0835e-12
-1.71824e-12
3.33214e-08
-2.95509e-12
2.91356e-12
-1.67217e-12
3.33851e-08
2.5384e-12
-1.60542e-12
3.34157e-08
-1.55059e-12
3.34274e-08
3.15604e-12
-1.90677e-12
3.33695e-08
-3.06435e-12
2.98761e-12
-1.9747e-12
3.34165e-08
2.5794e-12
-1.98563e-12
3.34374e-08
-2.03463e-12
3.34449e-08
3.11977e-12
3.33895e-08
-2.95158e-12
2.99113e-12
3.34291e-08
2.52641e-12
3.34457e-08
3.34513e-08
1.87795e-12
-1.17608e-12
3.32269e-08
-1.56155e-12
1.00344e-12
1.85776e-12
-1.09046e-12
3.33206e-08
9.55626e-13
1.69835e-12
-9.681e-13
3.33679e-08
8.2822e-13
-8.61113e-13
3.33872e-08
6.37185e-13
2.01348e-12
-1.29368e-12
3.33213e-08
-1.93283e-12
1.92208e-12
-1.24561e-12
3.33851e-08
1.73317e-12
-1.1735e-12
3.34159e-08
-1.11305e-12
3.34278e-08
2.07693e-12
-1.36318e-12
3.33694e-08
-1.99528e-12
1.99819e-12
-1.38072e-12
3.34167e-08
1.78763e-12
-1.35949e-12
3.34377e-08
-1.39352e-12
3.34453e-08
2.08621e-12
3.33895e-08
-1.94998e-12
2.03276e-12
3.34293e-08
1.76162e-12
3.3446e-08
3.34517e-08
1.29654e-12
-7.11818e-13
3.32267e-08
-1.07955e-12
6.33747e-13
1.32401e-12
-6.41384e-13
3.33204e-08
5.5799e-13
1.28609e-12
-5.42144e-13
3.33679e-08
4.54799e-13
-4.55715e-13
3.33873e-08
3.24669e-13
1.39938e-12
-7.53571e-13
3.3321e-08
-1.32142e-12
1.38959e-12
-7.05694e-13
3.3385e-08
1.33186e-12
-6.38799e-13
3.34159e-08
-5.79823e-13
3.34278e-08
1.45721e-12
-7.44104e-13
3.33692e-08
-1.36672e-12
1.45913e-12
-7.39656e-13
3.34166e-08
1.38795e-12
-7.06827e-13
3.34377e-08
-7.10429e-13
3.34453e-08
1.48146e-12
3.33893e-08
-1.36382e-12
1.5022e-12
3.34292e-08
1.39329e-12
3.3446e-08
3.34518e-08
1.27553e-12
-4.38423e-13
-1.02129e-12
4.20423e-13
1.405e-12
-3.70659e-13
3.48174e-13
1.46913e-12
-2.87873e-13
2.5888e-13
-2.10276e-13
1.57148e-13
1.36122e-12
-4.00389e-13
-1.198e-12
1.4697e-12
-3.58729e-13
1.52744e-12
-3.03732e-13
-2.52356e-13
1.41004e-12
-3.47053e-13
-1.23856e-12
1.52837e-12
-3.37559e-13
1.57857e-12
-3.13857e-13
-2.97983e-13
1.43118e-12
-1.25202e-12
1.55842e-12
1.59546e-12
-4.70626e-09
-5.42178e-09
4.14614e-08
6.29737e-10
-5.41764e-09
-2.83065e-09
3.22218e-08
-4.93567e-10
-5.40195e-09
-1.67075e-09
2.63484e-08
-7.03174e-10
1.4565e-09
1.46769e-08
1.08906e-09
1.04933e-08
1.68703e-09
2.29463e-08
-2.10887e-10
-2.32562e-09
4.58323e-08
1.393e-09
-3.36258e-09
3.16103e-08
-4.3665e-09
3.78351e-08
3.82757e-09
-2.2996e-09
4.60288e-08
-2.84646e-09
-2.74856e-09
4.81105e-08
2.67105e-11
1.36603e-09
2.89071e-08
3.17857e-09
2.28643e-08
3.59164e-09
3.73096e-08
4.49377e-09
3.32036e-08
2.67667e-09
4.53429e-08
4.10093e-08
-7.61237e-09
8.79122e-10
4.97258e-08
-1.86268e-09
-6.09606e-09
-7.21689e-11
3.1006e-08
-2.28407e-10
1.15454e-09
1.14311e-11
1.64813e-08
2.6051e-09
-1.63349e-10
1.46824e-08
1.46041e-09
-9.71612e-09
-3.0596e-09
3.66451e-08
-6.01251e-09
-4.16746e-09
4.62239e-08
1.24914e-09
-3.28772e-10
2.46889e-08
-2.67401e-09
4.48073e-08
-6.4884e-09
-7.38579e-10
4.9564e-08
1.44259e-09
9.4124e-10
3.50708e-08
-1.8517e-09
-3.12784e-09
3.50005e-08
3.75323e-10
1.873e-08
-3.30518e-09
3.91841e-08
-6.27637e-09
3.14059e-08
3.59947e-09
2.82214e-08
4.3888e-08
2.67649e-10
2.51178e-09
4.50707e-08
2.01962e-09
1.98019e-09
3.25774e-09
2.56219e-08
4.13853e-10
1.85323e-09
1.14401e-09
1.9931e-08
-4.46672e-09
-1.08944e-10
2.12244e-08
-2.27534e-09
2.70812e-09
3.0184e-09
3.37604e-08
-1.40964e-09
2.32171e-09
5.12777e-08
2.21529e-09
2.89194e-09
1.9316e-08
-8.51402e-10
4.26243e-08
6.50397e-10
2.11196e-09
4.92669e-08
-1.10972e-09
-3.62696e-09
4.27796e-08
-3.69515e-09
-4.15649e-09
4.46343e-08
-1.50011e-09
1.89695e-08
-7.54794e-09
5.24133e-08
-2.38657e-10
1.4593e-08
9.45434e-10
1.99786e-08
4.18393e-08
-3.86049e-09
-1.72266e-09
5.02766e-08
4.62646e-10
3.80769e-09
9.8454e-10
1.66589e-08
3.10254e-10
-1.12708e-09
1.42742e-11
2.82848e-08
-3.43339e-09
1.07058e-09
9.19251e-09
3.78753e-09
9.69375e-09
4.22339e-09
1.84647e-08
1.74228e-09
4.93001e-09
5.52837e-08
-1.21503e-09
3.21547e-09
1.90721e-08
5.36818e-09
3.4079e-08
-6.80858e-09
-7.66656e-10
6.12319e-08
2.27183e-09
2.16315e-09
3.6466e-08
2.12484e-10
2.32234e-09
4.75868e-08
-3.14422e-09
3.00532e-08
7.3677e-10
5.39923e-08
1.79333e-10
2.40911e-08
-5.66658e-09
3.32108e-08
3.51436e-08
6.81481e-10
4.07306e-09
4.67982e-08
-1.45991e-09
5.46067e-09
-8.38593e-10
1.20456e-08
6.72697e-10
6.06544e-09
-1.17808e-10
2.89248e-08
-1.12692e-09
-2.0211e-09
2.35309e-08
-3.0185e-09
-6.92425e-09
-2.05343e-10
2.97803e-08
7.10055e-09
3.20028e-09
3.722e-08
-2.38072e-10
-3.88885e-10
2.66818e-08
1.7427e-09
3.35897e-08
2.59249e-09
1.6364e-09
5.683e-08
-1.92929e-09
2.76294e-09
4.14251e-08
2.25348e-09
6.83814e-09
3.6177e-08
1.98549e-09
3.11824e-08
5.80838e-09
4.78107e-08
3.43193e-10
3.1857e-08
-2.89929e-09
4.64394e-08
3.90295e-08
5.42587e-09
8.57367e-10
4.24526e-08
-1.8774e-09
1.57234e-10
-9.91502e-11
1.95707e-08
-2.1573e-09
-7.18919e-10
1.6397e-09
3.02125e-08
-2.05127e-09
2.24932e-09
2.43215e-08
-2.20624e-09
6.41464e-09
2.1547e-09
2.22274e-08
3.28859e-09
2.66456e-09
3.75824e-08
-1.78322e-09
-4.30887e-10
3.38242e-08
-2.99295e-10
3.70577e-08
5.48443e-09
-2.55027e-09
5.6434e-08
-2.25035e-09
-1.8318e-09
5.36563e-08
-3.12291e-10
1.18272e-09
3.26253e-08
4.27373e-11
3.27262e-08
7.70263e-09
3.52144e-08
2.27809e-09
3.56637e-08
-4.12525e-09
5.42909e-08
3.74075e-08
2.12698e-09
2.39563e-10
3.9652e-08
-1.99675e-10
-2.8923e-09
-3.56818e-11
2.59604e-08
-1.33463e-09
-1.72606e-09
8.77046e-10
2.86695e-08
-5.0018e-10
6.53091e-10
2.40379e-08
-2.04528e-09
-3.64481e-09
-1.46232e-09
2.42481e-08
-1.34085e-09
1.30202e-11
3.52298e-08
-3.16527e-09
-8.49566e-10
3.73751e-08
1.51185e-10
3.59489e-08
1.39063e-09
1.18986e-09
5.27289e-08
3.01105e-09
-2.38533e-09
5.44342e-08
2.36061e-09
-2.19177e-09
3.46179e-08
7.7663e-10
3.49244e-08
1.22492e-09
3.66049e-08
-1.91682e-09
3.94625e-08
-8.35666e-10
5.00323e-08
3.84023e-08
-2.79134e-10
-2.90914e-09
3.98105e-08
3.02987e-09
-1.96053e-09
-4.27045e-09
2.86742e-08
3.23821e-09
1.16498e-09
-3.96767e-09
2.57536e-08
3.75834e-09
-4.26656e-09
2.187e-08
3.20257e-09
-5.73404e-09
-4.36878e-09
3.1442e-08
-3.35041e-09
-5.94641e-09
3.45224e-08
5.26725e-10
-4.0746e-09
3.36047e-08
-2.48031e-09
3.03967e-08
-7.8106e-10
-1.12543e-09
5.02669e-08
5.29426e-09
-2.07928e-09
4.44922e-08
3.91936e-09
-3.79965e-09
3.57179e-08
-1.42196e-09
3.27898e-08
-4.17752e-09
4.18021e-08
-3.6217e-09
3.98547e-08
3.31657e-09
3.81727e-08
3.60523e-08
3.69839e-09
1.34749e-09
3.39272e-08
8.37574e-10
1.5794e-09
5.22179e-10
2.91101e-08
1.16108e-09
9.99253e-10
3.27878e-10
2.48554e-08
1.15074e-09
-6.21558e-11
2.04879e-08
8.39028e-10
-3.09522e-09
-7.62769e-10
3.66478e-08
-3.0301e-09
-8.57487e-10
3.58373e-08
-1.78772e-09
-3.13262e-11
3.27212e-08
5.46878e-11
2.84717e-08
1.86197e-09
-9.15993e-10
4.85585e-08
2.03871e-09
-1.09644e-09
4.45547e-08
3.41812e-10
-4.33297e-10
3.78169e-08
-8.66615e-11
3.29281e-08
-7.67753e-10
4.52434e-08
-1.30807e-09
4.3056e-08
-1.06094e-09
3.90968e-08
3.50337e-08
3.37077e-10
-5.52962e-10
3.3288e-08
8.5527e-10
5.25652e-10
-7.33372e-10
2.86735e-08
9.81632e-10
6.21512e-10
-8.05491e-10
2.46045e-08
9.60837e-10
-8.24564e-10
2.04629e-08
8.1817e-10
-1.65345e-09
-1.21712e-09
3.89658e-08
-8.52696e-10
-1.28639e-09
3.55898e-08
5.91992e-11
-9.21084e-10
3.19249e-08
-6.26319e-10
2.77615e-08
5.48537e-10
-2.89508e-10
4.70826e-08
1.69103e-09
-3.38093e-10
4.24643e-08
1.35254e-09
-9.44887e-11
3.73289e-08
6.23012e-12
3.25899e-08
-7.53183e-10
4.67542e-08
-7.03802e-11
4.30482e-08
4.17202e-10
3.88458e-08
3.45988e-08
7.05746e-10
8.65354e-11
3.21695e-08
3.26436e-10
6.3614e-10
4.59505e-11
2.83157e-08
3.81664e-10
6.14184e-10
2.79792e-11
2.42254e-08
3.73306e-10
9.13815e-12
2.00693e-08
3.04602e-10
-1.17471e-10
-1.87062e-11
3.91888e-08
-9.7384e-11
-2.84589e-11
3.56445e-08
1.39681e-10
4.79951e-11
3.16679e-08
1.07192e-10
2.74259e-08
7.024e-10
3.13067e-10
4.60486e-08
9.47593e-10
2.99168e-10
4.18917e-08
7.67299e-10
3.5411e-10
3.72032e-08
3.32285e-10
3.25286e-08
4.62904e-11
4.73291e-08
1.40701e-10
4.35541e-08
2.09929e-10
3.92454e-08
3.4778e-08
1.37086e-10
-7.11121e-11
3.19194e-08
1.8441e-10
2.66979e-10
-6.83218e-11
2.80555e-08
1.98988e-10
2.91143e-10
-6.93934e-11
2.40773e-08
1.93534e-10
-5.92729e-11
2.00025e-08
1.57084e-10
-1.11265e-10
-7.26118e-11
3.93018e-08
1.50658e-11
-7.50727e-11
3.55252e-08
1.40948e-10
-4.08472e-11
3.15137e-08
-1.06571e-11
2.73212e-08
2.60416e-10
2.11635e-10
4.55041e-08
4.83456e-10
2.0088e-10
4.13929e-08
4.67392e-10
1.98296e-10
3.69802e-08
1.73327e-10
3.2453e-08
-4.48452e-11
4.76107e-08
7.97449e-11
4.36627e-08
1.72354e-10
3.93569e-08
3.48685e-08
1.31242e-10
-1.03413e-11
3.17075e-08
9.13073e-11
1.77927e-10
-4.19798e-12
2.79191e-08
9.43525e-11
1.86483e-10
-3.84416e-12
2.39804e-08
9.24503e-11
-1.20394e-12
1.99402e-08
6.78857e-11
1.03163e-11
-1.82172e-12
3.92831e-08
6.0391e-11
-5.46797e-12
3.54767e-08
1.13342e-10
2.47237e-12
3.14548e-08
1.87173e-11
2.72775e-08
1.67108e-10
1.4544e-10
4.51898e-08
2.62633e-10
1.36595e-10
4.11555e-08
2.6224e-10
1.2462e-10
3.68587e-08
1.06258e-10
3.24138e-08
6.40241e-12
4.77396e-08
6.66287e-11
4.3735e-08
1.12707e-10
3.94292e-08
3.49336e-08
5.67419e-11
-1.21798e-11
3.16147e-08
4.85694e-11
8.86922e-11
-5.3974e-12
2.78478e-08
4.52207e-11
9.53108e-11
-4.31943e-12
2.39334e-08
4.50037e-11
-2.4052e-12
1.99131e-08
3.31048e-11
1.36516e-11
-5.02746e-12
3.92624e-08
4.35525e-11
-5.32063e-12
3.5447e-08
6.96584e-11
-2.25723e-12
3.14271e-08
3.57592e-12
2.72593e-08
8.83415e-11
7.29547e-11
4.50235e-08
1.36744e-10
6.91091e-11
4.10327e-08
1.41307e-10
5.92055e-11
3.67928e-08
4.89378e-11
3.23918e-08
1.1899e-11
4.77912e-08
4.48749e-11
4.3767e-08
6.92461e-11
3.94611e-08
3.49672e-08
3.21595e-11
-8.04892e-12
3.15657e-08
2.51416e-11
4.78976e-11
-4.37085e-12
2.78117e-08
2.52618e-11
5.02857e-11
-4.28571e-12
2.39095e-08
2.60972e-11
-4.8907e-12
1.98985e-08
1.83194e-11
1.30533e-11
-4.99443e-12
3.92464e-08
3.09815e-11
-5.32986e-12
3.54302e-08
4.54513e-11
-4.50777e-12
3.14134e-08
-2.34796e-12
2.72516e-08
4.71295e-11
3.30887e-11
4.49382e-08
7.22633e-11
3.13883e-11
4.09708e-08
7.61668e-11
2.58682e-11
3.67586e-08
1.90002e-11
3.23812e-08
1.00725e-11
4.78107e-08
2.85628e-11
4.378e-08
4.2543e-11
3.94755e-08
3.49848e-08
1.67998e-11
-7.18689e-12
3.15411e-08
1.53395e-11
2.54989e-11
-4.832e-12
2.77934e-08
1.49068e-11
2.82048e-11
-5.03178e-12
2.38974e-08
1.46666e-11
-5.15353e-12
1.98919e-08
1.06085e-11
9.00878e-12
-5.49629e-12
3.92358e-08
1.9635e-11
-5.55971e-12
3.54206e-08
2.76922e-11
-5.29082e-12
3.14061e-08
-4.05605e-12
2.72481e-08
2.49519e-11
1.34228e-11
4.48943e-08
3.84504e-11
1.22966e-11
4.09394e-08
4.1609e-11
9.10216e-12
3.67412e-08
6.44222e-12
3.23756e-08
7.39055e-12
4.78171e-08
1.78243e-11
4.37847e-08
2.57218e-11
3.94815e-08
3.49937e-08
8.85865e-12
-5.81795e-12
3.15288e-08
9.45377e-12
1.38527e-11
-4.3957e-12
2.77843e-08
8.90972e-12
1.58233e-11
-4.60191e-12
2.38915e-08
8.78919e-12
-4.53858e-12
1.98887e-08
6.53438e-12
5.96192e-12
-4.79151e-12
3.92288e-08
1.22035e-11
-4.60084e-12
3.54148e-08
1.68026e-11
-4.4992e-12
3.1402e-08
-4.06542e-12
2.72461e-08
1.35816e-11
4.40752e-12
4.48714e-08
2.06123e-11
4.48266e-12
4.09232e-08
2.27825e-11
2.60766e-12
3.67321e-08
4.06826e-13
3.23729e-08
4.99397e-12
4.78185e-08
1.13416e-11
4.37862e-08
1.61857e-11
3.9484e-08
3.49977e-08
4.81269e-12
-4.60288e-12
3.15227e-08
6.1208e-12
7.72654e-12
-3.69044e-12
2.77798e-08
5.67441e-12
9.09575e-12
-3.87271e-12
2.38886e-08
5.67408e-12
-3.77092e-12
1.98871e-08
4.28758e-12
3.79176e-12
-3.88639e-12
3.92243e-08
7.47314e-12
-3.56307e-12
3.54112e-08
1.02425e-11
-3.67639e-12
3.13995e-08
-3.69565e-12
2.7245e-08
6.98144e-12
9.0447e-13
4.48595e-08
1.10508e-11
6.91712e-13
4.09148e-08
1.27614e-11
-6.29279e-13
3.67274e-08
-1.98116e-12
3.23715e-08
3.54858e-12
4.7818e-08
7.4225e-12
4.37859e-08
1.02399e-11
3.94843e-08
3.49992e-08
2.71563e-12
-3.56474e-12
3.15195e-08
4.14507e-12
4.46867e-12
-2.97825e-12
2.77775e-08
3.81378e-12
5.40779e-12
-3.13191e-12
2.38871e-08
3.87192e-12
-3.04914e-12
1.98863e-08
2.96027e-12
2.37538e-12
-3.08897e-12
3.92214e-08
4.58542e-12
-2.81684e-12
3.5409e-08
6.33247e-12
-3.02499e-12
3.1398e-08
-3.19033e-12
2.72443e-08
3.76126e-12
-8.05322e-13
4.48534e-08
6.11781e-12
-9.40127e-13
4.09105e-08
7.3915e-12
-1.77598e-12
3.6725e-08
-2.58572e-12
3.23707e-08
2.42131e-12
4.78167e-08
4.8229e-12
4.3785e-08
6.48113e-12
3.94839e-08
3.49996e-08
1.60621e-12
-2.72344e-12
3.15178e-08
2.8848e-12
2.68498e-12
-2.35395e-12
2.77763e-08
2.65315e-12
3.31691e-12
-2.47702e-12
2.38863e-08
2.73028e-12
-2.43059e-12
1.98858e-08
2.11272e-12
1.48763e-12
-2.44365e-12
3.92197e-08
2.85488e-12
-2.25751e-12
3.54077e-08
3.98315e-12
-2.46768e-12
3.13972e-08
-2.65648e-12
2.72439e-08
2.08333e-12
-1.35834e-12
4.48502e-08
3.52125e-12
-1.44094e-12
4.09083e-08
4.44931e-12
-1.97004e-12
3.67237e-08
-2.46467e-12
3.23703e-08
1.61188e-12
4.78154e-08
3.11841e-12
4.37841e-08
4.14561e-12
3.94834e-08
3.49996e-08
1.00493e-12
-2.02696e-12
3.15169e-08
2.01084e-12
1.67553e-12
-1.80305e-12
2.77756e-08
1.86117e-12
2.09602e-12
-1.89716e-12
2.38858e-08
1.93451e-12
-1.87872e-12
1.98856e-08
1.51853e-12
9.5262e-13
-1.87977e-12
3.92185e-08
1.82108e-12
-1.76635e-12
3.54068e-08
2.55663e-12
-1.95013e-12
3.13966e-08
-2.10554e-12
2.72436e-08
1.21032e-12
-1.34042e-12
4.48484e-08
2.12444e-12
-1.39669e-12
4.09071e-08
2.78858e-12
-1.73464e-12
3.6723e-08
-2.02674e-12
3.237e-08
1.07254e-12
4.78144e-08
2.03134e-12
4.37834e-08
2.69453e-12
3.9483e-08
3.49995e-08
6.57617e-13
-1.42019e-12
3.15163e-08
1.3523e-12
1.07875e-12
-1.2928e-12
2.77752e-08
1.2648e-12
1.36183e-12
-1.35704e-12
2.38855e-08
1.32508e-12
-1.35398e-12
1.98854e-08
1.05709e-12
6.37972e-13
-1.33696e-12
3.92178e-08
1.19945e-12
-1.27608e-12
3.54063e-08
1.66869e-12
-1.41359e-12
3.13962e-08
-1.52145e-12
2.72434e-08
7.56457e-13
-1.02956e-12
4.48475e-08
1.35106e-12
-1.07188e-12
4.09064e-08
1.80116e-12
-1.27545e-12
3.67225e-08
-1.46171e-12
3.23698e-08
7.24751e-13
4.78137e-08
1.34334e-12
4.37828e-08
1.77667e-12
3.94826e-08
3.49993e-08
4.71144e-13
-8.90262e-13
3.15158e-08
8.48654e-13
7.54027e-13
-8.34448e-13
2.77748e-08
8.10023e-13
9.61995e-13
-8.78015e-13
2.38852e-08
8.56384e-13
-8.8683e-13
1.98851e-08
7.0671e-13
4.77081e-13
-8.06939e-13
3.92172e-08
8.48954e-13
-7.86439e-13
3.54058e-08
1.15448e-12
-8.77426e-13
3.13958e-08
-9.45212e-13
2.72431e-08
5.3822e-13
-5.78698e-13
4.48468e-08
9.31999e-13
-6.17154e-13
4.09059e-08
1.23729e-12
-7.44693e-13
3.67221e-08
-8.49795e-13
3.23695e-08
5.24286e-13
4.7813e-08
9.44439e-13
4.37823e-08
1.23767e-12
3.94822e-08
3.4999e-08
3.61624e-13
-6.07142e-13
5.9795e-13
6.47742e-13
-6.16153e-13
6.06186e-13
8.47293e-13
-6.5673e-13
6.60301e-13
-6.87233e-13
5.9593e-13
4.11756e-13
-5.01138e-13
7.53181e-13
-5.28313e-13
1.01739e-12
-5.91448e-13
-6.39828e-13
4.48972e-13
-2.80148e-13
8.30508e-13
-3.32314e-13
1.09796e-12
-4.17902e-13
-4.82464e-13
4.46295e-13
8.46089e-13
1.11907e-12
-2.3762e-09
-1.15102e-08
4.61063e-08
-7.58027e-10
3.91189e-09
3.44795e-08
-2.37837e-10
3.92099e-09
4.13387e-08
3.22454e-09
4.1333e-08
1.96737e-09
-3.47715e-09
1.76008e-08
-1.43288e-09
-2.0872e-09
4.51685e-08
1.02905e-10
8.72337e-10
4.25716e-08
3.40967e-10
4.84409e-08
2.20195e-09
-6.19121e-10
1.80152e-08
6.06479e-10
-4.69329e-09
3.5396e-08
5.49785e-10
-4.98248e-09
4.27847e-08
-4.51077e-09
4.47919e-08
3.25352e-10
2.51639e-08
9.38761e-10
2.08297e-08
6.94397e-10
2.63797e-08
2.73544e-08
3.37182e-09
-5.89983e-10
4.1761e-08
-2.12957e-09
6.21134e-09
3.45839e-08
2.63107e-09
4.22262e-09
3.25294e-08
-5.09226e-09
6.10357e-08
1.94518e-09
4.23783e-09
1.05994e-08
-2.32185e-09
2.55824e-09
5.30886e-08
-8.38292e-10
-8.51932e-10
4.61626e-08
-6.95936e-09
5.60814e-08
1.14642e-09
-1.10082e-08
3.472e-08
-6.02895e-09
-5.99129e-09
5.11209e-08
-4.72741e-09
-2.10269e-09
4.27339e-08
1.00166e-08
2.41114e-08
3.71009e-09
1.62774e-08
-9.5363e-10
2.59352e-08
3.67321e-09
2.47165e-08
5.74995e-08
1.76447e-09
-2.6037e-09
4.45628e-08
6.86728e-10
1.07196e-08
2.55447e-08
1.74639e-09
-3.5988e-09
3.47119e-08
-8.42582e-09
7.7506e-08
7.70257e-09
-1.30548e-08
1.37617e-08
-5.99952e-09
2.05789e-08
5.69314e-08
-7.63406e-10
-1.90849e-09
3.92362e-08
2.64429e-09
4.64963e-08
-2.77313e-08
3.0383e-09
4.18915e-08
-1.17765e-08
1.02865e-08
4.54585e-08
1.88521e-09
-1.03044e-09
2.81941e-08
-2.89569e-09
3.22372e-08
-1.43822e-09
1.66366e-08
5.20623e-09
2.54226e-08
2.53693e-09
3.24024e-08
3.90637e-08
4.18691e-10
-7.00613e-09
5.13027e-08
1.11481e-09
-7.01478e-09
3.15897e-08
3.87415e-09
-2.36552e-09
3.48382e-08
-6.68721e-09
8.53983e-08
2.74169e-10
-6.64542e-09
1.34371e-08
2.17324e-09
-7.34839e-09
5.5366e-08
2.1247e-09
-1.69386e-09
3.8613e-08
-1.60694e-09
4.1318e-08
1.14378e-09
7.30307e-09
2.33659e-08
2.87177e-09
1.91692e-09
3.44652e-08
2.73175e-09
6.94107e-10
2.59461e-08
-3.9765e-09
3.41222e-08
-9.08117e-10
2.51549e-08
1.13852e-09
2.17556e-08
-7.59564e-10
3.5065e-08
3.32621e-08
2.78541e-09
7.14681e-09
3.96098e-08
4.9921e-10
-4.1709e-09
3.77666e-08
1.22338e-09
-2.81386e-09
3.68047e-08
-1.99929e-09
7.99369e-08
-4.54181e-10
-1.36926e-09
2.30801e-08
8.59888e-10
1.08524e-09
4.87958e-08
1.6025e-09
1.34904e-09
3.37075e-08
1.67634e-09
3.24016e-08
5.74144e-11
-1.56442e-09
2.23767e-08
1.02833e-09
4.11639e-09
3.04632e-08
1.43752e-09
2.41152e-09
2.44745e-08
1.90882e-09
3.61393e-08
3.03777e-09
1.63673e-08
1.42987e-10
3.12442e-08
2.57021e-09
3.33292e-08
4.43214e-08
1.34932e-09
1.12714e-08
2.49577e-08
2.60963e-09
-4.81613e-09
4.10566e-08
-1.9844e-09
-5.46981e-10
4.1935e-08
9.88838e-09
4.6564e-08
-4.01293e-09
8.3376e-09