/*--------------------------------*- C++ -*----------------------------------*\
| =========                 |                                                 |
| \\      /  F ield         | OpenFOAM: The Open Source CFD Toolbox           |
|  \\    /   O peration     | Version:  2506                                  |
|   \\  /    A nd           | Website:  www.openfoam.com                      |
|    \\/     M anipulation  |                                                 |
\*---------------------------------------------------------------------------*/
FoamFile
{
    version     2.0;
    format      ascii;
    arch        "LSB;label=32;scalar=64";
    class       volVectorField;
    location    "0.05";
    object      stored_U;
}
// * * * * * * * * * * * * * * * * * * * * * * * * * * * * * * * * * * * * * //

dimensions      [0 1 -1 0 0 0 0];

internalField   nonuniform List<vector> 
1152
(
(0.000271414 -0.000741647 0.00956945)
(0.00232691 0.000897029 0.0170881)
(-0.00152533 -0.000877925 0.0183259)
(0.000430325 -0.000114198 0.00446588)
(0.000568113 0.000182787 0.0134857)
(0.000252559 0.000505104 0.0185943)
(-0.00078894 0.00069021 0.0125592)
(0.00154889 0.00153258 0.0114741)
(0.00271904 0.000532044 0.0158061)
(0.00239304 0.00136858 0.0110821)
(0.00109189 0.00321594 0.016327)
(0.00126368 0.00344807 0.0197177)
(0.00180437 -3.48512e-05 0.012323)
(0.00485346 -0.00447058 0.0330727)
(0.00269241 -0.0001249 0.0160434)
(0.0022758 0.00674928 0.0137784)
(-0.000619983 -0.00145869 0.0180902)
(-0.000928283 -0.0031116 0.0256151)
(0.00129218 0.00111015 0.0347096)
(0.000147173 8.67521e-05 0.0044381)
(-0.00118349 -0.00116678 0.0232998)
(0.00266399 -0.000537556 0.0279211)
(0.00027525 7.79139e-05 0.00393621)
(-0.00151041 0.000899068 0.0190249)
(9.68546e-05 -0.000109189 0.0153973)
(0.000635644 -0.000697596 0.0313963)
(0.0033149 -0.00418913 0.0337315)
(-4.66078e-05 5.06903e-05 0.00343467)
(-0.000643944 0.00102481 0.0250718)
(-8.17097e-05 -4.11566e-05 0.0102066)
(0.001658 0.00071699 0.0192317)
(0.00234427 0.00787066 0.0149106)
(-0.00262421 0.00165902 0.0137428)
(-0.00314488 0.000116091 0.0199411)
(0.000965016 0.000118732 0.00740745)
(-0.000157577 8.12139e-05 0.00104509)
(-0.000948309 -0.00039534 0.00800892)
(-0.0014436 -0.000660194 0.0142504)
(0.00490686 0.00220744 0.0451852)
(0.00128686 -0.0013069 0.0230903)
(-0.00261355 -0.00269093 0.0241465)
(-0.00101105 0.000619848 0.0216565)
(0.000805532 -0.000364227 0.00807826)
(0.00526651 -0.00219986 0.0485554)
(0.000146404 0.000131939 0.0129611)
(-0.000583993 0.000386776 0.0526254)
(-0.000226285 -0.00109521 0.00888694)
(0.000263865 -0.00289113 0.00733011)
(0.00396687 0.00246694 0.0192959)
(0.00130052 0.00383423 0.042722)
(-0.000683686 -0.000233203 0.0146985)
(-0.000899439 0.00108643 0.0336055)
(0.00135787 0.00395844 0.0463659)
(-0.000966054 0.000574814 0.0193864)
(-0.000800917 -0.000213419 0.0220714)
(0.00322782 0.00419291 0.0269266)
(-0.0009086 0.000259678 0.0104198)
(-0.00127858 -0.00165314 0.0221102)
(0.00149986 -0.000410758 0.0188808)
(-7.53899e-05 6.7146e-05 0.00129638)
(-0.0015429 -0.00121882 0.0162945)
(-0.00382406 -8.1672e-05 0.0483082)
(0.00044988 -0.00102717 0.0245743)
(0.00530115 -0.0126287 0.0470872)
(-0.000326022 0.000454288 0.017894)
(0.00101837 -0.000159317 0.0160015)
(-0.000140551 -0.000527631 0.0128636)
(-0.000801547 -0.00169551 0.0241837)
(-0.000257193 0.00175266 0.0188625)
(-0.000476167 0.000809571 0.030725)
(-0.00126904 -0.00416914 0.0365637)
(0.000954196 -0.00130755 0.0138501)
(-0.000750216 0.00159503 0.0228128)
(-0.00399368 -0.00220854 0.0312631)
(-0.00105392 -0.000420585 0.00886474)
(-0.00018204 -0.0122048 0.0621913)
(-0.00494173 0.000267622 0.0360237)
(-0.0013478 -0.000444539 0.0108551)
(-0.00159851 -0.000328515 0.0117687)
(-0.000229536 -5.60424e-05 0.00191129)
(-0.00109225 -0.000155433 0.0112467)
(-0.00239926 -0.00061209 0.0238317)
(-0.00160879 -0.00172667 0.021207)
(0.00170441 -0.00244849 0.0206334)
(-0.00277724 -0.000328666 0.0214213)
(-0.00328363 -0.000500658 0.0183363)
(-0.0011126 -0.000112442 0.0092315)
(0.000587198 -0.000788501 0.0265578)
(-0.00223943 -0.000343997 0.0171926)
(-0.00222677 -0.000819423 0.0214529)
(-0.00076235 -0.000289182 0.00979495)
(-0.000501016 0.000484646 0.0170605)
(-0.0021922 -0.000710966 0.0133659)
(-0.00382771 -0.000246561 0.0221718)
(-0.000807975 -0.000855196 0.0202696)
(-0.0014224 -0.000184859 0.0167566)
(-0.000425705 5.46923e-05 0.0110634)
(-0.000303369 0.000295704 0.0170188)
(-4.32534e-05 5.06035e-05 0.0137301)
(-0.000215787 9.31242e-05 0.0134258)
(-0.000465974 -0.000207297 0.020098)
(-0.00020435 0.000256268 0.0168311)
(8.88021e-05 9.11721e-06 0.0136412)
(-0.000343751 -0.000259316 0.00406199)
(-0.000335544 -1.16478e-05 0.0161045)
(-0.000143142 0.000395924 0.0184727)
(-0.000446124 0.000123824 0.00965207)
(-1.98079e-05 -0.000509171 0.0385501)
(5.51156e-05 0.000329499 0.0229832)
(9.51599e-05 0.000270428 0.00996243)
(0.0001804 -0.000448226 0.00471316)
(-0.000162964 0.000502292 0.0142966)
(0.000923783 -0.000854586 0.021178)
(0.00052366 -0.000271277 0.0265885)
(0.000190916 -3.33847e-05 0.0223583)
(-0.0004445 1.38349e-05 0.0213796)
(0.00117766 -0.000693559 0.0238616)
(0.00107984 -0.000277763 0.0243697)
(0.000406026 -8.8834e-06 0.0191931)
(-0.000201125 -0.000637945 0.0160427)
(0.0010581 -0.000134514 0.0235811)
(0.00102128 0.000195883 0.0245725)
(-0.000290101 0.000253599 0.0178785)
(0.00016264 0.00038981 0.0369109)
(0.0012602 0.000231365 0.0258449)
(0.0013611 0.000374149 0.0176017)
(0.000700297 0.000207797 0.0108301)
(0.000240816 0.00115897 0.0231261)
(0.000118543 -2.29661e-05 0.00595415)
(0.000210838 0.000188064 0.00638951)
(0.000244292 0.000426584 0.00546094)
(-0.000406515 0.000378456 0.00524938)
(8.5934e-05 -0.000141106 0.00647896)
(0.000656359 0.000245193 0.00605469)
(0.000382559 0.000463562 0.00482758)
(-0.000573968 -0.00082172 0.00492668)
(1.88583e-06 6.6281e-05 0.00621903)
(0.000678168 0.000705609 0.00579243)
(-0.000879635 0.000777474 0.00481331)
(-0.000444509 -0.00013026 0.00811512)
(0.000475899 0.00016943 0.00633499)
(0.00127999 0.000599489 0.00459176)
(-0.000488592 0.000175483 0.00379648)
(-0.000782522 0.000922704 0.00634222)
(1.38695e-05 -0.000267791 0.0129064)
(7.52902e-05 -3.11451e-05 0.0131693)
(1.27922e-06 0.000125963 0.0127343)
(-0.00023155 0.000127811 0.0128194)
(0.000104456 -0.000137352 0.0129318)
(0.000283288 7.52156e-05 0.012913)
(4.76143e-05 0.000144039 0.0123612)
(-0.00028408 -0.000279592 0.0125533)
(0.000157797 8.70023e-05 0.0128162)
(0.000290425 0.000298563 0.0127987)
(-0.00037949 0.000284583 0.0123278)
(-0.00031308 -5.783e-05 0.0137597)
(0.000272575 0.000144301 0.0126806)
(0.000443945 0.000308393 0.0121502)
(-0.00032453 0.000189862 0.0117318)
(-0.000502489 0.000389172 0.012995)
(0.000107545 2.95492e-05 0.0106884)
(7.82805e-05 6.7695e-05 0.0107676)
(-1.64104e-05 8.94213e-05 0.0106322)
(-0.000108687 8.49993e-05 0.0107157)
(6.14462e-05 5.99182e-05 0.010747)
(0.000100326 0.000102787 0.0107117)
(-2.47446e-05 0.000100333 0.0105258)
(-0.000141263 -3.45473e-05 0.0106421)
(8.32379e-05 0.000120987 0.0107263)
(8.94027e-05 0.000165315 0.0106796)
(-0.000163656 0.000140082 0.0105323)
(-0.000181561 1.81126e-05 0.0109888)
(7.62117e-05 9.29186e-05 0.0106173)
(0.000106223 0.000147395 0.0104472)
(-0.000178196 0.000118253 0.0103222)
(-0.000262212 0.000160741 0.0107592)
(1.9238e-05 -5.69732e-06 0.0111208)
(5.76318e-06 2.77125e-05 0.0111345)
(-3.9665e-05 3.99727e-05 0.0110904)
(-7.05254e-05 4.96835e-05 0.0111346)
(1.33528e-05 2.85487e-05 0.011113)
(1.52808e-05 5.40117e-05 0.011106)
(-4.22174e-05 5.42694e-05 0.0110501)
(-8.52813e-05 1.5841e-05 0.0111063)
(3.90504e-05 6.75403e-05 0.0110965)
(1.94623e-05 8.1589e-05 0.0110836)
(-8.1999e-05 7.11541e-05 0.0110439)
(-0.000107358 2.9873e-05 0.0111922)
(2.32534e-05 5.50085e-05 0.0110313)
(1.53968e-05 7.43099e-05 0.0109957)
(-9.63016e-05 6.84674e-05 0.0109662)
(-0.000138274 7.61274e-05 0.0111208)
(1.156e-05 1.26091e-05 0.0110506)
(-3.97078e-06 2.21795e-05 0.0110805)
(-3.16905e-05 2.30532e-05 0.0110813)
(-4.775e-05 2.94501e-05 0.0111108)
(3.53236e-06 2.69058e-05 0.011069)
(-5.47251e-06 3.4952e-05 0.0110827)
(-3.48385e-05 3.24153e-05 0.0110753)
(-5.55786e-05 2.16974e-05 0.0111056)
(1.58801e-05 4.24532e-05 0.0110755)
(-3.12062e-06 4.50324e-05 0.0110783)
(-4.62081e-05 3.9558e-05 0.0110729)
(-6.58371e-05 2.5798e-05 0.0111272)
(2.65772e-06 3.28212e-05 0.0110466)
(-9.24253e-06 3.91014e-05 0.0110455)
(-5.44382e-05 3.82463e-05 0.0110436)
(-7.85645e-05 3.90316e-05 0.0111029)
(-1.32243e-06 9.12277e-06 0.0110524)
(-1.18265e-05 1.33323e-05 0.0110812)
(-2.6631e-05 1.30906e-05 0.011093)
(-3.52247e-05 1.68492e-05 0.0111116)
(-4.26043e-06 1.67382e-05 0.0110736)
(-1.31943e-05 2.01849e-05 0.011092)
(-2.82894e-05 1.90037e-05 0.0110987)
(-3.9359e-05 1.6248e-05 0.0111156)
(1.40876e-06 2.39937e-05 0.0110839)
(-1.14303e-05 2.43951e-05 0.0110941)
(-3.11271e-05 2.21353e-05 0.0110992)
(-4.35319e-05 1.79023e-05 0.0111213)
(-5.78794e-06 1.87247e-05 0.0110722)
(-1.51345e-05 2.09982e-05 0.0110813)
(-3.49154e-05 2.10735e-05 0.0110873)
(-4.85692e-05 2.11544e-05 0.0111119)
(-5.73851e-06 6.54931e-06 0.0110533)
(-1.29187e-05 8.0501e-06 0.0110846)
(-2.12346e-05 7.81521e-06 0.0111009)
(-2.63929e-05 9.80069e-06 0.0111149)
(-6.97487e-06 1.06522e-05 0.0110792)
(-1.37725e-05 1.20707e-05 0.0111004)
(-2.21214e-05 1.15052e-05 0.0111117)
(-2.85959e-05 1.06979e-05 0.0111233)
(-4.64916e-06 1.36486e-05 0.0110923)
(-1.2815e-05 1.36544e-05 0.0111064)
(-2.28401e-05 1.28188e-05 0.0111148)
(-3.03396e-05 1.153e-05 0.0111265)
(-8.23791e-06 1.08959e-05 0.0110893)
(-1.45393e-05 1.17665e-05 0.0111022)
(-2.42738e-05 1.20112e-05 0.0111104)
(-3.21508e-05 1.21946e-05 0.0111228)
(-6.87126e-06 4.32806e-06 0.0110563)
(-1.16955e-05 4.83732e-06 0.0110885)
(-1.65093e-05 4.7987e-06 0.0111061)
(-1.97311e-05 5.81325e-06 0.0111175)
(-7.40614e-06 6.8983e-06 0.0110846)
(-1.21138e-05 7.45346e-06 0.0111068)
(-1.69947e-05 7.17045e-06 0.0111192)
(-2.09368e-05 6.83957e-06 0.0111281)
(-6.55902e-06 8.03692e-06 0.0110987)
(-1.1725e-05 8.004e-06 0.0111146)
(-1.72329e-05 7.71028e-06 0.0111238)
(-2.17446e-05 7.30633e-06 0.0111317)
(-8.13159e-06 6.46197e-06 0.0111004)
(-1.23685e-05 6.85106e-06 0.0111146)
(-1.76895e-05 7.10386e-06 0.0111228)
(-2.2284e-05 7.36337e-06 0.0111306)
(-6.41502e-06 2.92478e-06 0.0110589)
(-9.68444e-06 3.01674e-06 0.0110914)
(-1.25728e-05 3.0537e-06 0.0111092)
(-1.46224e-05 3.56268e-06 0.0111192)
(-6.69572e-06 4.58871e-06 0.0110886)
(-9.93185e-06 4.76318e-06 0.0111111)
(-1.2895e-05 4.5877e-06 0.0111235)
(-1.53253e-05 4.37122e-06 0.011131)
(-6.47759e-06 4.90147e-06 0.0111032)
(-9.80823e-06 4.89428e-06 0.0111199)
(-1.30221e-05 4.79869e-06 0.011129)
(-1.57206e-05 4.65524e-06 0.0111352)
(-7.13155e-06 3.97863e-06 0.0111073)
(-9.97716e-06 4.19097e-06 0.0111218)
(-1.31231e-05 4.41074e-06 0.0111297)
(-1.58226e-05 4.66339e-06 0.0111354)
(-5.40707e-06 1.99394e-06 0.0110611)
(-7.64245e-06 1.94181e-06 0.0110937)
(-9.4245e-06 1.9955e-06 0.0111113)
(-1.07291e-05 2.25865e-06 0.0111203)
(-5.57919e-06 3.09162e-06 0.0110915)
(-7.80736e-06 3.12254e-06 0.011114)
(-9.65418e-06 3.00538e-06 0.0111261)
(-1.11616e-05 2.84509e-06 0.0111327)
(-5.59348e-06 3.10918e-06 0.0111065)
(-7.78087e-06 3.11113e-06 0.0111234)
(-9.73472e-06 3.08454e-06 0.0111322)
(-1.13656e-05 3.02492e-06 0.0111375)
(-5.87249e-06 2.55748e-06 0.0111118)
(-7.79031e-06 2.68612e-06 0.0111263)
(-9.72938e-06 2.8554e-06 0.0111338)
(-1.13342e-05 3.05818e-06 0.0111384)
(-4.28367e-06 1.3773e-06 0.0110629)
(-5.82076e-06 1.28586e-06 0.0110953)
(-6.94168e-06 1.33272e-06 0.0111126)
(-7.77047e-06 1.48012e-06 0.011121)
(-4.40582e-06 2.11156e-06 0.0110936)
(-5.93984e-06 2.09358e-06 0.011116)
(-7.1064e-06 2.01201e-06 0.0111278)
(-8.04905e-06 1.89727e-06 0.0111338)
(-4.48917e-06 2.04266e-06 0.0111089)
(-5.94441e-06 2.04733e-06 0.0111257)
(-7.15791e-06 2.04556e-06 0.0111343)
(-8.16874e-06 2.02424e-06 0.0111388)
(-4.61888e-06 1.69946e-06 0.0111147)
(-5.90758e-06 1.77972e-06 0.0111291)
(-7.12023e-06 1.89705e-06 0.0111363)
(-8.12105e-06 2.03468e-06 0.0111402)
(-3.23713e-06 9.57506e-07 0.0110642)
(-4.29003e-06 8.66504e-07 0.0110964)
(-5.0003e-06 9.00729e-07 0.0111135)
(-5.52397e-06 9.90777e-07 0.0111214)
(-3.33071e-06 1.45176e-06 0.0110951)
(-4.37909e-06 1.42108e-06 0.0111174)
(-5.11729e-06 1.36199e-06 0.0111289)
(-5.70814e-06 1.28233e-06 0.0111344)
(-3.42041e-06 1.37341e-06 0.0111105)
(-4.39239e-06 1.37684e-06 0.0111273)
(-5.15162e-06 1.38076e-06 0.0111355)
(-5.78961e-06 1.37814e-06 0.0111396)
(-3.48949e-06 1.14884e-06 0.0111167)
(-4.35123e-06 1.19859e-06 0.0111309)
(-5.10874e-06 1.27142e-06 0.0111377)
(-5.76553e-06 1.34725e-06 0.0111412)
(-2.32461e-06 6.6004e-07 0.0110651)
(-3.03306e-06 5.83404e-07 0.0110972)
(-3.47968e-06 6.0438e-07 0.011114)
(-3.80333e-06 6.60181e-07 0.0111217)
(-2.39664e-06 9.88832e-07 0.0110961)
(-3.1004e-06 9.58099e-07 0.0111183)
(-3.56364e-06 9.12944e-07 0.0111295)
(-3.92588e-06 8.56187e-07 0.0111347)
(-2.47346e-06 9.22041e-07 0.0111117)
(-3.11642e-06 9.21038e-07 0.0111283)
(-3.58965e-06 9.22512e-07 0.0111363)
(-3.98463e-06 9.25259e-07 0.0111401)
(-2.5165e-06 7.72216e-07 0.011118)
(-3.08586e-06 8.02428e-07 0.011132)
(-3.55407e-06 8.44522e-07 0.0111386)
(-3.98127e-06 8.78559e-07 0.0111417)
(-1.53556e-06 4.37219e-07 0.0110657)
(-1.98654e-06 3.80577e-07 0.0110977)
(-2.25506e-06 3.91693e-07 0.0111144)
(-2.44304e-06 4.24556e-07 0.0111218)
(-1.58702e-06 6.47436e-07 0.0110968)
(-2.03452e-06 6.22536e-07 0.0111188)
(-2.31344e-06 5.88903e-07 0.01113)
(-2.52091e-06 5.48417e-07 0.0111349)
(-1.6443e-06 5.98701e-07 0.0111125)
(-2.04965e-06 5.94359e-07 0.0111289)
(-2.3342e-06 5.92213e-07 0.0111368)
(-2.56014e-06 5.92641e-07 0.0111403)
(-1.67339e-06 5.04222e-07 0.0111188)
(-2.03173e-06 5.22244e-07 0.0111328)
(-2.31143e-06 5.46308e-07 0.0111392)
(-2.56413e-06 5.60778e-07 0.0111421)
(-8.13943e-07 2.54914e-07 0.0110661)
(-1.05376e-06 2.21789e-07 0.011098)
(-1.18912e-06 2.29559e-07 0.0111146)
(-1.27985e-06 2.497e-07 0.0111218)
(-8.42722e-07 3.76834e-07 0.0110973)
(-1.08028e-06 3.62681e-07 0.0111192)
(-1.22175e-06 3.43484e-07 0.0111302)
(-1.3205e-06 3.20351e-07 0.011135)
(-8.75984e-07 3.51413e-07 0.0111129)
(-1.08927e-06 3.48114e-07 0.0111293)
(-1.23424e-06 3.46084e-07 0.0111371)
(-1.3407e-06 3.45063e-07 0.0111405)
(-8.92714e-07 3.03573e-07 0.0111193)
(-1.07978e-06 3.13451e-07 0.0111332)
(-1.2224e-06 3.26833e-07 0.0111395)
(-1.34325e-06 3.3413e-07 0.0111423)
(-6.30049e-08 3.2487e-08 0.0110662)
(-1.03819e-07 3.10384e-08 0.0110981)
(-1.21667e-07 4.58932e-08 0.0111146)
(-1.36513e-07 6.52124e-08 0.0111219)
(-6.04301e-08 8.2085e-08 0.0110974)
(-1.01801e-07 8.50339e-08 0.0111193)
(-1.22506e-07 8.65525e-08 0.0111303)
(-1.39141e-07 8.74598e-08 0.011135)
(-6.44926e-08 8.47218e-08 0.0111131)
(-9.81014e-08 8.6025e-08 0.0111295)
(-1.2013e-07 8.9008e-08 0.0111372)
(-1.38323e-07 9.33103e-08 0.0111405)
(-6.78592e-08 7.98266e-08 0.0111195)
(-9.29255e-08 8.14783e-08 0.0111334)
(-1.13651e-07 8.59647e-08 0.0111397)
(-1.35407e-07 8.9746e-08 0.0111424)
(0.000880401 -0.00314243 0.0160732)
(-0.00144638 -0.0018393 0.0194954)
(-0.0024889 -0.00121157 0.0216902)
(-0.00180757 -0.000207594 0.0151347)
(0.00202736 -0.00029109 0.0120429)
(0.00348132 -0.000383765 0.0181465)
(0.000956453 -0.00195391 0.0197315)
(9.74655e-05 -0.00167865 0.0259703)
(0.000604798 -0.0003117 0.0147606)
(0.00092382 -0.0019804 0.0235747)
(-4.96493e-05 -0.000887258 0.0166548)
(0.00084098 -0.000148056 0.0122663)
(0.000921636 0.000405614 0.0116547)
(0.00159998 0.000669484 0.0103205)
(0.00231692 -0.000440382 0.0200941)
(0.00137291 0.000574405 0.0202233)
(-0.00207807 0.000320485 0.032959)
(-0.00274642 -0.00154029 0.0228127)
(0.000352905 -0.00153696 0.0165333)
(0.000426782 -5.90465e-05 0.0129216)
(-0.000472663 -0.00092579 0.00895647)
(-0.00397142 -0.00394716 0.0335322)
(-0.000568485 -0.000484116 0.0164044)
(-9.67023e-05 -0.00147391 0.0219009)
(-0.00124074 -0.00213357 0.0259943)
(-0.00036231 -0.000923203 0.0144988)
(0.000137721 -0.000979324 0.0125428)
(-0.000766998 -0.00100719 0.0176826)
(-0.000478674 7.43703e-05 0.0223467)
(-0.00215208 0.00187584 0.0231837)
(-0.000111313 0.000681165 0.0224268)
(0.000995443 0.000753163 0.0230502)
(0.000948279 0.000296189 0.0397113)
(0.00161977 0.00196198 0.0298725)
(0.00212758 0.001779 0.0182124)
(-1.23218e-05 0.00155081 0.0220168)
(0.000217919 0.00213812 0.035452)
(-0.000138147 0.00174877 0.0248403)
(0.000436239 0.000626869 0.0220994)
(0.00468949 -0.00396931 0.0492004)
(-0.000240593 0.00149201 0.0260976)
(0.000241037 -0.000985727 0.0257988)
(-0.00119641 -0.00167568 0.0337535)
(-0.00111264 -0.000620242 0.0113041)
(-0.00199628 -0.000317224 0.0173858)
(-0.00143328 -0.000574282 0.0120662)
(8.54896e-05 -1.52291e-06 0.0112849)
(-0.000681196 -0.00010536 0.0355647)
(-0.000452059 -0.00134104 0.0215151)
(3.31865e-05 0.000129282 0.0159997)
(-0.00734905 0.000400256 0.0246887)
(0.000134518 -8.05837e-05 0.000932924)
(0.000402435 4.63883e-05 0.00305052)
(0.00253303 0.00368165 0.0440754)
(6.47055e-05 0.000696955 0.012091)
(-0.00223982 0.00621837 0.026706)
(-0.00200507 0.0021502 0.0272389)
(-0.00124598 0.00189377 0.0299501)
(0.000157402 0.00230939 0.0284181)
(-0.00109608 0.000137367 0.0207563)
(0.000371196 -0.00157448 0.0373358)
(-0.000133706 -0.000204626 0.00600011)
(-0.00113542 -0.000893238 0.0179306)
(-0.00174044 -0.00186193 0.0261724)
(-0.00223383 0.0029023 0.0523177)
(0.000786253 -0.000252134 0.0167701)
(0.00133484 0.00154571 0.0350778)
(-0.000357574 0.000302981 0.0108723)
(-0.00125423 -1.93246e-05 0.0191958)
(-0.00035997 0.00104215 0.0306933)
(0.00109143 0.000702178 0.0206788)
(-0.00145064 0.0010314 0.0338655)
(0.000731275 0.000822343 0.0417817)
(-0.0001747 0.00156086 0.0152933)
(-0.000169216 0.00243141 0.0375568)
(0.000736886 0.00145007 0.0284205)
(0.00117369 0.000776744 0.0168845)
(0.0013759 0.00132386 0.0228017)
(-0.000744149 0.000309369 0.0272942)
(-0.00156644 8.06611e-06 0.0253716)
(0.000813748 0.00167313 0.0111035)
(0.000514596 0.000562789 0.00479969)
(-0.00101091 0.00139572 0.0151234)
(-0.000732435 0.000761034 0.0296767)
(0.000912102 0.00170268 0.0135497)
(0.00173382 0.00167205 0.0130124)
(0.000277608 0.000542594 0.0140815)
(-0.00129599 0.000107738 0.0169997)
(0.000665424 0.000233618 0.00935701)
(0.000437093 0.000661827 0.0205726)
(-0.000300789 0.000275996 0.00665624)
(-0.000725191 -0.000120255 0.0128225)
(0.002259 -6.14389e-05 0.0201986)
(0.00162855 -0.000372648 0.00992743)
(-0.00025101 0.000166304 0.0178339)
(-0.00196222 -8.851e-05 0.0194223)
(4.58463e-05 0.000426071 0.023802)
(-7.46855e-05 0.000160002 0.0117127)
(-0.000708989 -0.000165658 0.0210602)
(-0.0002489 -2.83918e-05 0.0198383)
(-0.000923553 -0.00105587 0.00822048)
(-0.000598581 0.000189669 0.0173451)
(-0.000680884 5.18936e-05 0.0181491)
(-0.000790506 -9.56084e-05 0.0230872)
(0.000126802 0.000154168 0.0211008)
(-0.000214231 -0.000520532 0.0233701)
(0.0020866 -0.000531449 0.014422)
(-0.000360372 7.95292e-05 0.0162168)
(0.000423615 0.000349992 0.0102994)
(0.000204147 -0.000886961 0.0127006)
(-0.000563372 -9.13148e-05 0.0231037)
(-0.000256283 9.95598e-05 0.0171858)
(0.000675316 -0.000716615 0.0268307)
(0.000443457 -0.00126738 0.0215361)
(0.000261178 -0.00155685 0.0228222)
(0.000842086 -0.00126159 0.0232462)
(-0.000118617 -0.00136731 0.0160365)
(-0.000452381 -0.00208048 0.020329)
(-0.000117868 -0.00136599 0.0223187)
(0.000643 -0.000837911 0.0236334)
(-0.000186346 -0.000625321 0.0223835)
(0.000389658 -0.0006644 0.0214446)
(0.00122152 -0.000925462 0.0201572)
(0.000947601 -0.000199781 0.0219278)
(-0.000469749 -0.000433698 0.0185036)
(-0.00102929 -0.00113273 0.0192211)
(3.71878e-05 -0.000414218 0.0204639)
(0.000868484 -0.000421532 0.022477)
(0.000221194 0.000521166 0.00663366)
(0.000468171 0.000427548 0.00608947)
(0.000230206 7.67877e-05 0.00634417)
(0.000287098 3.42338e-06 0.00642269)
(-0.000410492 -5.45994e-05 0.00509518)
(-0.000648663 -0.000342979 0.00616619)
(-0.000541422 -0.000121104 0.00672222)
(-0.000217439 -1.01648e-05 0.0067701)
(0.000200079 -0.000148217 0.00722064)
(0.000427033 5.28294e-05 0.00747626)
(0.000270789 0.000134562 0.00651082)
(-6.26516e-05 0.000158247 0.0062005)
(-7.56472e-05 -0.000474263 0.0052622)
(-0.000173645 -0.000737595 0.0058457)
(-0.000252865 -0.000296983 0.00609601)
(-0.00032454 -0.000282205 0.00607893)
(0.000144057 -0.000102277 0.0132715)
(0.00019289 -0.000169067 0.0130875)
(0.000193542 -0.000238068 0.0130674)
(0.000156109 -0.000251809 0.0130403)
(-4.67987e-05 -0.000377134 0.012113)
(-0.000161764 -0.0004744 0.0125395)
(-2.34176e-05 -0.000324901 0.0128145)
(7.64252e-05 -0.000200906 0.0129194)
(4.83634e-05 -7.87699e-05 0.0129702)
(0.000213823 -6.88406e-06 0.0129767)
(0.000353066 7.7266e-05 0.0127304)
(0.000228102 8.17613e-05 0.0127162)
(-0.000112098 -0.000112008 0.0119526)
(-0.000107036 -0.000185688 0.0121799)
(3.74011e-05 -4.85016e-05 0.0122899)
(5.05902e-05 -2.54743e-05 0.0124854)
(4.54069e-05 7.08245e-05 0.0105286)
(0.000109451 8.98383e-05 0.0106)
(0.000111237 6.2287e-05 0.0106565)
(0.000109812 5.38268e-05 0.0106918)
(-1.79854e-05 -2.02477e-05 0.0102961)
(-3.88356e-05 -2.77836e-05 0.0105528)
(-2.57484e-05 1.50576e-05 0.0106988)
(1.85032e-05 5.75916e-05 0.0107478)
(4.15917e-05 9.9741e-05 0.0107736)
(0.000141458 0.000130107 0.010889)
(0.000163576 0.000148552 0.0108123)
(0.000115173 0.000137957 0.0107492)
(-1.55599e-05 2.64678e-05 0.0102429)
(7.56957e-07 6.13992e-06 0.0104732)
(1.09339e-05 3.48748e-05 0.0105538)
(1.26494e-05 4.48873e-05 0.0106016)
(1.78287e-05 -4.43202e-07 0.0109896)
(3.21959e-05 8.08844e-06 0.0110555)
(4.36279e-05 9.95091e-06 0.0111037)
(3.03907e-05 1.04837e-05 0.0111264)
(-3.43207e-06 -3.86178e-05 0.0108246)
(-1.63199e-05 -3.60024e-05 0.0109567)
(1.49971e-06 -1.14939e-05 0.0110544)
(1.21067e-05 1.23869e-05 0.0111024)
(8.8736e-06 5.80208e-05 0.0110149)
(5.29141e-05 6.93019e-05 0.011094)
(8.03228e-05 7.59408e-05 0.0111064)
(6.4323e-05 7.12834e-05 0.011102)
(-2.08338e-05 3.30686e-05 0.0107389)
(-1.61246e-05 2.64668e-05 0.0108731)
(5.18215e-06 3.34335e-05 0.0109571)
(1.13906e-05 3.8843e-05 0.0110106)
(6.8556e-06 1.15092e-05 0.0107881)
(1.57432e-05 2.08379e-05 0.0108927)
(1.94614e-05 2.20764e-05 0.0109674)
(1.1293e-05 2.2984e-05 0.0110165)
(-2.84154e-06 -2.98728e-06 0.0107576)
(-5.9189e-06 8.85703e-07 0.0108912)
(-4.38101e-07 1.06682e-05 0.0109844)
(2.4953e-06 2.09529e-05 0.0110396)
(3.57688e-06 4.4515e-05 0.0108738)
(2.57567e-05 4.92168e-05 0.0109857)
(3.65077e-05 4.98864e-05 0.0110414)
(2.93272e-05 4.65241e-05 0.0110651)
(-9.5514e-06 2.74261e-05 0.0107488)
(-7.59675e-06 2.50521e-05 0.0108892)
(-1.79575e-07 2.6174e-05 0.0109763)
(2.02473e-06 2.80877e-05 0.0110252)
(9.64019e-07 6.33511e-06 0.0107734)
(2.15995e-06 1.21034e-05 0.0108795)
(3.24912e-06 1.40222e-05 0.0109588)
(-3.22944e-06 1.55694e-05 0.0110129)
(-2.00941e-06 5.28501e-07 0.0107692)
(-5.00289e-06 3.78071e-06 0.0108933)
(-3.35176e-06 8.65434e-06 0.010983)
(-3.78385e-06 1.37819e-05 0.01104)
(6.1366e-07 2.56694e-05 0.0108335)
(9.73872e-06 2.84159e-05 0.010951)
(1.36913e-05 2.82823e-05 0.0110239)
(9.0633e-06 2.65093e-05 0.0110636)
(-5.16656e-06 1.65292e-05 0.0107778)
(-5.60114e-06 1.60246e-05 0.0109103)
(-3.53972e-06 1.61659e-05 0.0109972)
(-3.62256e-06 1.69294e-05 0.0110474)
(-1.23802e-06 5.05723e-06 0.0107545)
(-2.26422e-06 8.6581e-06 0.0108654)
(-2.67198e-06 9.85406e-06 0.0109495)
(-7.87435e-06 1.10087e-05 0.0110084)
(-2.08478e-06 2.84874e-06 0.0107698)
(-4.62686e-06 4.92219e-06 0.0108936)
(-4.64969e-06 7.17907e-06 0.0109835)
(-6.32312e-06 9.4891e-06 0.0110424)
(-6.56336e-07 1.50851e-05 0.0108128)
(2.49293e-06 1.65966e-05 0.0109359)
(3.30683e-06 1.61742e-05 0.0110174)
(-2.10716e-07 1.51625e-05 0.0110654)
(-3.10342e-06 9.64756e-06 0.0107925)
(-4.58817e-06 9.72789e-06 0.0109235)
(-4.64725e-06 9.72053e-06 0.0110107)
(-5.75009e-06 1.01662e-05 0.0110621)
(-1.95833e-06 3.75451e-06 0.0107493)
(-3.83393e-06 5.99233e-06 0.0108623)
(-4.72033e-06 6.77143e-06 0.0109482)
(-8.811e-06 7.61825e-06 0.0110092)
(-1.9174e-06 3.08518e-06 0.0107724)
(-4.19244e-06 4.41896e-06 0.0108964)
(-4.85292e-06 5.47577e-06 0.0109864)
(-6.88423e-06 6.5245e-06 0.0110463)
(-1.05682e-06 8.831e-06 0.0108048)
(-6.23573e-07 9.71197e-06 0.0109309)
(-1.036e-06 9.35533e-06 0.0110164)
(-3.79652e-06 8.77603e-06 0.0110686)
(-1.99426e-06 5.7622e-06 0.0108015)
(-3.68524e-06 6.02686e-06 0.0109323)
(-4.55563e-06 6.00644e-06 0.0110199)
(-5.95786e-06 6.19564e-06 0.011072)
(-1.99794e-06 2.89055e-06 0.0107477)
(-3.91746e-06 4.33657e-06 0.0108618)
(-4.86995e-06 4.82132e-06 0.0109488)
(-8.04744e-06 5.39453e-06 0.0110108)
(-1.67806e-06 2.83902e-06 0.0107745)
(-3.62368e-06 3.71414e-06 0.0108989)
(-4.47297e-06 4.16268e-06 0.0109891)
(-6.34006e-06 4.54785e-06 0.0110494)
(-1.04852e-06 5.27538e-06 0.0108022)
(-1.71459e-06 5.81115e-06 0.01093)
(-2.62339e-06 5.5547e-06 0.0110174)
(-4.76016e-06 5.27849e-06 0.0110716)
(-1.32303e-06 3.56785e-06 0.0108073)
(-2.87141e-06 3.83007e-06 0.0109384)
(-3.92855e-06 3.79807e-06 0.011026)
(-5.34904e-06 3.89498e-06 0.0110785)
(-1.76413e-06 2.21676e-06 0.010748)
(-3.44526e-06 3.17615e-06 0.0108628)
(-4.29016e-06 3.47211e-06 0.0109502)
(-6.71837e-06 3.84651e-06 0.0110126)
(-1.3954e-06 2.36161e-06 0.0107765)
(-3.00119e-06 2.92114e-06 0.0109011)
(-3.81648e-06 3.06965e-06 0.0109914)
(-5.35807e-06 3.16656e-06 0.011052)
(-9.30391e-07 3.23386e-06 0.0108021)
(-1.94431e-06 3.59344e-06 0.0109308)
(-2.88854e-06 3.44284e-06 0.0110191)
(-4.4977e-06 3.31958e-06 0.0110742)
(-8.94185e-07 2.26638e-06 0.0108114)
(-2.1964e-06 2.50408e-06 0.0109426)
(-3.23411e-06 2.47844e-06 0.0110303)
(-4.50213e-06 2.53093e-06 0.0110828)
(-1.43929e-06 1.68068e-06 0.0107488)
(-2.79721e-06 2.33186e-06 0.010864)
(-3.48203e-06 2.51061e-06 0.0109516)
(-5.30454e-06 2.75147e-06 0.0110142)
(-1.10372e-06 1.84156e-06 0.0107781)
(-2.38133e-06 2.20501e-06 0.010903)
(-3.07629e-06 2.22658e-06 0.0109933)
(-4.27965e-06 2.2135e-06 0.0110541)
(-7.55784e-07 2.07276e-06 0.0108029)
(-1.75167e-06 2.32323e-06 0.0109322)
(-2.57613e-06 2.23139e-06 0.0110209)
(-3.77465e-06 2.17326e-06 0.0110764)
(-6.32642e-07 1.48656e-06 0.0108142)
(-1.68514e-06 1.67715e-06 0.0109456)
(-2.5812e-06 1.65563e-06 0.0110332)
(-3.61297e-06 1.69078e-06 0.0110857)
(-1.11133e-06 1.24705e-06 0.0107497)
(-2.14959e-06 1.69396e-06 0.0108651)
(-2.67034e-06 1.80294e-06 0.0109528)
(-4.00746e-06 1.95713e-06 0.0110155)
(-8.35485e-07 1.37292e-06 0.0107793)
(-1.81308e-06 1.61425e-06 0.0109045)
(-2.36244e-06 1.59176e-06 0.0109948)
(-3.26479e-06 1.54605e-06 0.0110556)
(-5.79379e-07 1.37199e-06 0.010804)
(-1.41484e-06 1.54985e-06 0.0109335)
(-2.07146e-06 1.49075e-06 0.0110224)
(-2.94874e-06 1.45972e-06 0.011078)
(-4.53614e-07 9.89101e-07 0.0108162)
(-1.26966e-06 1.13433e-06 0.0109477)
(-1.98476e-06 1.11942e-06 0.0110353)
(-2.77373e-06 1.1459e-06 0.0110878)
(-8.11917e-07 8.92898e-07 0.0107505)
(-1.56371e-06 1.19725e-06 0.0108661)
(-1.93676e-06 1.26476e-06 0.0109538)
(-2.88213e-06 1.36295e-06 0.0110164)
(-6.02967e-07 9.81283e-07 0.0107803)
(-1.31443e-06 1.14276e-06 0.0109056)
(-1.72058e-06 1.11218e-06 0.0109959)
(-2.36636e-06 1.06486e-06 0.0110567)
(-4.2157e-07 9.16826e-07 0.010805)
(-1.05648e-06 1.04153e-06 0.0109347)
(-1.54223e-06 1.00173e-06 0.0110236)
(-2.1634e-06 9.81311e-07 0.0110793)
(-3.20254e-07 6.57532e-07 0.0108176)
(-9.21712e-07 7.63342e-07 0.0109492)
(-1.45472e-06 7.5268e-07 0.0110367)
(-2.02359e-06 7.70764e-07 0.0110891)
(-5.4564e-07 5.96466e-07 0.010751)
(-1.04729e-06 7.95274e-07 0.0108667)
(-1.29297e-06 8.37628e-07 0.0109545)
(-1.9146e-06 8.9953e-07 0.0110171)
(-4.03872e-07 6.57682e-07 0.0107811)
(-8.7965e-07 7.62773e-07 0.0109064)
(-1.15261e-06 7.38431e-07 0.0109967)
(-1.57899e-06 7.01885e-07 0.0110574)
(-2.84885e-07 5.96906e-07 0.0108057)
(-7.18418e-07 6.79784e-07 0.0109355)
(-1.04423e-06 6.5311e-07 0.0110244)
(-1.45198e-06 6.38887e-07 0.0110801)
(-2.13314e-07 4.28932e-07 0.0108185)
(-6.20481e-07 5.00602e-07 0.0109502)
(-9.80959e-07 4.92613e-07 0.0110376)
(-1.35646e-06 5.03628e-07 0.01109)
(-2.95945e-07 3.3133e-07 0.0107514)
(-5.714e-07 4.4841e-07 0.0108672)
(-7.02488e-07 4.75317e-07 0.0109549)
(-1.04541e-06 5.13938e-07 0.0110175)
(-2.23171e-07 3.77718e-07 0.0107815)
(-4.80492e-07 4.40079e-07 0.0109069)
(-6.2433e-07 4.27501e-07 0.0109972)
(-8.54723e-07 4.08038e-07 0.0110579)
(-1.59789e-07 3.4866e-07 0.0108062)
(-3.95003e-07 3.97133e-07 0.010936)
(-5.666e-07 3.82422e-07 0.011025)
(-7.83344e-07 3.74603e-07 0.0110806)
(-1.16835e-07 2.63383e-07 0.0108191)
(-3.36293e-07 3.04076e-07 0.0109508)
(-5.29512e-07 2.98211e-07 0.0110382)
(-7.28781e-07 3.03587e-07 0.0110906)
(-1.14572e-08 2.38083e-08 0.0107515)
(-7.29721e-08 7.04409e-08 0.0108673)
(-8.55268e-08 8.76736e-08 0.010955)
(-1.73663e-07 1.10137e-07 0.0110177)
(-1.86324e-08 5.74551e-08 0.0107816)
(-6.10523e-08 8.34254e-08 0.010907)
(-6.31572e-08 8.53443e-08 0.0109974)
(-1.00873e-07 8.58202e-08 0.0110581)
(-2.03856e-08 7.83186e-08 0.0108063)
(-4.74057e-08 9.48004e-08 0.0109362)
(-4.99918e-08 9.09143e-08 0.0110251)
(-7.45218e-08 9.00284e-08 0.0110808)
(-1.57129e-08 8.6143e-08 0.0108192)
(-3.39628e-08 9.34222e-08 0.010951)
(-4.0835e-08 8.50868e-08 0.0110384)
(-5.67958e-08 8.23818e-08 0.0110908)
(-0.00258141 -0.00173658 0.0210191)
(-0.000200305 0.000674248 0.00878634)
(0.0001836 0.000920316 0.0176093)
(0.000688413 0.000476306 0.00828506)
(-0.000953821 -0.00229147 0.0144991)
(0.00065921 0.000465961 0.0260344)
(0.000303021 0.00108918 0.0148066)
(0.000333518 0.00121413 0.0131662)
(9.99005e-05 -0.000479973 0.0141731)
(0.000760789 -0.00149102 0.0161547)
(0.000640456 -0.000723987 0.0158024)
(0.000899821 -0.00117716 0.0221394)
(0.000194118 -0.0016768 0.0182041)
(0.000225274 -0.000505486 0.0140082)
(0.000700753 -0.000667975 0.0159867)
(0.000618795 -0.00036325 0.00359955)
(0.000706778 -7.08376e-05 0.0303833)
(0.000519594 0.00153276 0.0289703)
(0.000421139 0.000490513 0.0120114)
(-0.00259122 -0.00107856 0.0301648)
(0.00109885 0.000367004 0.00639212)
(0.000845866 0.000795838 0.0137871)
(-0.000702316 0.00121164 0.0264681)
(-0.0024343 -0.00333741 0.0333617)
(0.00123546 -0.000379385 0.0128539)
(-0.00144377 -0.000425318 0.0253954)
(-0.00334855 0.000213748 0.0294745)
(-0.00091278 0.000864034 0.014631)
(0.000119998 -0.005633 0.0315547)
(-0.000461647 -0.00205749 0.0145525)
(0.000357149 -0.000727778 0.0131917)