/*--------------------------------*- C++ -*----------------------------------*\
| =========                 |                                                 |
| \\      /  F ield         | OpenFOAM: The Open Source CFD Toolbox           |
|  \\    /   O peration     | Version:  2506                                  |
|   \\  /    A nd           | Website:  www.openfoam.com                      |
|    \\/     M anipulation  |                                                 |
\*---------------------------------------------------------------------------*/
FoamFile
{
    version     2.0;
    format      ascii;
    arch        "LSB;label=32;scalar=64";
    class       volVectorField;
    location    "0.05";
    object      Us;
}
// * * * * * * * * * * * * * * * * * * * * * * * * * * * * * * * * * * * * * //

dimensions      [0 1 -1 0 0 0 0];

internalField   nonuniform List<vector> 
1152
(
(-0.000169378 -0.00011062 -1.09538e-05)
(-0.000113112 0.000239261 2.1099e-05)
(4.04173e-05 0.000188307 6.11517e-05)
(-1.12777e-06 0.000269915 5.26154e-05)
(-4.12366e-05 -6.55494e-05 0.000270193)
(-1.99933e-05 -6.68331e-05 0.000160338)
(-0.000143816 0.000132908 0.000187029)
(-0.000126997 0.000284034 0.000177914)
(0.000342266 -5.34263e-05 0.000207284)
(0.00036789 0.000746702 -0.000324041)
(0.000425412 0.000212908 -0.001582)
(9.87514e-06 -0.000109511 0.000199296)
(0.000189675 1.04063e-05 7.84273e-05)
(0.000217328 -1.24413e-05 5.38422e-05)
(0.00124478 0.000177242 -0.000638555)
(9.21929e-06 -6.29073e-05 0.000188539)
(-2.60709e-05 1.92588e-05 0.00029431)
(-0.000121548 5.25584e-05 0.000169032)
(7.27483e-05 0.000264251 0.000285026)
(5.35855e-05 0.000436798 0.000276445)
(8.57973e-05 0.000115312 0.000531275)
(0.000148343 -5.42996e-05 0.000400641)
(1.43826e-05 0.000181667 0.000622074)
(-0.000457242 0.000216613 0.00081356)
(-8.055e-05 0.000148089 0.000485353)
(0.000140974 8.19283e-05 0.000533185)
(0.000260057 -1.37698e-05 0.000733235)
(-0.000206305 0.000220453 0.000769603)
(-6.93194e-05 0.000204598 0.000714958)
(0.000102243 -0.000277227 0.000737415)
(0.000113391 -0.000269627 0.000595022)
(-0.000126747 -0.000144583 0.000483505)
(-0.000308503 5.46274e-05 0.000938775)
(-0.000100113 0.000393228 0.000583305)
(-6.57684e-05 0.000462291 0.00051977)
(-0.000158551 0.000391928 0.000891078)
(4.86103e-05 0.000115915 0.000677)
(-6.27378e-06 0.000190815 0.000575622)
(0.000136469 0.000200662 0.000836248)
(4.45201e-06 0.000373999 0.000887024)
(-6.65411e-05 0.000151502 0.000591683)
(-9.71257e-05 -0.000162959 0.00116641)
(-4.38229e-05 0.000166728 0.000938335)
(-0.000408007 0.000399734 0.00109482)
(0.00056634 -4.56948e-05 0.00113451)
(0.000385086 0.000518996 0.0028336)
(9.37722e-05 -0.000141604 0.000971159)
(-4.81787e-05 -0.000118247 0.000988042)
(0.000128714 0.000337678 0.00107605)
(-5.02749e-05 0.000234987 0.00107693)
(-0.00023094 7.79035e-05 0.00118572)
(-5.82878e-05 0.000274617 0.00118908)
(-7.48252e-05 0.000273506 0.00116909)
(-9.70589e-05 0.000146617 0.00106398)
(-7.89774e-05 -1.06286e-05 0.00128317)
(0.00015078 0.000300952 0.00105849)
(-0.000193319 0.000129124 0.000872865)
(-0.000197409 2.76444e-05 0.0010369)
(-0.000108796 3.12007e-05 0.000938163)
(-3.21896e-05 0.000193848 0.00071687)
(-0.000264219 -0.00037253 0.00200841)
(-0.000133908 -0.000121338 0.00137036)
(0.000220466 -8.48036e-05 0.00131304)
(-3.10304e-05 4.54191e-05 0.000888664)
(-0.000121807 -6.75975e-05 0.000885695)
(-0.00027943 -4.20699e-05 0.0012415)
(-0.000209289 2.09116e-05 0.00110419)
(-5.50577e-05 4.93548e-05 0.00107195)
(-0.000218113 0.000318707 0.00113439)
(-0.000411736 0.00010627 0.00111673)
(-0.000255263 -9.90056e-05 0.00140643)
(-4.25343e-05 3.28005e-05 0.000998155)
(-0.000417063 0.000300237 0.00119184)
(-0.000593721 1.17875e-05 0.00129092)
(-0.000127369 -1.49082e-05 0.00116236)
(4.90358e-05 -1.37609e-05 0.0008128)
(-0.000425865 0.000100018 0.00110598)
(-0.000212919 4.57099e-05 0.00120481)
(-9.37777e-05 0.000108193 0.00111024)
(-0.000167563 3.26269e-05 0.000748438)
(-0.000364125 3.57026e-05 0.00100002)
(-0.000213665 0.00010248 0.00107082)
(-0.000120702 9.66509e-06 0.00115934)
(-6.19481e-05 4.90725e-06 0.00109776)
(-0.00024927 9.95332e-05 0.00121977)
(-0.000413717 0.000131248 0.00106919)
(-0.000234028 2.06056e-05 0.0011428)
(-0.000102845 1.79755e-05 0.00103645)
(-0.000207949 0.000155603 0.00130327)
(-0.000250758 0.000269002 0.00119592)
(-0.000204968 0.000105733 0.00124611)
(-0.000180377 -1.86431e-05 0.00115922)
(-0.000229864 0.000201946 0.00130646)
(-0.00031393 0.000103371 0.00121301)
(-0.000241593 7.71308e-05 0.00130226)
(-0.000168792 -0.00014012 0.0011481)
(-0.000323492 -0.000137399 0.000991922)
(-0.000208249 2.63023e-05 0.00112038)
(-0.00021486 -6.05932e-05 0.00115229)
(-0.000148137 -0.000187438 0.00104783)
(-0.000426144 -6.86811e-05 0.00107395)
(-0.00035736 0.000183861 0.00117198)
(-0.000254883 -0.000140643 0.00115631)
(-0.000348734 -0.000254876 0.00104211)
(-0.000334566 4.38816e-05 0.00126094)
(-0.000460588 0.000128816 0.00117238)
(-0.000269683 -2.41128e-05 0.00122753)
(-0.000244026 -5.41801e-05 0.00120695)
(-0.000298408 0.000146938 0.00140128)
(-0.000249404 0.000171614 0.00136178)
(0.000167521 -0.000190325 0.00107215)
(2.62761e-05 0.000235479 0.00112375)
(0 0 0)
(0 0 0)
(0 0 0)
(0 0 0)
(0 0 0)
(0 0 0)
(0 0 0)
(0 0 0)
(0 0 0)
(0 0 0)
(0 0 0)
(0 0 0)
(0 0 0)
(0 0 0)
(0 0 0)
(0 0 0)
(0 0 0)
(0 0 0)
(0 0 0)
(0 0 0)
(0 0 0)
(0 0 0)
(0 0 0)
(0 0 0)
(0 0 0)
(0 0 0)
(0 0 0)
(0 0 0)
(0 0 0)
(0 0 0)
(0 0 0)
(0 0 0)
(0 0 0)
(0 0 0)
(0 0 0)
(0 0 0)
(0 0 0)
(0 0 0)
(0 0 0)
(0 0 0)
(0 0 0)
(0 0 0)
(0 0 0)
(0 0 0)
(0 0 0)
(0 0 0)
(0 0 0)
(0 0 0)
(0 0 0)
(0 0 0)
(0 0 0)
(0 0 0)
(0 0 0)
(0 0 0)
(0 0 0)
(0 0 0)
(0 0 0)
(0 0 0)
(0 0 0)
(0 0 0)
(0 0 0)
(0 0 0)
(0 0 0)
(0 0 0)
(0 0 0)
(0 0 0)
(0 0 0)
(0 0 0)
(0 0 0)
(0 0 0)
(0 0 0)
(0 0 0)
(0 0 0)
(0 0 0)
(0 0 0)
(0 0 0)
(0 0 0)
(0 0 0)
(0 0 0)
(0 0 0)
(0 0 0)
(0 0 0)
(0 0 0)
(0 0 0)
(0 0 0)
(0 0 0)
(0 0 0)
(0 0 0)
(0 0 0)
(0 0 0)
(0 0 0)
(0 0 0)
(0 0 0)
(0 0 0)
(0 0 0)
(0 0 0)
(0 0 0)
(0 0 0)
(0 0 0)
(0 0 0)
(0 0 0)
(0 0 0)
(0 0 0)
(0 0 0)
(0 0 0)
(0 0 0)
(0 0 0)
(0 0 0)
(0 0 0)
(0 0 0)
(0 0 0)
(0 0 0)
(0 0 0)
(0 0 0)
(0 0 0)
(0 0 0)
(0 0 0)
(0 0 0)
(0 0 0)
(0 0 0)
(0 0 0)
(0 0 0)
(0 0 0)
(0 0 0)
(0 0 0)
(0 0 0)
(0 0 0)
(0 0 0)
(0 0 0)
(0 0 0)
(0 0 0)
(0 0 0)
(0 0 0)
(0 0 0)
(0 0 0)
(0 0 0)
(0 0 0)
(0 0 0)
(0 0 0)
(0 0 0)
(0 0 0)
(0 0 0)
(0 0 0)
(0 0 0)
(0 0 0)
(0 0 0)
(0 0 0)
(0 0 0)
(0 0 0)
(0 0 0)
(0 0 0)
(0 0 0)
(0 0 0)
(0 0 0)
(0 0 0)
(0 0 0)
(0 0 0)
(0 0 0)
(0 0 0)
(0 0 0)
(0 0 0)
(0 0 0)
(0 0 0)
(0 0 0)
(0 0 0)
(0 0 0)
(0 0 0)
(0 0 0)
(0 0 0)
(0 0 0)
(0 0 0)
(0 0 0)
(0 0 0)
(0 0 0)
(0 0 0)
(0 0 0)
(0 0 0)
(0 0 0)
(0 0 0)
(0 0 0)
(0 0 0)
(0 0 0)
(0 0 0)
(0 0 0)
(0 0 0)
(0 0 0)
(0 0 0)
(0 0 0)
(0 0 0)
(0 0 0)
(0 0 0)
(0 0 0)
(0 0 0)
(0 0 0)
(0 0 0)
(0 0 0)
(0 0 0)
(0 0 0)
(0 0 0)
(0 0 0)
(0 0 0)
(0 0 0)
(0 0 0)
(0 0 0)
(0 0 0)
(0 0 0)
(0 0 0)
(0 0 0)
(0 0 0)
(0 0 0)
(0 0 0)
(0 0 0)
(0 0 0)
(0 0 0)
(0 0 0)
(0 0 0)
(0 0 0)
(0 0 0)
(0 0 0)
(0 0 0)
(0 0 0)
(0 0 0)
(0 0 0)
(0 0 0)
(0 0 0)
(0 0 0)
(0 0 0)
(0 0 0)
(0 0 0)
(0 0 0)
(0 0 0)
(0 0 0)
(0 0 0)
(0 0 0)
(0 0 0)
(0 0 0)
(0 0 0)
(0 0 0)
(0 0 0)
(0 0 0)
(0 0 0)
(0 0 0)
(0 0 0)
(0 0 0)
(0 0 0)
(0 0 0)
(0 0 0)
(0 0 0)
(0 0 0)
(0 0 0)
(0 0 0)
(0 0 0)
(0 0 0)
(0 0 0)
(0 0 0)
(0 0 0)
(0 0 0)
(0 0 0)
(0 0 0)
(0 0 0)
(0 0 0)
(0 0 0)
(0 0 0)
(0 0 0)
(0 0 0)
(0 0 0)
(0 0 0)
(0 0 0)
(0 0 0)
(0 0 0)
(0 0 0)
(0 0 0)
(-8.39535e-05 -3.47014e-05 9.13658e-05)
(-0.000226644 1.42953e-05 0.000143721)
(-9.4004e-05 0.000178293 0.000116998)
(-0.000244864 9.97831e-05 -1.71166e-05)
(-6.54987e-05 0.000216842 0.000234877)
(-5.23039e-05 -8.04376e-05 8.56227e-05)
(5.45596e-05 -7.73289e-05 0.000158615)
(7.97807e-05 5.11037e-05 0.000198469)
(6.20115e-05 0.000118773 0.000104359)
(0.000116022 -8.59429e-05 7.53982e-05)
(0.000103236 -0.000213343 6.73029e-05)
(0.000169548 4.28214e-05 9.99866e-05)
(2.91182e-05 -3.94552e-05 2.95476e-05)
(7.10032e-05 -4.8993e-05 0.000109978)
(6.52313e-05 -0.000105835 0.00027115)
(0.000280471 -2.29532e-05 5.29904e-05)
(0.000227136 -0.000469029 0.000806625)
(-0.000436088 -0.000501086 0.000888945)
(-0.000708025 -0.000295833 0.000765224)
(-0.00021924 9.51151e-05 0.000308739)
(0.000185527 -0.000306541 0.000376956)
(-0.000355585 -0.000435003 0.000587525)
(-0.000261168 -0.000226616 0.000414827)
(-0.000105304 -0.00033862 0.00089215)
(-0.000173968 -0.0002966 0.000282197)
(3.08451e-05 -0.000328891 0.0004497)
(8.13127e-05 -0.00040232 0.000355834)
(-0.00039756 -0.000208714 0.000513909)
(1.43257e-05 -0.000256781 0.000571441)
(-9.29296e-05 -1.66475e-05 0.000296457)
(4.59976e-05 -0.000104491 0.000457737)
(-2.21609e-05 -4.54418e-05 0.000300929)
(0.000585593 -0.000628756 0.00108711)
(-0.000183565 3.56643e-05 0.000881823)
(-0.000832656 0.000137525 0.00188809)
(-0.000108387 -9.09077e-05 0.000843497)
(0.00029769 -0.000297372 0.000496357)
(-0.000209731 -3.3655e-05 0.000582525)
(1.23805e-05 -8.65361e-05 0.00157536)
(0.000158708 -0.000126444 0.00134566)
(-0.000192567 -0.000142096 0.000870278)
(-0.000138066 -0.000205641 0.000537924)
(-0.000138597 -0.000132357 0.000628496)
(-0.000244214 -5.20092e-05 0.000691428)
(2.19846e-05 -0.000160451 0.000966377)
(-7.81735e-05 -0.000371445 0.000659333)
(-1.85967e-05 4.17706e-05 0.000816565)
(0.000160009 -2.30696e-05 0.000735028)
(3.9505e-08 5.23419e-05 0.000869462)
(0.00015286 1.65253e-05 0.000764316)
(5.61921e-05 -7.76096e-06 0.00119513)
(0.000199637 -4.3274e-05 0.000774894)
(0.000290166 -0.000202352 0.000414244)
(0.000321171 -5.8148e-05 0.000841744)
(6.18363e-05 0.000157048 0.00109662)
(0.000149255 0.00012864 0.00106192)
(3.12369e-05 0.000121602 0.000864309)
(0.000274883 2.41053e-06 0.000855133)
(-2.43916e-05 2.82013e-05 0.000952307)
(3.16889e-06 -0.000119033 0.000991041)
(6.98714e-06 -0.000281471 0.00112385)
(-4.82101e-05 4.05807e-05 0.000821036)
(7.84983e-05 0.000104613 0.00105035)
(6.63268e-05 -6.12502e-05 0.00109459)
(-0.00115176 0.00129378 0.00302836)
(0.000124509 -8.88785e-05 0.000781222)
(0.000119021 -0.000101303 0.000601474)
(-2.43839e-05 -8.66209e-05 0.000796196)
(6.07763e-05 -1.42537e-05 0.000487025)
(0.000136451 -0.000150605 0.000925782)
(1.79335e-05 4.79751e-05 0.00100019)
(-2.55941e-06 8.77243e-05 0.00126265)
(5.40887e-06 2.40336e-05 0.0013721)
(-7.06045e-05 0.000106927 0.000915727)
(-0.00017074 4.35196e-05 0.00109311)
(-0.000248345 2.52512e-06 0.0012977)
(0.000170654 4.06576e-05 0.000633436)
(0.000153316 0.000104234 0.000734738)
(0.000181415 8.08896e-05 0.0012098)
(-0.000222728 -4.96832e-07 0.00144385)
(1.17126e-05 2.35493e-05 0.000480558)
(0.000146718 -0.000200367 0.000532718)
(-0.000161796 1.89719e-05 0.000656716)
(-0.000307449 4.75837e-05 0.000886208)
(4.54203e-05 5.27677e-05 0.000384683)
(9.86984e-06 0.000123742 0.000541642)
(-0.000153087 2.7999e-05 0.000833669)
(-0.000167902 5.40015e-05 0.00120061)
(0.000139567 9.11748e-05 0.000404642)
(4.07932e-05 0.000241549 0.000747084)
(0.000112652 0.000321139 0.00107745)
(-0.000128348 0.000245474 0.00137679)
(7.52244e-05 -7.86656e-05 0.000443049)
(5.23341e-05 -0.000150197 0.00078835)
(2.6793e-05 -4.73846e-05 0.00108332)
(-0.000245571 0.000146246 0.00125372)
(-0.000218845 -6.66473e-05 0.00051259)
(-0.000171737 -0.000217905 0.000727412)
(-0.000102092 -0.000158668 0.000953579)
(-0.000356769 -0.000171052 0.000980682)
(-0.000589929 -0.000997179 -0.000260947)
(-0.000189605 8.61613e-05 0.000482852)
(-0.000325674 -0.000195347 0.000995725)
(-0.000407697 -1.14371e-05 0.00115465)
(4.66649e-05 0.000247136 0.000293777)
(-0.00045073 -0.000559736 0.000845803)
(0.00276288 -4.27478e-06 -0.00106114)
(-0.000242236 0.000171125 0.00154655)
(0.000354233 0.00040902 0.000239849)
(0.000286925 -0.000441959 0.000704697)
(-0.000240642 -9.47492e-05 0.000938972)
(-0.000135693 0.000284465 0.00131457)
(0 0 0)
(0 0 0)
(0 0 0)
(0 0 0)
(0 0 0)
(0 0 0)
(0 0 0)
(0 0 0)
(0 0 0)
(0 0 0)
(0 0 0)
(0 0 0)
(0 0 0)
(0 0 0)
(0 0 0)
(0 0 0)
(0 0 0)
(0 0 0)
(0 0 0)
(0 0 0)
(0 0 0)
(0 0 0)
(0 0 0)
(0 0 0)
(0 0 0)
(0 0 0)
(0 0 0)
(0 0 0)
(0 0 0)
(0 0 0)
(0 0 0)
(0 0 0)
(0 0 0)
(0 0 0)
(0 0 0)
(0 0 0)
(0 0 0)
(0 0 0)
(0 0 0)
(0 0 0)
(0 0 0)
(0 0 0)
(0 0 0)
(0 0 0)
(0 0 0)
(0 0 0)
(0 0 0)
(0 0 0)
(0 0 0)
(0 0 0)
(0 0 0)
(0 0 0)
(0 0 0)
(0 0 0)
(0 0 0)
(0 0 0)
(0 0 0)
(0 0 0)
(0 0 0)
(0 0 0)
(0 0 0)
(0 0 0)
(0 0 0)
(0 0 0)
(0 0 0)
(0 0 0)
(0 0 0)
(0 0 0)
(0 0 0)
(0 0 0)
(0 0 0)
(0 0 0)
(0 0 0)
(0 0 0)
(0 0 0)
(0 0 0)
(0 0 0)
(0 0 0)
(0 0 0)
(0 0 0)
(0 0 0)
(0 0 0)
(0 0 0)
(0 0 0)
(0 0 0)
(0 0 0)
(0 0 0)
(0 0 0)
(0 0 0)
(0 0 0)
(0 0 0)
(0 0 0)
(0 0 0)
(0 0 0)
(0 0 0)
(0 0 0)
(0 0 0)
(0 0 0)
(0 0 0)
(0 0 0)
(0 0 0)
(0 0 0)
(0 0 0)
(0 0 0)
(0 0 0)
(0 0 0)
(0 0 0)
(0 0 0)
(0 0 0)
(0 0 0)
(0 0 0)
(0 0 0)
(0 0 0)
(0 0 0)
(0 0 0)
(0 0 0)
(0 0 0)
(0 0 0)
(0 0 0)
(0 0 0)
(0 0 0)
(0 0 0)
(0 0 0)
(0 0 0)
(0 0 0)
(0 0 0)
(0 0 0)
(0 0 0)
(0 0 0)
(0 0 0)
(0 0 0)
(0 0 0)
(0 0 0)
(0 0 0)
(0 0 0)
(0 0 0)
(0 0 0)
(0 0 0)
(0 0 0)
(0 0 0)
(0 0 0)
(0 0 0)
(0 0 0)
(0 0 0)
(0 0 0)
(0 0 0)
(0 0 0)
(0 0 0)
(0 0 0)
(0 0 0)
(0 0 0)
(0 0 0)
(0 0 0)
(0 0 0)
(0 0 0)
(0 0 0)
(0 0 0)
(0 0 0)
(0 0 0)
(0 0 0)
(0 0 0)
(0 0 0)
(0 0 0)
(0 0 0)
(0 0 0)
(0 0 0)
(0 0 0)
(0 0 0)
(0 0 0)
(0 0 0)
(0 0 0)
(0 0 0)
(0 0 0)
(0 0 0)
(0 0 0)
(0 0 0)
(0 0 0)
(0 0 0)
(0 0 0)
(0 0 0)
(0 0 0)
(0 0 0)
(0 0 0)
(0 0 0)
(0 0 0)
(0 0 0)
(0 0 0)
(0 0 0)
(0 0 0)
(0 0 0)
(0 0 0)
(0 0 0)
(0 0 0)
(0 0 0)
(0 0 0)
(0 0 0)
(0 0 0)
(0 0 0)
(0 0 0)
(0 0 0)
(0 0 0)
(0 0 0)
(0 0 0)
(0 0 0)
(0 0 0)
(0 0 0)
(0 0 0)
(0 0 0)
(0 0 0)
(0 0 0)
(0 0 0)
(0 0 0)
(0 0 0)
(0 0 0)
(0 0 0)
(0 0 0)
(0 0 0)
(0 0 0)
(0 0 0)
(0 0 0)
(0 0 0)
(0 0 0)
(0 0 0)
(0 0 0)
(0 0 0)
(0 0 0)
(0 0 0)
(0 0 0)
(0 0 0)
(0 0 0)
(0 0 0)
(0 0 0)
(0 0 0)
(0 0 0)
(0 0 0)
(0 0 0)
(0 0 0)
(0 0 0)
(0 0 0)
(0 0 0)
(0 0 0)
(0 0 0)
(0 0 0)
(0 0 0)
(0 0 0)
(0 0 0)
(0 0 0)
(0 0 0)
(0 0 0)
(0 0 0)
(0 0 0)
(0 0 0)
(0 0 0)
(0 0 0)
(0 0 0)
(0 0 0)
(0 0 0)
(0 0 0)
(0 0 0)
(0 0 0)
(0 0 0)
(0 0 0)
(0 0 0)
(0 0 0)
(0 0 0)
(0 0 0)
(0 0 0)
(0 0 0)
(0 0 0)
(0 0 0)
(0 0 0)
(0 0 0)
(-0.00033857 4.7269e-05 5.07805e-05)
(5.7011e-05 7.52394e-05 3.81191e-05)
(0.000123509 6.58807e-05 7.66799e-05)
(4.0503e-05 5.24451e-05 0.00019396)
(-0.000112136 1.11346e-05 0.000101287)
(-5.09949e-05 4.00958e-05 0.000136046)
(-0.000128656 8.61879e-05 8.45869e-05)
(-2.49537e-05 9.50036e-05 0.000316202)
(-0.000210299 4.41544e-05 5.97725e-06)
(0.000118453 0.000220159 2.90646e-05)
(0.000172199 -6.55472e-05 0.000186672)
(0.000205591 -0.000118644 3.61301e-06)
(-0.000115945 -0.000161804 -0.000169716)
(0.000150129 0.000125521 -2.16985e-05)
(0.000233625 -2.46623e-05 0.000109417)
(0.000251703 0.000150524 -0.000219337)
(0.000135128 3.40222e-05 0.000295623)
(-0.000107872 0.000418747 0.000672631)
(-1.55646e-05 8.28867e-05 0.000290103)
(-0.000132868 0.000126394 0.000570607)
(0.000211948 -0.000251733 0.000733)
(0.000159538 0.000269465 0.000703633)
(1.7851e-05 7.87254e-05 0.000438831)
(-0.000188214 0.00018353 0.00118601)
(-0.000464756 -0.000127827 0.000779827)
(-1.11078e-05 0.000324146 0.000540222)
(4.60684e-05 0.00019032 0.000395953)
(-0.000100921 0.000619491 0.000268306)
(-0.000387605 0.000114702 0.000430827)
(2.44308e-05 0.000235593 0.000197298)
(0.000139971 0.000228092 0.000414457)
(1.06071e-05 0.000523886 0.00028038)
(0.000404715 -0.000361816 0.000987778)
(0.0002555 0.000157292 0.000968073)
(4.24008e-05 -0.00016667 0.000676882)
(9.05817e-05 -4.45447e-05 0.000847808)
(2.68786e-05 -0.00020775 0.00122449)
(0.000362226 6.26436e-05 0.00162829)
(-0.000189994 0.000156248 0.00107085)
(-0.000384234 -8.12455e-05 0.00107668)
(-0.000707709 -0.000141356 0.00180479)
(-0.000135156 0.000224805 0.00088646)
(-0.000154585 0.000151776 0.000777635)
(-0.000326869 0.000249204 0.000711028)
(-0.000341376 7.89936e-06 0.000655035)
(-0.000481848 0.000339433 0.000517554)
(-0.000239442 0.000259876 0.000533548)
(-2.58816e-05 0.000400385 0.000694149)
(0.000115046 -0.000243951 0.000794735)
(0.000262331 -0.000266791 0.000806974)
(0.000190891 0.000165085 0.000664631)
(0.000429365 -0.000145654 0.00159939)
(-0.000198778 -0.000641428 0.00143484)
(4.36835e-05 -0.000258173 0.00127095)
(-7.05639e-05 0.000112481 0.000783611)
(8.91928e-05 -7.48586e-06 0.00113114)
(0.000130215 -0.000475224 0.00130874)
(-0.000101717 0.000200828 0.000887781)
(2.38475e-05 0.000139889 0.00103437)
(-0.000154522 4.66145e-05 0.00111772)
(0.000308718 0.000285784 0.000947714)
(1.85199e-05 0.000397999 0.000979134)
(-0.000288554 0.000344042 0.00127713)
(-8.3403e-05 7.30814e-05 0.00116841)
(0.000119799 -0.000241751 0.00110577)
(0.000123963 -0.000196923 0.000675828)
(-5.56741e-05 -3.64707e-05 0.000412809)
(9.24952e-05 -0.000103892 0.000614107)
(0.000392666 1.5378e-06 0.000849146)
(5.83007e-05 -4.43328e-05 0.00101226)
(1.57766e-05 0.000125384 0.000867227)
(8.72033e-05 0.000120312 0.000749408)
(-0.00031981 6.59315e-07 0.0012564)
(0.000310652 -2.11084e-05 0.000918905)
(4.96435e-05 6.79553e-05 0.000992844)
(3.50658e-05 7.20547e-05 0.000988269)
(-0.000225196 -0.000179607 0.000992738)
(-0.000135199 -5.71467e-05 0.00103326)
(2.43419e-05 0.000259451 0.0012289)
(-0.000145125 0.00012779 0.00145772)
(5.78707e-05 -0.000126637 0.000946397)
(5.88038e-05 -0.000145054 0.000498552)
(8.79181e-05 -3.10198e-05 0.000228229)
(5.80088e-05 0.000122785 0.000399868)
(0.000258931 -4.31315e-05 0.00107727)
(0.000264934 6.75685e-05 0.000566855)
(0.000254795 0.000121482 0.000535485)
(5.40019e-05 4.88812e-05 0.000519856)
(-2.02475e-05 7.19406e-05 0.000557824)
(0.000219955 0.000267593 0.000877556)
(0.000107149 0.000166876 0.00102276)
(6.91258e-05 1.6917e-05 0.00107396)
(-0.000221866 9.65116e-05 0.000687415)
(3.24717e-05 8.27271e-05 0.00092445)
(0.000110281 0.000134861 0.00103009)
(-1.89571e-05 -4.17295e-06 0.0010246)
(-0.000341601 0.000292264 9.12196e-05)
(2.45025e-06 0.000466667 0.000356761)
(0.000306734 6.16652e-05 0.000200439)
(0.00382654 0.00029443 -0.00646178)
(-0.000810305 0.00123973 -0.0016532)
(0.000259821 0.0016284 -0.000503351)
(0.000153695 0.000236741 0.000328569)
(-4.16372e-05 0.000111168 0.000672661)
(0.00178994 0.00248928 -0.000512799)
(0.00228179 0.00279604 0.000364494)
(3.1671e-05 0.000388479 0.00104875)
(5.07537e-05 -0.000112968 0.00116715)
(0.000567139 0.00169528 0.00213347)
(0.0012778 0.00353193 0.00210973)
(-0.000110685 0.00010128 0.00106144)
(6.53283e-05 -4.13916e-05 0.000990485)
(0 0 0)
(0 0 0)
(0.000107715 0.000943193 -0.000235551)
(0 0 0)
(0 0 0)
(0 0 0)
(0 0 0)
(0 0 0)
(0 0 0)
(0 0 0)
(0 0 0)
(0 0 0)
(0 0 0)
(0 0 0)
(0 0 0)
(0 0 0)
(0 0 0)
(0 0 0)
(0 0 0)
(0 0 0)
(0 0 0)
(0 0 0)
(0 0 0)
(0 0 0)
(0 0 0)
(0 0 0)
(0 0 0)
(0 0 0)
(0 0 0)
(0 0 0)
(0 0 0)
(0 0 0)
(0 0 0)
(0 0 0)
(0 0 0)
(0 0 0)
(0 0 0)
(0 0 0)
(0 0 0)
(0 0 0)
(0 0 0)
(0 0 0)
(0 0 0)
(0 0 0)
(0 0 0)
(0 0 0)
(0 0 0)
(0 0 0)
(0 0 0)
(0 0 0)
(0 0 0)
(0 0 0)
(0 0 0)
(0 0 0)
(0 0 0)
(0 0 0)
(0 0 0)
(0 0 0)
(0 0 0)
(0 0 0)
(0 0 0)
(0 0 0)
(0 0 0)
(0 0 0)
(0 0 0)
(0 0 0)
(0 0 0)
(0 0 0)
(0 0 0)
(0 0 0)
(0 0 0)
(0 0 0)
(0 0 0)
(0 0 0)
(0 0 0)
(0 0 0)
(0 0 0)
(0 0 0)
(0 0 0)
(0 0 0)
(0 0 0)
(0 0 0)
(0 0 0)
(0 0 0)
(0 0 0)
(0 0 0)
(0 0 0)
(0 0 0)
(0 0 0)
(0 0 0)
(0 0 0)
(0 0 0)
(0 0 0)
(0 0 0)
(0 0 0)
(0 0 0)
(0 0 0)
(0 0 0)
(0 0 0)
(0 0 0)
(0 0 0)
(0 0 0)
(0 0 0)
(0 0 0)
(0 0 0)
(0 0 0)
(0 0 0)
(0 0 0)
(0 0 0)
(0 0 0)
(0 0 0)
(0 0 0)
(0 0 0)
(0 0 0)
(0 0 0)
(0 0 0)
(0 0 0)
(0 0 0)
(0 0 0)
(0 0 0)
(0 0 0)
(0 0 0)
(0 0 0)
(0 0 0)
(0 0 0)
(0 0 0)
(0 0 0)
(0 0 0)
(0 0 0)
(0 0 0)
(0 0 0)
(0 0 0)
(0 0 0)
(0 0 0)
(0 0 0)
(0 0 0)
(0 0 0)
(0 0 0)
(0 0 0)
(0 0 0)
(0 0 0)
(0 0 0)
(0 0 0)
(0 0 0)
(0 0 0)
(0 0 0)
(0 0 0)
(0 0 0)
(0 0 0)
(0 0 0)
(0 0 0)
(0 0 0)
(0 0 0)
(0 0 0)
(0 0 0)
(0 0 0)
(0 0 0)
(0 0 0)
(0 0 0)
(0 0 0)
(0 0 0)
(0 0 0)
(0 0 0)
(0 0 0)
(0 0 0)
(0 0 0)
(0 0 0)
(0 0 0)
(0 0 0)
(0 0 0)
(0 0 0)
(0 0 0)
(0 0 0)
(0 0 0)
(0 0 0)
(0 0 0)
(0 0 0)
(0 0 0)
(0 0 0)
(0 0 0)
(0 0 0)
(0 0 0)
(0 0 0)
(0 0 0)
(0 0 0)
(0 0 0)
(0 0 0)
(0 0 0)
(0 0 0)
(0 0 0)
(0 0 0)
(0 0 0)
(0 0 0)
(0 0 0)
(0 0 0)
(0 0 0)
(0 0 0)
(0 0 0)
(0 0 0)
(0 0 0)
(0 0 0)
(0 0 0)
(0 0 0)
(0 0 0)
(0 0 0)
(0 0 0)
(0 0 0)
(0 0 0)
(0 0 0)
(0 0 0)
(0 0 0)
(0 0 0)
(0 0 0)
(0 0 0)
(0 0 0)
(0 0 0)
(0 0 0)
(0 0 0)
(0 0 0)
(0 0 0)
(0 0 0)
(0 0 0)
(0 0 0)
(0 0 0)
(0 0 0)
(0 0 0)
(0 0 0)
(0 0 0)
(0 0 0)
(0 0 0)
(0 0 0)
(0 0 0)
(0 0 0)
(0 0 0)
(0 0 0)
(0 0 0)
(0 0 0)
(0 0 0)
(0 0 0)
(0 0 0)
(0 0 0)
(0 0 0)
(0 0 0)
(0 0 0)
(0 0 0)
(0 0 0)
(0 0 0)
(0 0 0)
(0 0 0)
(0 0 0)
(0 0 0)
(0 0 0)
(0 0 0)
(0 0 0)
(0 0 0)
(0 0 0)
(0 0 0)
(0 0 0)
(0 0 0)
(0 0 0)
(0 0 0)
(0 0 0)
(0 0 0)
(0 0 0)
(0 0 0)
(0 0 0)
(0 0 0)
(0 0 0)
(0 0 0)
(0 0 0)
(0 0 0)
(0 0 0)
)
;

boundaryField
{
    inlet
    {
        type            zeroGradient;
    }
    outlet
    {
        type            zeroGradient;
    }
    wall
    {
        type            zeroGradient;
    }
    procBoundary0to1
    {
        type            processor;
        value           nonuniform List<vector> 
192
(
(-1.96558e-05 0.000291168 5.2312e-05)
(-8.56161e-05 0.000182354 0.00024407)
(3.83392e-05 0.000101656 0.000228699)
(-0.000219439 0.000168009 0.000256394)
(-0.000302922 0.000290482 0.000621669)
(-0.000393744 0.00028517 0.000851648)
(-0.000348624 0.000187597 0.000945064)
(-5.64133e-05 -1.70537e-05 0.000700863)
(-0.000427402 0.000314018 0.00120133)
(-0.000242005 0.000406653 0.00082361)
(-0.000476912 -2.57829e-05 0.00125401)
(-0.000233618 -0.000222415 0.000981079)
(-0.00020422 0.000186885 0.00103953)
(-5.68253e-05 0.000469997 0.00101344)
(-0.000160319 0.000312783 0.000899654)
(-1.15121e-05 0.000212834 0.00084977)
(1.86406e-05 8.86647e-05 0.000998731)
(3.59188e-05 0.000280058 0.000963067)
(-9.57278e-05 -0.000246029 0.00123109)
(-0.00015129 8.7589e-06 0.000887059)
(-6.98965e-05 -7.07215e-05 0.00111777)
(-4.14453e-05 -7.41958e-05 0.00097958)
(-0.000112004 -6.9247e-05 0.00100353)
(-0.000123051 -5.12859e-05 0.00105235)
(-9.17524e-05 0.000129955 0.001024)
(-0.000174279 0.000113774 0.00108476)
(-0.00179043 0.0010509 0.000805742)
(-9.62394e-05 -7.34003e-06 0.00103792)
(0 0 0)
(0 0 0)
(0 0 0)
(-2.48801e-06 -7.2632e-05 0.00111527)
(0 0 0)
(0 0 0)
(0 0 0)
(0 0 0)
(0 0 0)
(0 0 0)
(0 0 0)
(0 0 0)
(0 0 0)
(0 0 0)
(0 0 0)
(0 0 0)
(0 0 0)
(0 0 0)
(0 0 0)
(0 0 0)
(0 0 0)
(0 0 0)
(0 0 0)
(0 0 0)
(0 0 0)
(0 0 0)
(0 0 0)
(0 0 0)
(0 0 0)
(0 0 0)
(0 0 0)
(0 0 0)
(0 0 0)
(0 0 0)
(0 0 0)
(0 0 0)
(0 0 0)
(0 0 0)
(0 0 0)
(0 0 0)
(0 0 0)
(0 0 0)
(0 0 0)
(0 0 0)
(0 0 0)
(0 0 0)
(0 0 0)
(0 0 0)
(0 0 0)
(0 0 0)
(0 0 0)
(0 0 0)
(0 0 0)
(0 0 0)
(0 0 0)
(0 0 0)
(0 0 0)
(0 0 0)
(0 0 0)
(0 0 0)
(0 0 0)
(0 0 0)
(0 0 0)
(0 0 0)
(0 0 0)
(0 0 0)
(0 0 0)
(0 0 0)
(-5.83661e-05 -6.98833e-05 0.000116492)
(0.000158715 -4.09899e-05 0.000165927)
(2.76708e-05 6.12431e-05 -8.10809e-07)
(0.000183524 0.00014072 -0.000180094)
(-2.81349e-06 0.000479927 0.000291585)
(-0.000242612 0.000766972 0.000558086)
(-0.000187301 0.000563052 0.000258266)
(-0.000324076 2.69561e-06 -1.95906e-05)
(0.000154025 2.92961e-05 0.000333447)
(0.000351238 0.000990429 0.00109096)
(-3.62213e-05 0.000325429 0.000496432)
(-0.000132674 0.000437375 0.000570728)
(5.95195e-05 7.12135e-05 0.000304308)
(7.98281e-05 0.000139461 0.000485826)
(-3.76184e-05 8.31493e-05 0.000630419)
(-9.36657e-05 -0.000158266 0.00115128)
(2.70973e-05 -2.26755e-05 0.000288775)
(-9.17773e-05 7.7531e-05 0.000486249)
(-9.66455e-05 -3.21332e-05 0.000883803)
(1.1144e-05 -3.18263e-05 0.00118712)
(5.70687e-05 4.96794e-05 0.000305734)
(-4.33369e-05 7.65282e-06 0.000572892)
(5.74001e-05 -5.43613e-05 0.00088486)
(-0.000131624 -0.000122311 0.00101653)
(9.89103e-05 -0.000234285 0.000172568)
(0.00207724 -0.000643835 0.000255896)
(0.000923707 0.000448334 0.000747112)
(0.00216912 0.00113794 0.000584322)
(0 0 0)
(0 0 0)
(0 0 0)
(0 0 0)
(0 0 0)
(0 0 0)
(0 0 0)
(0 0 0)
(0 0 0)
(0 0 0)
(0 0 0)
(0 0 0)
(0 0 0)
(0 0 0)
(0 0 0)
(0 0 0)
(0 0 0)
(0 0 0)
(0 0 0)
(0 0 0)
(0 0 0)
(0 0 0)
(0 0 0)
(0 0 0)
(0 0 0)
(0 0 0)
(0 0 0)
(0 0 0)
(0 0 0)
(0 0 0)
(0 0 0)
(0 0 0)
(0 0 0)
(0 0 0)
(0 0 0)
(0 0 0)
(0 0 0)
(0 0 0)
(0 0 0)
(0 0 0)
(0 0 0)
(0 0 0)
(0 0 0)
(0 0 0)
(0 0 0)
(0 0 0)
(0 0 0)
(0 0 0)
(0 0 0)
(0 0 0)
(0 0 0)
(0 0 0)
(0 0 0)
(0 0 0)
(0 0 0)
(0 0 0)
(0 0 0)
(0 0 0)
(0 0 0)
(0 0 0)
(0 0 0)
(0 0 0)
(0 0 0)
(0 0 0)
(0 0 0)
(0 0 0)
(0 0 0)
(0 0 0)
)
;
    }
    procBoundary0to2
    {
        type            processor;
        value           nonuniform List<vector> 
192
(
(0.000377282 0.000114193 0.000192141)
(0.000119891 6.28141e-06 0.000131272)
(9.50438e-05 3.07614e-05 0.000131453)
(2.86949e-05 0.000190073 0.000339326)
(0.000172042 -6.46785e-05 0.000621749)
(-1.17893e-05 -0.000377103 0.000299579)
(0.000238742 -4.13433e-05 0.000652117)
(-0.000282583 -6.62311e-05 0.00081963)
(0.000358112 8.05374e-05 0.000900346)
(0.000439766 0.000124763 0.00099946)
(5.94098e-05 -0.000112916 0.000893103)
(-0.000143484 -0.000383888 0.001552)
(9.13875e-05 -9.90835e-05 0.0012824)
(0.000117352 -8.26228e-05 0.00116264)
(-0.000146329 0.00016816 0.001137)
(-0.000246777 -0.000718974 0.00174867)
(-0.000130364 2.07986e-05 0.00110215)
(-0.000135628 0.000115454 0.00137756)
(-0.000186486 6.12901e-06 0.00142044)
(-0.000236996 -2.96946e-05 0.00108822)
(-0.000145424 8.00163e-05 0.00121283)
(-0.000215044 0.000173238 0.00131194)
(-0.000122547 0.000114193 0.00127947)
(-0.000220555 -2.14595e-05 0.00103928)
(-0.000121758 0.000182331 0.001193)
(-0.000295315 0.00023475 0.00115394)
(-0.000293631 0.000140899 0.00135709)
(-0.000122485 0.000213674 0.00109138)
(0 0 0)
(0 0 0)
(0 0 0)
(0 0 0)
(0 0 0)
(0 0 0)
(0 0 0)
(0 0 0)
(0 0 0)
(0 0 0)
(0 0 0)
(0 0 0)
(0 0 0)
(0 0 0)
(0 0 0)
(0 0 0)
(0 0 0)
(0 0 0)
(0 0 0)
(0 0 0)
(0 0 0)
(0 0 0)
(0 0 0)
(0 0 0)
(0 0 0)
(0 0 0)
(0 0 0)
(0 0 0)
(0 0 0)
(0 0 0)
(0 0 0)
(0 0 0)
(0 0 0)
(0 0 0)
(0 0 0)
(0 0 0)
(0 0 0)
(0 0 0)
(0 0 0)
(0 0 0)
(0 0 0)
(0 0 0)
(0 0 0)
(0 0 0)
(0 0 0)
(0 0 0)
(0 0 0)
(0 0 0)
(0 0 0)
(0 0 0)
(0 0 0)
(0 0 0)
(0 0 0)
(0 0 0)
(0 0 0)
(0 0 0)
(0 0 0)
(0 0 0)
(0 0 0)
(0 0 0)
(0 0 0)
(0 0 0)
(0 0 0)
(0 0 0)
(0 0 0)
(0 0 0)
(0 0 0)
(0 0 0)
(0.000134622 -5.69508e-05 0.000165841)
(0.000126157 -0.000186844 0.000160016)
(0.000195274 -0.000239137 0.0001429)
(0.000312801 -6.87447e-05 3.45312e-06)
(-5.99114e-05 -0.000366758 0.00032829)
(1.46188e-05 1.05653e-06 0.000473448)
(0.000253421 -2.59425e-05 0.000451323)
(0.000537281 0.000160227 0.000378208)
(0.000199477 -0.000575519 0.000480109)
(0.000150141 -8.12052e-05 0.000756825)
(0.000169693 5.77059e-05 0.000735993)
(0.000263805 -0.000172413 0.000660244)
(-9.34691e-06 -0.000221381 0.000526424)
(-4.96307e-06 -7.2743e-05 0.000588837)
(0.000189396 -0.00026279 0.000789851)
(8.23088e-05 -9.19198e-05 0.000748522)
(0.000119037 -2.16937e-05 0.000644837)
(0.000128078 9.97295e-05 0.000700252)
(-5.22018e-05 -8.685e-05 0.000780883)
(-1.7662e-05 1.55277e-05 0.00094014)
(-0.000135468 -9.3524e-05 0.000368929)
(-5.72327e-05 -3.77826e-05 0.000744935)
(-0.000145841 4.91362e-05 0.00083536)
(-0.000242816 6.01122e-05 0.00115312)
(-8.51215e-05 -8.80559e-05 0.000275495)
(-6.52081e-05 4.01903e-05 0.000819679)
(-0.000535043 8.65095e-05 0.000740916)
(-0.000499109 0.000290966 0.00107422)
(0 0 0)
(0 0 0)
(0 0 0)
(0 0 0)
(0 0 0)
(0 0 0)
(0 0 0)
(0 0 0)
(0 0 0)
(0 0 0)
(0 0 0)
(0 0 0)
(0 0 0)
(0 0 0)
(0 0 0)
(0 0 0)
(0 0 0)
(0 0 0)
(0 0 0)
(0 0 0)
(0 0 0)
(0 0 0)
(0 0 0)
(0 0 0)
(0 0 0)
(0 0 0)
(0 0 0)
(0 0 0)
(0 0 0)
(0 0 0)
(0 0 0)
(0 0 0)
(0 0 0)
(0 0 0)
(0 0 0)
(0 0 0)
(0 0 0)
(0 0 0)
(0 0 0)
(0 0 0)
(0 0 0)
(0 0 0)
(0 0 0)
(0 0 0)
(0 0 0)
(0 0 0)
(0 0 0)
(0 0 0)
(0 0 0)
(0 0 0)
(0 0 0)
(0 0 0)
(0 0 0)
(0 0 0)
(0 0 0)
(0 0 0)
(0 0 0)
(0 0 0)
(0 0 0)
(0 0 0)
(0 0 0)
(0 0 0)
(0 0 0)
(0 0 0)
(0 0 0)
(0 0 0)
(0 0 0)
(0 0 0)
)
;
    }
}


// ************************************************************************* //
