FoamFile
{version 2.0; format ascii;class Cloud<passiveParticle>; location 0;object  positions;}
2511
(
( 0.00589034 1.89989e-06 0.000496497 ) 0 
( 0.00232181 0.00020264 0.000498932 ) 0 
( 0.00114139 0.000119183 0.0070147 ) 0 
( 0.00902271 1.75005e-05 0.00564562 ) 0 
( 0.00927391 0.000139551 0.00468698 ) 0 
( 0.0124783 5.10789e-05 0.000498277 ) 0 
( 0.000889962 0.000650874 0.0015049 ) 0 
( 0.0068274 0.000179796 0.00180711 ) 0 
( 0.0099805 0.000161634 0.00539778 ) 0 
( 0.00919211 0.00031209 0.0105073 ) 0 
( 0.0123909 0.000212217 0.0142868 ) 0 
( 0.00115509 0.000108132 0.0138175 ) 0 
( 0.00255333 0.000498299 0.0146394 ) 0 
( 0.00574007 0.00136486 0.0146979 ) 0 
( 0.00664821 0.00102918 0.0144487 ) 0 
( 0.00892487 0.000259832 0.0133516 ) 0 
( 0.00946237 0.000506902 0.0145776 ) 0 
( 0.0113692 8.42082e-05 0.0129935 ) 0 
( 0.0133362 0.000612499 0.00796351 ) 0 
( 0.00462119 0.000716374 0.0147868 ) 0 
( 0.00940595 0.00186344 0.0145906 ) 0 
( 0.0100235 0.000402718 0.0110544 ) 0 
( 0.00790192 5.78037e-05 0.00910501 ) 0 
( 0.00798161 0.00664158 0.0159888 ) 0 
( 0.00354057 0.0077979 0.0156765 ) 0 
( 0.0085643 0.000187283 0.0148935 ) 0 
( 0.00202942 0.000785272 0.0129339 ) 0 
( 0.00214436 0.000240964 0.0137644 ) 0 
( 0.0119347 0.00106315 0.0140272 ) 0 
( 0.0114458 0.000327734 0.0147748 ) 0 
( 0.0104883 4.4017e-05 0.0144717 ) 0 
( 0.00236703 0.000171191 0.00900322 ) 0 
( 0.00347197 0.00374296 0.00260069 ) 0 
( 0.00174296 0.00543748 0.00788188 ) 0 
( 0.000223939 0.0127746 0.00563958 ) 0 
( 0.00708132 0.00504439 0.00213919 ) 0 
( 0.00678838 0.00474184 0.00526133 ) 0 
( 0.00896678 0.00551874 0.00667939 ) 0 
( 0.000329318 0.0133127 0.00352056 ) 0 
( 0.00616814 0.00339921 0.00424661 ) 0 
( 0.00548867 0.0121463 0.00460886 ) 0 
( 0.0103044 0.00530491 0.00557476 ) 0 
( 0.000906586 0.00735207 0.00446005 ) 0 
( 0.00713124 0.0103257 0.000499206 ) 0 
( 0.00635482 0.00976908 0.00162712 ) 0 
( 0.00223443 0.0122929 0.00395078 ) 0 
( 0.00188581 0.00315246 0.000498127 ) 0 
( 0.00442234 0.00760219 0.0018996 ) 0 
( 0.0107329 0.00371433 0.00376642 ) 0 
( 0.0112992 0.00536577 0.00562247 ) 0 
( 0.00473103 0.0033472 0.00404778 ) 0 
( 0.0082549 0.00272597 0.00671368 ) 0 
( 0.00874153 0.00267862 0.0047981 ) 0 
( 0.00261765 0.0100648 0.00622441 ) 0 
( 0.00724548 0.00683458 0.00118356 ) 0 
( 0.00670734 0.00468909 0.00406387 ) 0 
( 0.00551063 0.00765624 0.00319513 ) 0 
( 0.0037393 0.0128159 0.00567896 ) 0 
( 0.00251505 0.00796427 0.00304848 ) 0 
( 0.0116739 0.0043686 0.000497116 ) 0 
( 0.00112643 0.0022646 0.00321872 ) 0 
( 0.00529193 0.0068747 0.0045133 ) 0 
( 0.0109994 0.00372527 0.000857638 ) 0 
( 0.00933695 0.00222571 0.00413661 ) 0 
( 0.00275464 0.00148412 0.00621279 ) 0 
( 0.00684101 0.000173794 0.00830097 ) 0 
( 0.000902535 0.0060931 0.00468323 ) 0 
( 0.00184534 0.00812998 0.00777605 ) 0 
( 0.00154681 0.00797255 0.00280201 ) 0 
( 0.00905269 0.00979591 0.00418364 ) 0 
( 0.0128485 0.00362855 0.00653132 ) 0 
( 0.00256133 0.00710182 0.00132037 ) 0 
( 0.00993556 0.00322675 0.0054077 ) 0 
( 0.00277943 0.000671789 0.0012601 ) 0 
( 0.00719276 0.00570985 0.00567986 ) 0 
( 0.00579359 0.00469237 0.00565256 ) 0 
( 0.000748776 0.000337967 0.00244409 ) 0 
( 0.00121252 0.00588617 0.00560943 ) 0 
( 0.00874366 0.00128875 0.00682936 ) 0 
( 0.00139213 0.0118912 0.00430791 ) 0 
( 0.00295405 0.00800349 0.00394578 ) 0 
( 0.00746281 0.00212587 0.00543811 ) 0 
( 0.00901081 0.00985187 0.00766203 ) 0 
( 0.0121263 0.00412567 0.00220711 ) 0 
( 0.00570696 0.00823965 0.00643871 ) 0 
( 0.00292555 0.00707267 0.00285929 ) 0 
( 0.00806817 0.000569777 0.00715837 ) 0 
( 0.0100129 0.00527509 0.00311365 ) 0 
( 0.000352661 0.00376021 0.00616496 ) 0 
( 0.0027436 0.00101277 0.00533168 ) 0 
( 0.00396647 0.0101181 0.00316387 ) 0 
( 0.00357214 0.00215737 0.00193998 ) 0 
( 0.00580958 0.00507971 0.0035817 ) 0 
( 0.00827301 0.00136924 0.00772059 ) 0 
( 0.00313434 0.0124209 0.00498845 ) 0 
( 0.00133717 0.00885732 0.00321792 ) 0 
( 0.000927633 0.0123491 0.00506484 ) 0 
( 0.00583667 0.00412223 0.00306957 ) 0 
( 0.00774861 0.00290342 0.00487882 ) 0 
( 0.00188676 0.00998971 0.000499437 ) 0 
( 0.00906867 0.00849482 0.00400993 ) 0 
( 0.00491462 0.00496378 0.00798402 ) 0 
( 0.0093599 6.06638e-05 0.00232271 ) 0 
( 0.0047735 0.00724629 0.00697239 ) 0 
( 0.00223688 0.00522997 0.0070384 ) 0 
( 0.0102119 0.00851819 0.00373303 ) 0 
( 0.00473562 0.00120952 0.0058716 ) 0 
( 0.00694164 0.00362871 0.0074221 ) 0 
( 0.0069561 0.00669377 0.00414522 ) 0 
( 0.000771112 0.00775093 0.00640552 ) 0 
( 0.00641708 0.00641804 0.00206961 ) 0 
( 0.000659184 0.00288023 0.00258656 ) 0 
( 0.0118743 0.00610572 0.00596681 ) 0 
( 0.000937367 0.00127748 0.00469173 ) 0 
( 0.00709691 0.0102216 0.00708628 ) 0 
( 0.0010578 0.00295138 0.00167475 ) 0 
( 0.00798537 0.0106989 0.00205083 ) 0 
( 0.00457166 0.00343554 0.00590131 ) 0 
( 0.00364378 0.0114127 0.00703469 ) 0 
( 0.0111057 0.00130758 0.00432131 ) 0 
( 0.000762141 0.0133287 0.000499092 ) 0 
( 0.00219251 0.000660467 0.00608768 ) 0 
( 0.000508216 0.00912874 0.00272931 ) 0 
( 0.00673489 0.000701416 0.000498919 ) 0 
( 0.00499107 0.00197511 0.00645987 ) 0 
( 0.00336976 0.00512473 0.00128889 ) 0 
( 0.000909014 0.00457798 0.00603185 ) 0 
( 0.000910083 0.00339286 0.000497593 ) 0 
( 0.011467 0.00291193 0.000499074 ) 0 
( 0.0047276 0.0115117 0.00592934 ) 0 
( 0.00320217 0.00567612 0.00718289 ) 0 
( 0.00271346 0.00115776 0.00307035 ) 0 
( 0.00840587 0.00248425 0.00132131 ) 0 
( 0.00646328 0.00667455 0.00573008 ) 0 
( 0.0122649 0.0052742 0.00369167 ) 0 
( 0.00248234 0.0113933 0.00293869 ) 0 
( 0.00456454 0.00112833 0.00219112 ) 0 
( 0.00260045 0.0112106 0.000496712 ) 0 
( 0.0123497 0.0050718 0.00466619 ) 0 
( 0.000878178 0.00795919 0.00201869 ) 0 
( 0.00455855 0.00913859 0.00497153 ) 0 
( 0.00268247 0.00545356 0.00441154 ) 0 
( 0.00324932 0.00938154 0.00304425 ) 0 
( 0.00488528 0.00942795 0.00255385 ) 0 
( 0.00368784 0.00961701 0.00506905 ) 0 
( 0.00315598 0.00434436 0.00187109 ) 0 
( 0.00640665 0.0107437 0.00545579 ) 0 
( 0.0110899 0.00742073 0.00478724 ) 0 
( 0.00711272 0.00104183 0.00222209 ) 0 
( 0.00706806 0.00853634 0.00385554 ) 0 
( 0.0108984 0.00532333 0.00138991 ) 0 
( 0.00942663 0.0081762 0.00488552 ) 0 
( 0.0129444 0.00327342 0.00239336 ) 0 
( 0.000431151 0.00900632 0.00371722 ) 0 
( 0.00392251 0.0127028 0.000498537 ) 0 
( 0.00874047 0.0100825 0.00226413 ) 0 
( 0.00200149 0.00907707 0.00120117 ) 0 
( 0.00613612 0.00537641 0.00456846 ) 0 
( 0.0068319 0.00383014 0.00485503 ) 0 
( 0.00792313 0.00723884 0.00206483 ) 0 
( 0.000394423 0.0106942 0.00658445 ) 0 
( 3.56761e-05 0.00172561 0.0062657 ) 0 
( 0.0124335 0.00432517 0.00532403 ) 0 
( 0.0104369 0.00189699 0.0014529 ) 0 
( 0.0120017 0.000869008 0.00081425 ) 0 
( 0.0111719 0.00195819 0.000498792 ) 0 
( 0.00557548 0.00081712 0.00721962 ) 0 
( 0.00877253 0.00043814 0.00387512 ) 0 
( 0.0100071 0.00201941 0.00234538 ) 0 
( 0.00176537 0.0078411 0.00653645 ) 0 
( 0.00810227 0.00869078 0.00359848 ) 0 
( 0.00863816 0.00635422 0.00233139 ) 0 
( 0.00652362 0.00279515 0.00595752 ) 0 
( 0.0059767 0.00399904 0.00149526 ) 0 
( 0.000710308 0.00313444 0.00547491 ) 0 
( 0.00860123 0.00446543 0.00506908 ) 0 
( 0.00227284 0.0123074 0.000505975 ) 0 
( 0.0122165 0.00455532 0.00131187 ) 0 
( 0.00625693 0.00343352 0.00667769 ) 0 
( 0.00458058 0.00806206 0.00751632 ) 0 
( 0.00891988 0.00751822 0.00416382 ) 0 
( 0.00607314 0.00221457 0.00393131 ) 0 
( 0.000984723 0.00417092 0.00418576 ) 0 
( 0.0105054 0.00675235 0.00267537 ) 0 
( 0.00402456 0.00362649 0.00693637 ) 0 
( 0.000283208 0.00452137 0.00680963 ) 0 
( 0.00359496 0.00540546 0.00365123 ) 0 
( 0.0119737 0.00117297 0.00384545 ) 0 
( 0.00220515 0.00138549 0.0043932 ) 0 
( 0.0085459 0.00898763 0.0016849 ) 0 
( 0.00315336 0.0109098 0.00373981 ) 0 
( 0.00235807 0.0122306 0.0064478 ) 0 
( 0.0103884 0.00838687 0.00141667 ) 0 
( 0.00268845 0.00415663 0.00306252 ) 0 
( 0.000729971 0.0119586 0.00299762 ) 0 
( 0.00161082 0.00616226 0.00311962 ) 0 
( 0.00371346 0.00278818 0.0027591 ) 0 
( 0.00511134 0.000135833 0.0055973 ) 0 
( 0.00645284 0.000296245 0.00725128 ) 0 
( 0.00754972 0.000694874 0.00134586 ) 0 
( 0.0100079 0.00532449 0.000498511 ) 0 
( 0.00650275 0.00484624 0.00134841 ) 0 
( 0.00177646 0.0123513 0.00144634 ) 0 
( 0.00631587 0.0117641 0.00238301 ) 0 
( 0.00434215 0.00876189 0.00310269 ) 0 
( 0.00514285 0.0113768 0.00375505 ) 0 
( 0.00315768 0.0103995 0.00461935 ) 0 
( 0.00300377 0.0111367 0.0019761 ) 0 
( 0.00386973 0.00600854 0.00651732 ) 0 
( 0.0098631 0.0070686 0.00597513 ) 0 
( 0.00459968 0.00303314 0.00498719 ) 0 
( 0.00322068 0.0119928 0.000499433 ) 0 
( 0.00267809 0.00422171 0.00405955 ) 0 
( 0.00465441 0.00955724 0.00362139 ) 0 
( 0.00395256 0.00352021 0.00344697 ) 0 
( 0.00944763 0.00100772 0.0056921 ) 0 
( 0.00398828 0.0108751 0.00433131 ) 0 
( 0.00476523 0.00436129 0.000498384 ) 0 
( 0.00341564 0.00839624 0.00302223 ) 0 
( 0.00340798 0.00775137 0.0022559 ) 0 
( 0.00809728 0.00523657 0.00723118 ) 0 
( 0.00738087 0.008397 0.00670117 ) 0 
( 0.00283212 0.00237581 0.00442589 ) 0 
( 0.000244197 0.00159397 0.00749534 ) 0 
( 0.00701855 0.00831899 0.00567695 ) 0 
( 0.00926033 0.00961816 0.00514422 ) 0 
( 0.010721 0.00081008 0.00694798 ) 0 
( 0.00408061 0.00281616 0.00751787 ) 0 
( 0.0109004 0.0027091 0.00668492 ) 0 
( 0.00399202 0.0110299 0.00207434 ) 0 
( 0.00566708 0.00014753 0.0037919 ) 0 
( 0.00803311 0.00976105 0.00108097 ) 0 
( 0.00683469 0.008911 0.00192334 ) 0 
( 0.00511045 0.0056749 0.00133631 ) 0 
( 0.0069549 0.00229574 0.00440348 ) 0 
( 0.00303003 0.00174865 0.00120634 ) 0 
( 0.000256794 0.00655648 0.00407973 ) 0 
( 0.00358016 0.0119604 0.00165607 ) 0 
( 0.00329187 0.003894 0.00764361 ) 0 
( 0.0106533 0.00632817 0.00743891 ) 0 
( 0.00480475 0.00563438 0.00228644 ) 0 
( 0.00317973 0.00057431 0.00621857 ) 0 
( 0.000538541 0.00262614 0.0063379 ) 0 
( 0.0120211 0.003745 0.00456561 ) 0 
( 0.00891455 0.00735174 0.00514964 ) 0 
( 0.00528498 0.00675178 0.00253016 ) 0 
( 0.0100694 0.0024731 0.00476815 ) 0 
( 0.00749166 0.00751629 0.000496334 ) 0 
( 0.00195161 0.00802041 0.00395752 ) 0 
( 0.0114656 5.99996e-05 0.00145876 ) 0 
( 0.00160123 0.00348346 0.0045635 ) 0 
( 0.00636679 0.00802513 0.00497833 ) 0 
( 0.00359955 0.00131215 0.00263384 ) 0 
( 0.00816489 0.00432298 0.00683328 ) 0 
( 0.013318 0.000935761 0.0042089 ) 0 
( 0.00279404 0.0130569 0.00217994 ) 0 
( 0.0105136 0.00372417 0.00476216 ) 0 
( 0.0097515 0.00430648 0.000498336 ) 0 
( 0.00443104 0.00534691 0.0071979 ) 0 
( 0.00949754 0.00883662 0.00142517 ) 0 
( 0.00672905 0.0050113 0.00622157 ) 0 
( 0.0106561 0.00628893 0.00147942 ) 0 
( 0.00440772 0.00386559 0.00152563 ) 0 
( 0.00193005 0.0070515 0.00279468 ) 0 
( 0.00301443 0.00468748 0.00495729 ) 0 
( 0.01335 5.4902e-05 0.00136232 ) 0 
( 0.0051694 0.00357075 0.000951935 ) 0 
( 0.00604597 0.00835755 0.00218726 ) 0 
( 0.00555336 0.0121402 0.00560645 ) 0 
( 0.00111065 0.00928008 0.00194778 ) 0 
( 0.00924992 0.00922946 0.00235126 ) 0 
( 0.0021541 0.0107867 0.00365763 ) 0 
( 0.00201265 0.0113059 0.00616512 ) 0 
( 0.00449296 0.0116236 0.00142585 ) 0 
( 0.0017822 0.00504471 0.00616751 ) 0 
( 0.00800831 0.0079497 0.00426296 ) 0 
( 0.00125874 0.00997814 0.00477795 ) 0 
( 0.0031206 0.00726814 0.00468721 ) 0 
( 0.00167666 0.000750092 0.00523646 ) 0 
( 0.0133507 9.7053e-05 0.00551342 ) 0 
( 0.00351677 0.000587965 0.00194908 ) 0 
( 0.0118727 0.00179544 0.0018715 ) 0 
( 0.0104418 6.13857e-05 0.00310274 ) 0 
( 0.00231759 0.00043031 0.0036276 ) 0 
( 0.00726946 0.00764866 0.00337289 ) 0 
( 0.00866527 0.00812785 0.00217927 ) 0 
( 0.011242 0.00526305 0.00374919 ) 0 
( 0.00400354 0.00792273 0.00367659 ) 0 
( 0.00450284 0.0119637 0.00300212 ) 0 
( 0.00988441 0.000389656 0.00729719 ) 0 
( 0.00965518 0.00800958 0.00233152 ) 0 
( 0.00429438 0.00627868 0.000497712 ) 0 
( 0.00401776 0.00902556 0.00580288 ) 0 
( 0.0111436 0.00449674 0.0048397 ) 0 
( 0.01334 0.00055399 0.000498264 ) 0 
( 0.00177591 0.00547479 0.00382651 ) 0 
( 0.00795253 0.00519062 0.00529502 ) 0 
( 4.21059e-05 0.00401073 0.00447478 ) 0 
( 0.00167919 0.00336407 0.00555226 ) 0 
( 0.000394118 0.00131774 0.00207908 ) 0 
( 0.000648702 0.0115585 0.000499776 ) 0 
( 0.00505254 0.00841168 0.00374189 ) 0 
( 0.0100351 0.00342752 0.00308001 ) 0 
( 0.000410502 0.0121928 0.00643025 ) 0 
( 0.00862519 0.00906014 0.000499792 ) 0 
( 0.00870088 0.000452183 0.00140564 ) 0 
( 0.00222955 0.0018436 0.0069832 ) 0 
( 0.00759693 0.00859169 0.00490841 ) 0 
( 0.00180552 0.00394739 0.00365356 ) 0 
( 0.000144704 0.00958043 0.00542309 ) 0 
( 0.00126272 0.00330484 0.00645904 ) 0 
( 0.00393001 0.00515542 0.00212878 ) 0 
( 0.000905866 0.000959508 0.0078927 ) 0 
( 0.00318254 0.00663529 0.00614928 ) 0 
( 0.00177679 0.0132237 0.005357 ) 0 
( 0.00705397 0.0076666 0.00434844 ) 0 
( 0.0064863 0.00099849 0.00584077 ) 0 
( 0.00250912 0.00378075 0.00136209 ) 0 
( 0.00817212 0.00601169 0.00632233 ) 0 
( 0.00560921 0.0017525 0.00469477 ) 0 
( 0.00102026 0.0106408 0.00548492 ) 0 
( 0.00770719 0.00130839 0.00486801 ) 0 
( 0.00573867 0.00303081 0.00156631 ) 0 
( 0.00652584 0.00181905 0.00527237 ) 0 
( 0.00222241 0.0104989 0.00703172 ) 0 
( 0.00202009 0.00265694 0.00493468 ) 0 
( 0.011048 0.00749509 0.00713555 ) 0 
( 0.00698843 0.00200787 0.00200969 ) 0 
( 6.69394e-05 0.00500534 0.00793683 ) 0 
( 0.00201445 0.0099425 0.00543044 ) 0 
( 0.00737483 0.0107437 0.00385431 ) 0 
( 0.00166078 0.000837589 0.000896929 ) 0 
( 0.000809562 0.00583388 0.000499779 ) 0 
( 0.00104932 0.00162932 0.0013788 ) 0 
( 0.00736594 0.00276195 0.00254474 ) 0 
( 0.00127915 0.00914769 0.0042251 ) 0 
( 0.00110833 0.00962981 0.00101257 ) 0 
( 0.00813245 0.00125218 0.00332657 ) 0 
( 0.00754967 0.00018714 0.00249485 ) 0 
( 0.00554683 0.005868 0.00295388 ) 0 
( 0.0122738 0.00186008 0.00310406 ) 0 
( 0.00403459 0.0020529 0.00673837 ) 0 
( 0.00278643 0.00127883 0.00205315 ) 0 
( 0.00221401 0.00694 0.00636233 ) 0 
( 0.012864 0.0019624 0.00580706 ) 0 
( 0.0036512 0.0114438 0.0029638 ) 0 
( 0.0112842 0.00344443 0.0053567 ) 0 
( 0.0100373 0.000306333 0.000498013 ) 0 
( 0.000187466 0.00252583 0.00385288 ) 0 
( 0.00123755 0.0107503 0.000499777 ) 0 
( 0.00182851 0.0092622 0.00613887 ) 0 
( 0.00642693 0.00119647 0.00681845 ) 0 
( 0.00728595 0.00600311 0.00233915 ) 0 
( 0.00223732 0.00897483 0.00400609 ) 0 
( 0.012024 0.0030264 0.00379629 ) 0 
( 0.00331563 0.00936537 0.0064289 ) 0 
( 0.00105427 0.00188349 0.00677558 ) 0 
( 0.00709428 0.00694752 0.00260371 ) 0 
( 0.00727336 0.0107637 0.00286145 ) 0 
( 0.00550365 0.000928004 0.000499432 ) 0 
( 0.00289608 0.00744743 0.00564303 ) 0 
( 0.00496943 0.00760118 0.0060586 ) 0 
( 0.00585956 0.00175765 0.00601517 ) 0 
( 0.00502388 0.0123693 0.00375242 ) 0 
( 0.00355073 0.00395936 0.00102078 ) 0 
( 0.00186151 0.00735713 0.000498547 ) 0 
( 0.00722598 0.00314576 0.00659547 ) 0 
( 0.00776511 0.00171211 0.00134899 ) 0 
( 0.00275445 0.0120636 0.00225237 ) 0 
( 0.00437678 0.00514326 0.00622134 ) 0 
( 0.00469071 0.00289043 0.00672965 ) 0 
( 0.00462322 0.00981516 0.000605395 ) 0 
( 0.00890909 0.00722758 0.00182221 ) 0 
( 0.0021778 0.0102464 0.00449479 ) 0 
( 0.00462301 0.00186905 0.00512879 ) 0 
( 0.00262148 0.00505765 0.00349423 ) 0 
( 0.00329194 0.0117458 0.00426904 ) 0 
( 0.0107647 0.00385811 0.00228738 ) 0 
( 0.00136282 0.00731119 0.00357314 ) 0 
( 0.00517283 0.00193296 0.00209041 ) 0 
( 0.0128866 0.00264731 0.00317061 ) 0 
( 0.00711798 0.0112957 0.000736232 ) 0 
( 0.010217 0.000730536 0.00239583 ) 0 
( 0.00541536 0.00669685 0.00351833 ) 0 
( 0.0114206 0.00424132 0.00293564 ) 0 
( 0.00725957 0.00928084 0.00554892 ) 0 
( 0.000135254 0.003655 0.00347634 ) 0 
( 0.00622639 0.00659829 0.000617909 ) 0 
( 0.00459891 0.0081055 0.00527935 ) 0 
( 0.00645624 0.0116279 0.00140616 ) 0 
( 0.00439012 0.00138562 0.00428604 ) 0 
( 0.00474625 0.00291692 0.00157854 ) 0 
( 0.00724246 0.00417504 0.000499701 ) 0 
( 0.0034349 0.00628655 0.00320698 ) 0 
( 0.00245705 0.00506046 0.00179382 ) 0 
( 0.0120433 0.00264183 0.00136733 ) 0 
( 0.00366591 0.00954431 0.000498747 ) 0 
( 0.00193972 0.00899655 0.00496034 ) 0 
( 0.00560574 0.0104346 0.00695173 ) 0 
( 0.000857587 0.000297027 0.00488569 ) 0 
( 0.00140115 0.00351361 0.0075451 ) 0 
( 0.00355331 0.00479501 0.00687282 ) 0 
( 0.0115803 0.00442943 0.00583311 ) 0 
( 0.00337477 0.00624708 0.0042038 ) 0 
( 0.00574444 0.00186622 0.00710772 ) 0 
( 0.0022632 0.000560277 0.00763754 ) 0 
( 0.00788559 0.0107466 0.00572597 ) 0 
( 0.00264135 0.00990754 0.00132987 ) 0 
( 0.0016013 0.00175221 0.000499471 ) 0 
( 0.00821298 0.00503116 0.00434553 ) 0 
( 0.00382769 0.00797258 0.00465829 ) 0 
( 0.0030001 6.18268e-06 0.00725407 ) 0 
( 0.00273163 0.00476524 0.0063046 ) 0 
( 0.0118541 0.00164752 0.00553465 ) 0 
( 0.00620039 0.0056035 0.00561712 ) 0 
( 0.00275205 0.00321677 0.00214913 ) 0 
( 0.00642587 0.00192148 0.00304346 ) 0 
( 0.0051672 0.0122243 0.00185534 ) 0 
( 0.00871004 0.00296195 0.000498888 ) 0 
( 0.00344823 0.00574269 0.000499778 ) 0 
( 0.0069445 0.00513447 0.000499469 ) 0 
( 0.000956386 0.0108412 0.00249903 ) 0 
( 0.00522845 0.00498376 0.00671743 ) 0 
( 0.00602476 0.0108471 0.00211133 ) 0 
( 0.00291902 0.00482203 0.00764431 ) 0 
( 0.00182722 0.00470334 0.00300092 ) 0 
( 0.0117038 0.00519646 0.00286879 ) 0 
( 0.00489063 0.00381967 0.00317289 ) 0 
( 0.00979318 0.00266082 0.00144662 ) 0 
( 0.0020542 0.00161915 0.00138073 ) 0 
( 0.00641821 0.0075065 0.00766898 ) 0 
( 0.00867814 0.00486382 0.00598229 ) 0 
( 0.005767 0.00547425 0.00206179 ) 0 
( 0.0041178 0.0119007 0.0052398 ) 0 
( 0.00844808 0.00587599 0.00386928 ) 0 
( 0.00932467 0.00409509 0.00137664 ) 0 
( 0.00265743 0.00935291 0.000499119 ) 0 
( 0.00954382 0.00157132 0.00341217 ) 0 
( 0.0115121 0.00431875 0.0039275 ) 0 
( 0.00431443 0.00200885 0.00259275 ) 0 
( 0.00344412 0.00069043 0.00356617 ) 0 
( 0.00540181 0.0112054 0.00138776 ) 0 
( 0.00462383 9.8221e-05 0.00750789 ) 0 
( 0.00853638 0.0102643 0.0063094 ) 0 
( 0.00652545 0.00816637 0.00133254 ) 0 
( 0.00641624 0.00807249 0.00307029 ) 0 
( 0.00238205 0.00998277 0.00290774 ) 0 
( 0.000613598 0.000986381 0.00679131 ) 0 
( 0.00822866 0.0105145 0.00300394 ) 0 
( 0.00801392 3.45199e-05 0.00336489 ) 0 
( 0.00270088 0.00925217 0.00565021 ) 0 
( 0.00485088 0.00438349 0.00576279 ) 0 
( 0.00702716 0.00839893 0.000498236 ) 0 
( 0.00395478 0.00106291 0.00662025 ) 0 
( 0.00132341 0.00704613 0.00183323 ) 0 
( 0.000993729 0.00895934 0.00659822 ) 0 
( 0.00348609 0.00264721 0.00372156 ) 0 
( 0.00434529 0.00881127 0.000499684 ) 0 
( 0.00348482 0.00748212 0.00127052 ) 0 
( 0.00971408 0.00134348 0.00659597 ) 0 
( 0.0119699 0.00358353 0.00103981 ) 0 
( 0.0113236 0.00658757 0.00528828 ) 0 
( 0.0020922 0.0122285 0.00493635 ) 0 
( 0.00662799 0.00562989 0.00373595 ) 0 
( 0.0113343 0.00128955 0.00308905 ) 0 
( 0.00656753 0.0105401 0.00440563 ) 0 
( 0.000279874 0.00242972 0.00132655 ) 0 
( 0.0044036 0.0108168 0.00657526 ) 0 
( 0.00878624 0.00181776 0.00281053 ) 0 
( 0.0131493 0.00231036 0.000655429 ) 0 
( 0.00237666 5.63515e-05 0.00505163 ) 0 
( 0.0126719 0.00420523 0.000497651 ) 0 
( 0.0128053 0.00378267 0.00154594 ) 0 
( 0.00648631 0.00934312 0.00375412 ) 0 
( 0.00804401 0.00210067 0.00436441 ) 0 
( 0.00986564 0.0056822 0.00141924 ) 0 
( 0.00428957 0.00526097 0.00440586 ) 0 
( 0.00590708 0.00274825 0.000498122 ) 0 
( 0.0049661 0.00626641 0.00701192 ) 0 
( 0.00689796 0.00471433 0.00306688 ) 0 
( 0.00820453 0.00322713 0.00405149 ) 0 
( 0.0100514 0.00711327 0.00498543 ) 0 
( 0.00900679 0.00633771 0.00138232 ) 0 
( 0.00106061 0.00532831 0.00314361 ) 0 
( 0.00541555 0.00749554 0.00187641 ) 0 
( 0.00434028 0.00246395 0.00588013 ) 0 
( 0.00725746 0.00570013 0.00138734 ) 0 
( 0.00153742 0.013262 0.00438704 ) 0 
( 0.00700291 0.011367 0.00595964 ) 0 
( 0.00500126 0.00526163 0.00531201 ) 0 
( 0.00571023 0.00459131 0.00750761 ) 0 
( 0.00642114 0.0090691 0.000920468 ) 0 
( 0.00540819 0.0024195 0.00541182 ) 0 
( 0.00549006 0.0118361 0.00293853 ) 0 
( 0.00157317 0.0115767 0.00337544 ) 0 
( 0.00155973 0.000638214 0.00424371 ) 0 
( 0.00958936 0.0033556 0.000758146 ) 0 
( 0.0119976 0.00270618 0.00489542 ) 0 
( 0.00873823 0.00142827 0.00409931 ) 0 
( 0.00732608 0.00925652 0.0072066 ) 0 
( 0.00985987 0.0040811 0.00408343 ) 0 
( 0.00984937 0.00465296 0.00618118 ) 0 
( 0.0128203 0.00372595 0.00327386 ) 0 
( 0.0108527 0.00253466 0.0057028 ) 0 
( 0.0127422 0.00320903 0.000499137 ) 0 
( 0.00879267 0.00781165 0.00603816 ) 0 
( 0.0114935 0.000822913 0.00510284 ) 0 
( 6.61594e-05 0.00450764 0.00178649 ) 0 
( 0.00162875 0.0103856 0.00623642 ) 0 
( 0.000118685 0.00506232 0.000499704 ) 0 
( 0.00886888 0.00672525 0.00355724 ) 0 
( 0.00304376 0.0122002 0.00717469 ) 0 
( 0.000947202 0.00802458 0.00735055 ) 0 
( 0.00356823 0.0102872 0.00672025 ) 0 
( 0.00846343 0.00102996 0.00586135 ) 0 
( 0.00392715 0.00704905 0.00273964 ) 0 
( 0.00690691 0.00785346 0.00222803 ) 0 
( 0.00844185 0.00350239 0.00527599 ) 0 
( 0.0107582 0.00498294 0.00238317 ) 0 
( 0.00614574 0.00727701 0.00252258 ) 0 
( 0.00993966 0.00190524 0.00558122 ) 0 
( 0.010903 0.00142885 0.00220064 ) 0 
( 0.0124395 0.000441391 0.00673742 ) 0 
( 8.90063e-05 0.00235199 0.00548802 ) 0 
( 0.000731309 0.0126165 0.00411513 ) 0 
( 0.00401547 0.00176839 0.00775918 ) 0 
( 0.00475772 0.00132001 0.00317015 ) 0 
( 0.00169009 0.000437573 0.00276598 ) 0 
( 0.00417783 0.00795058 0.0065582 ) 0 
( 0.00123897 0.00525054 0.00698074 ) 0 
( 0.00603742 0.000561414 0.00462119 ) 0 
( 0.0132911 0.00126116 0.00650448 ) 0 
( 0.00973794 0.00635216 0.00323419 ) 0 
( 0.00308523 0.00582433 0.00193822 ) 0 
( 0.00751212 0.00473968 0.00128929 ) 0 
( 0.0092396 0.00480466 0.00437927 ) 0 
( 0.00800099 0.00540281 0.00198374 ) 0 
( 0.00384396 0.00835654 0.00159158 ) 0 
( 0.00408847 0.0127085 0.00365761 ) 0 
( 0.0103255 0.00846217 0.00720907 ) 0 
( 0.0132528 0.00160866 0.00136017 ) 0 
( 0.0017061 0.00982229 0.00362514 ) 0 
( 0.00668014 0.0030786 0.00189172 ) 0 
( 0.00205753 0.00640338 0.00204764 ) 0 
( 0.00544232 0.00671692 0.00574672 ) 0 
( 0.00188736 0.0132173 0.00256461 ) 0 
( 0.000113125 0.00183116 0.00458877 ) 0 
( 0.000755885 0.00654086 0.00763904 ) 0 
( 0.00867742 0.00660465 0.00452878 ) 0 
( 0.0035639 0.00654817 0.00522961 ) 0 
( 4.14911e-05 0.00068101 0.00584548 ) 0 
( 0.00228715 0.00767102 0.00209529 ) 0 
( 0.00361001 0.0101445 0.00129716 ) 0 
( 0.00473839 0.00769139 0.00435884 ) 0 
( 0.00126394 0.00683713 0.00597786 ) 0 
( 3.81364e-05 0.000842727 0.00471191 ) 0 
( 0.000243727 0.0124728 0.000498823 ) 0 
( 0.00583049 0.00865447 0.00553795 ) 0 
( 0.000104683 0.0117894 0.00554792 ) 0 
( 0.0102287 0.00360731 0.00148283 ) 0 
( 0.00142095 0.00815811 0.00479205 ) 0 
( 0.00152166 0.00972049 0.00697454 ) 0 
( 0.00202585 0.0107492 0.00233055 ) 0 
( 0.001264 0.00710282 0.00698306 ) 0 
( 0.0126252 0.000199406 0.0048337 ) 0 
( 0.0104031 0.00689524 0.00374491 ) 0 
( 0.00828856 0.00616641 0.00534213 ) 0 
( 0.00904829 0.00404378 0.0064176 ) 0 
( 0.0019636 0.000688381 0.00183761 ) 0 
( 0.000338041 0.00561287 0.00184352 ) 0 
( 0.00898703 0.00691608 0.000499778 ) 0 
( 0.000197255 0.0125643 0.00215793 ) 0 
( 0.00131648 0.00425859 0.0068856 ) 0 
( 0.00534305 0.00147348 0.00793468 ) 0 
( 0.0106536 0.00608765 0.000499597 ) 0 
( 0.00600849 0.0061378 0.00644029 ) 0 
( 0.000428714 0.0101506 0.000498686 ) 0 
( 0.0106536 0.00255023 0.00385903 ) 0 
( 0.0020695 0.0131899 0.00354531 ) 0 
( 0.0106251 0.00111364 0.000503488 ) 0 
( 0.00898479 0.00544246 0.00182199 ) 0 
( 0.00993201 0.00891056 0.00535832 ) 0 
( 0.000873293 0.00723394 0.00270581 ) 0 
( 0.00637135 0.00762814 0.00601424 ) 0 
( 0.0076333 0.00341246 0.00325305 ) 0 
( 0.0038032 0.00329484 0.00441199 ) 0 
( 0.00922746 0.000474685 0.00651031 ) 0 
( 0.00209295 0.0123208 0.00295642 ) 0 
( 0.00393854 0.00612626 0.00235987 ) 0 
( 0.0123502 0.00121422 0.00476927 ) 0 
( 0.00578533 0.0100916 0.00390282 ) 0 
( 0.000374154 0.0132084 0.00674998 ) 0 
( 0.010475 0.00590074 0.00373774 ) 0 
( 0.00420727 0.00880331 0.00410015 ) 0 
( 0.00398384 0.00787431 0.000499019 ) 0 
( 0.00278043 0.00947298 0.00467932 ) 0 
( 1.16558e-05 0.00927925 0.0064575 ) 0 
( 0.00141594 0.00568012 0.00148089 ) 0 
( 0.00750004 0.00787673 0.00142583 ) 0 
( 0.0106047 0.00811309 0.00631635 ) 0 
( 0.000183843 0.00203271 0.00298334 ) 0 
( 0.00136539 0.00244834 0.0058029 ) 0 
( 0.00893999 0.00567209 0.00477008 ) 0 
( 0.00685219 0.00839747 0.0075475 ) 0 
( 0.0042368 0.0117625 0.00394408 ) 0 
( 0.0131641 0.00222117 0.00230965 ) 0 
( 0.0099769 0.00759325 0.00317682 ) 0 
( 0.00176013 0.00480429 0.00112577 ) 0 
( 0.00665778 0.00703026 0.0068248 ) 0 
( 0.00480549 0.0114213 0.00469493 ) 0 
( 0.00822114 0.00700644 0.00587712 ) 0 
( 0.00405506 0.00697139 0.00446902 ) 0 
( 0.00601869 0.00439584 0.00472552 ) 0 
( 0.00539324 0.00272208 0.00445925 ) 0 
( 0.00336343 0.00225063 0.00601143 ) 0 
( 0.00602159 0.00820991 0.00397748 ) 0 
( 0.004916 0.0113467 0.00228565 ) 0 
( 0.00372518 0.00163155 0.000498852 ) 0 
( 0.00268244 0.000371329 0.00245557 ) 0 
( 0.00922864 0.00215689 0.000782827 ) 0 
( 0.00127569 0.0126604 0.00666984 ) 0 
( 0.00524014 0.000473464 0.00295119 ) 0 
( 0.00152425 0.00389542 0.0014682 ) 0 
( 0.00691752 0.00102028 0.00776038 ) 0 
( 0.00799595 0.00382655 0.00105691 ) 0 
( 0.00301921 0.0103049 0.000497665 ) 0 
( 0.00973898 0.00804762 0.00582479 ) 0 
( 0.00839392 0.00402813 0.00305126 ) 0 
( 0.0036786 0.00452398 0.00318723 ) 0 
( 0.000237175 0.0058736 0.00539502 ) 0 
( 0.00153385 0.00679131 0.00501619 ) 0 
( 0.0028593 0.00758775 0.000498938 ) 0 
( 0.00441402 0.00484109 0.00131458 ) 0 
( 0.00514419 0.0104508 0.00601252 ) 0 
( 0.00634886 0.00719021 0.00143838 ) 0 
( 0.00395967 0.000153094 0.00116533 ) 0 
( 0.00428013 0.0108391 0.00531499 ) 0 
( 0.000178698 0.0118297 0.00382179 ) 0 
( 0.0118254 0.00256379 0.00593043 ) 0 
( 0.00157827 0.00653693 0.000993743 ) 0 
( 0.000680175 0.00133407 0.000498489 ) 0 
( 0.000992957 0.0133155 0.00597194 ) 0 
( 0.0126115 0.000690111 0.00158564 ) 0 
( 0.00685052 0.00188964 0.00622332 ) 0 
( 0.00442778 0.00338671 0.00240151 ) 0 
( 0.00490263 0.0027228 0.000498583 ) 0 
( 0.00800686 0.00321933 0.00186692 ) 0 
( 0.0096043 0.00252741 0.0031311 ) 0 
( 0.013046 0.00281294 0.00151254 ) 0 
( 0.00674902 0.0115199 0.00324725 ) 0 
( 0.00917662 0.00499249 0.000943872 ) 0 
( 0.005029 0.000179573 0.00097158 ) 0 
( 0.009347 0.00645561 0.00525409 ) 0 
( 0.00909705 0.00315699 0.00594752 ) 0 
( 0.00978045 0.00112797 0.001429 ) 0 
( 0.00219045 0.00628162 0.00561112 ) 0 
( 0.00229337 0.0093908 0.00210806 ) 0 
( 0.0108586 0.00777111 0.00388084 ) 0 
( 0.00756399 0.00530009 0.00363669 ) 0 
( 0.0132487 0.00164705 0.00315376 ) 0 
( 0.00717967 0.00322912 0.0041257 ) 0 
( 0.00264198 0.0118093 0.00129395 ) 0 
( 0.00762667 0.00886056 0.00131718 ) 0 
( 0.0127797 0.00202968 0.00394962 ) 0 
( 0.00318925 0.0129631 0.00650989 ) 0 
( 0.00021206 0.00462407 0.00370498 ) 0 
( 0.0095388 0.000614629 0.00313179 ) 0 
( 0.00762393 0.0109597 0.0066666 ) 0 
( 0.00818368 0.00113119 0.00204433 ) 0 
( 0.00847144 0.00459337 0.00152939 ) 0 
( 0.00531182 0.00950786 0.00551145 ) 0 
( 0.000135818 0.00406185 0.0004983 ) 0 
( 0.00342146 0.012908 0.00294111 ) 0 
( 0.00272662 0.0130691 0.00563036 ) 0 
( 0.00463897 0.000551418 0.00379653 ) 0 
( 0.00615572 0.0117653 0.00631095 ) 0 
( 0.000544753 0.0037459 0.00135562 ) 0 
( 0.00510964 0.00584115 0.00611873 ) 0 
( 0.0040058 0.010592 0.000498537 ) 0 
( 0.00785091 0.00483705 0.00279345 ) 0 
( 0.000332818 0.0110997 0.00134965 ) 0 
( 0.00774577 0.00619727 0.00450408 ) 0 
( 0.000380114 0.0104517 0.00474166 ) 0 
( 0.0092299 0.00823576 0.000497268 ) 0 
( 0.00778066 0.00810108 0.00264343 ) 0 
( 0.00451539 0.0043831 0.00237407 ) 0 
( 0.0117851 0.00211332 0.00411895 ) 0 
( 0.00711982 0.00938061 0.00452489 ) 0 
( 0.0130198 0.00294903 0.00581955 ) 0 
( 0.00427322 0.00999076 0.0058437 ) 0 
( 0.0097759 0.00495617 0.00219899 ) 0 
( 0.00381218 0.00697178 0.0069645 ) 0 
( 0.011087 0.00741983 0.00578565 ) 0 
( 0.00773675 0.00415878 0.00206997 ) 0 
( 0.000236534 0.0093825 0.0014532 ) 0 
( 0.00948386 0.00939654 0.00337578 ) 0 
( 0.00340307 0.0129092 0.00139561 ) 0 
( 0.000730582 0.0102011 0.00174035 ) 0 
( 0.00954288 0.00784208 0.00135767 ) 0 
( 0.00204249 0.0040541 0.00617531 ) 0 
( 0.00256247 0.00224946 0.00198632 ) 0 
( 0.00644363 0.00591573 0.00731247 ) 0 
( 0.00437639 0.0126141 0.00138381 ) 0 
( 0.00602187 0.0112921 0.00741183 ) 0 
( 0.00872276 0.00144022 0.00126115 ) 0 
( 0.00648312 0.00395643 0.00579914 ) 0 
( 0.00831728 0.010445 0.0039956 ) 0 
( 0.00106366 0.00618506 0.00226991 ) 0 
( 0.0097945 0.00906778 0.00049939 ) 0 
( 0.00836066 0.00771343 0.00335863 ) 0 
( 0.0112358 0.00132258 0.00126551 ) 0 
( 0.000628921 0.00251247 0.00742447 ) 0 
( 0.00338268 0.0112346 0.00512091 ) 0 
( 0.0115513 0.00336061 0.00191987 ) 0 
( 0.00649049 0.0075553 0.000499773 ) 0 
( 0.00996835 0.00566333 0.00644552 ) 0 
( 0.000147733 0.0083792 0.00686677 ) 0 
( 0.00587651 0.0109524 0.00319853 ) 0 
( 0.00627208 0.00274366 0.0049924 ) 0 
( 0.00248667 0.0131136 0.00466145 ) 0 
( 0.00369409 0.00266019 0.000499779 ) 0 
( 0.0128862 0.00349886 0.00499608 ) 0 
( 0.00497349 0.011039 0.000499729 ) 0 
( 0.00593125 0.00992225 0.0025172 ) 0 
( 0.000335638 0.00681724 0.00508154 ) 0 
( 0.00393582 0.00178677 0.0034894 ) 0 
( 0.00544387 0.00230109 0.00298534 ) 0 
( 0.00267971 0.00312237 0.00552129 ) 0 
( 0.00642571 0.00235104 0.00125478 ) 0 
( 0.00342005 0.0111684 0.00106758 ) 0 
( 0.0113745 0.00227874 0.00322333 ) 0 
( 0.00377301 0.00310693 0.00170063 ) 0 
( 0.00307479 0.00379472 0.00667469 ) 0 
( 0.00418608 0.00236005 0.00437469 ) 0 
( 0.00351538 0.00559123 0.00494462 ) 0 
( 0.010342 0.000900226 0.00482132 ) 0 
( 0.00138782 0.0116852 0.00684681 ) 0 
( 0.0122138 0.00277856 0.00682619 ) 0 
( 0.0106538 0.00797855 0.0022898 ) 0 
( 0.0127937 0.00139042 0.000499241 ) 0 
( 0.00026132 0.0132906 0.00136363 ) 0 
( 0.00573054 0.000518861 0.00628048 ) 0 
( 0.00388342 0.000513493 0.00444877 ) 0 
( 0.00941578 0.00150928 0.00482868 ) 0 
( 0.00466692 0.0125083 0.00588818 ) 0 
( 0.00306737 0.00754355 0.00662283 ) 0 
( 0.00460898 0.00618209 0.00309907 ) 0 
( 0.00660662 0.00491693 0.00720747 ) 0 
( 0.00354659 0.00261793 0.00510028 ) 0 
( 0.00298466 0.00274664 0.00120457 ) 0 
( 6.42674e-05 0.0082111 0.000498192 ) 0 
( 0.0109839 0.00759396 0.00129817 ) 0 
( 0.00637023 0.0117323 0.00512027 ) 0 