FoamFile
{version 2.0; format ascii;class vectorField; location 0;object  v;}
2511
(
( 2.30944e-05 -4.85943e-05 1.68512e-05 )  
( -0.000153854 -1.10357e-05 1.27842e-05 )  
( -8.64533e-05 6.3193e-06 -1.71885e-05 )  
( 0.000160489 4.34559e-05 0.00024983 )  
( 5.6384e-05 -1.13726e-06 0.000194163 )  
( -2.36487e-06 -5.49992e-07 8.38457e-06 )  
( -0.000182268 2.36062e-05 -7.61812e-06 )  
( 3.80954e-05 -1.57155e-05 3.39058e-05 )  
( 0.000182003 -8.24626e-05 0.00016896 )  
( -0.000129315 0.000110408 -0.000106868 )  
( -3.59299e-05 -0.000177593 0.000305867 )  
( -6.12511e-05 -0.000626878 -0.000400731 )  
( 5.88265e-06 -0.000865238 -0.000165668 )  
( 0.000366266 -1.85266e-05 -0.00033586 )  
( -4.40536e-05 0.000180106 -0.000901417 )  
( -4.28195e-06 -0.00036884 -3.66442e-05 )  
( -0.0016538 -0.000384538 0.000183065 )  
( -0.000151569 -0.000178969 0.000577499 )  
( 6.75045e-05 0.00013001 0.00012967 )  
( -4.38915e-06 -3.2889e-05 0.000151053 )  
( -0.000358608 -0.000208416 -0.000340689 )  
( -0.000248809 7.5478e-05 0.000216889 )  
( -0.000154882 -0.000104367 4.93845e-05 )  
( -0.0482316 -0.0334969 -0.0333577 )  
( -0.0202379 0.0333768 -0.00855792 )  
( -0.0129375 0.0393118 -0.010723 )  
( -0.00015363 -5.24118e-06 -0.000426082 )  
( -0.000128609 -0.000256764 -0.000393078 )  
( -0.000182957 -0.000423576 0.000243915 )  
( 0.0206288 -0.0165807 -0.0233106 )  
( -0.000382751 -0.000417637 8.23564e-05 )  
( -0.000117544 6.75686e-05 -0.000113799 )  
( 9.8991e-05 -8.58401e-07 -6.34333e-05 )  
( 1.42394e-05 9.33234e-05 2.3085e-06 )  
( 0.000109144 -3.57989e-05 0.000156853 )  
( 1.83031e-05 3.17867e-05 8.79883e-05 )  
( 0.000127873 -3.90183e-05 8.25245e-05 )  
( 2.01621e-06 -1.03337e-05 0.000121065 )  
( 2.92367e-05 -1.35755e-05 8.0618e-05 )  
( 5.71336e-05 -2.65577e-05 8.06779e-05 )  
( 0.000104875 6.45529e-05 7.64617e-05 )  
( 1.7338e-05 -1.30351e-05 0.000115008 )  
( 0.000164448 7.34059e-05 9.07443e-05 )  
( 2.85106e-06 -1.45097e-05 1.38991e-05 )  
( -9.36307e-05 -1.20552e-05 6.54927e-05 )  
( -6.98835e-05 3.5352e-05 0.00012816 )  
( -6.41151e-05 1.15421e-05 2.55308e-06 )  
( 3.76056e-06 5.1954e-05 0.000113185 )  
( 4.69796e-05 -7.48687e-05 0.00010175 )  
( 4.15322e-06 -2.89555e-05 0.000121169 )  
( 4.23595e-05 1.36044e-05 2.04806e-05 )  
( 0.000102108 -8.42999e-06 0.000109184 )  
( 1.44002e-05 -2.56618e-05 0.000126541 )  
( 0.000208578 1.58062e-05 0.000224658 )  
( 6.02873e-05 -6.61747e-06 3.11123e-05 )  
( 0.000103191 1.68272e-05 8.42749e-05 )  
( 6.19813e-05 0.000151754 0.000239914 )  
( -7.54548e-06 -2.56655e-05 3.0454e-05 )  
( 0.000172938 4.23719e-05 -2.71137e-05 )  
( -8.7222e-07 -1.42603e-05 5.97865e-06 )  
( -1.71932e-05 6.42463e-05 3.5678e-05 )  
( 6.36789e-05 7.8937e-05 0.000128389 )  
( -5.6045e-06 -5.10948e-06 1.10563e-05 )  
( -1.98453e-05 -4.44364e-05 0.000124814 )  
( -5.52229e-05 -4.54082e-05 -6.4485e-05 )  
( -4.0451e-05 3.21582e-05 0.000122535 )  
( 5.68988e-05 1.69632e-05 5.14964e-05 )  
( 1.36766e-05 0.000108293 0.000247258 )  
( 0.000115138 1.87355e-05 0.000120571 )  
( 4.62002e-05 1.72276e-05 0.000142068 )  
( 1.51082e-05 -7.18944e-05 0.000151829 )  
( 4.08689e-05 0.00011501 5.86766e-06 )  
( -6.31297e-06 -5.06741e-05 0.000184754 )  
( 7.96508e-05 -0.000104864 -1.30535e-05 )  
( 6.08063e-05 2.92033e-05 0.000138974 )  
( 1.10637e-05 6.62523e-05 5.71363e-05 )  
( 9.90482e-05 -0.000273222 3.76391e-05 )  
( 7.96955e-05 8.29763e-05 6.50829e-05 )  
( 3.96381e-05 -5.72627e-05 0.000222635 )  
( -6.39569e-05 8.23645e-05 0.000155925 )  
( 8.20878e-05 6.34543e-05 1.37503e-05 )  
( 7.04014e-05 -2.06391e-05 0.000125153 )  
( 1.55625e-05 -1.86372e-05 7.83577e-05 )  
( 2.7576e-05 -3.35539e-05 4.95126e-05 )  
( 0.000123106 9.00469e-05 0.000210906 )  
( 0.000158785 5.71501e-05 6.8962e-05 )  
( 1.60152e-05 -5.41143e-05 0.000160888 )  
( 2.88306e-05 -3.33858e-05 5.2154e-05 )  
( -7.80423e-06 7.27905e-05 4.86312e-05 )  
( 0.000114267 -4.42915e-05 -8.69748e-05 )  
( 7.38395e-05 4.9229e-05 0.00017908 )  
( -7.6892e-05 4.19902e-05 9.96471e-05 )  
( 7.18718e-05 -5.45073e-07 9.51457e-05 )  
( 4.83451e-05 -3.29831e-05 9.83365e-05 )  
( -8.74176e-05 -7.56948e-05 8.46978e-05 )  
( 0.000182136 2.63627e-05 8.54097e-05 )  
( -1.75788e-06 9.58964e-05 0.000164748 )  
( 6.04251e-05 -8.25947e-06 8.13061e-05 )  
( 4.99565e-05 6.67439e-06 0.000124679 )  
( 9.55457e-06 -1.00838e-05 1.31927e-05 )  
( -6.27989e-06 -3.99092e-05 0.000106541 )  
( 8.12887e-05 -6.04041e-07 2.56558e-06 )  
( 2.44275e-05 9.93243e-07 8.89739e-05 )  
( 7.68126e-05 7.72543e-05 0.000108994 )  
( 3.43728e-05 5.95885e-05 1.11326e-06 )  
( 2.6445e-05 -4.04078e-05 4.95403e-05 )  
( -0.000295504 -8.75472e-05 2.40698e-05 )  
( 1.11263e-05 5.84911e-05 6.65888e-05 )  
( 0.000117667 8.98799e-05 9.35374e-05 )  
( 4.55715e-05 0.000180647 0.000115291 )  
( 5.55737e-05 -4.44922e-05 5.24768e-05 )  
( 8.29716e-06 2.33588e-05 -1.14241e-05 )  
( 1.02664e-05 -1.63107e-05 8.29468e-05 )  
( -8.49594e-05 1.65414e-05 4.03175e-05 )  
( 4.84406e-05 1.32216e-05 0.00019728 )  
( 2.97311e-05 2.69634e-05 -1.2429e-05 )  
( -8.11402e-06 -1.43995e-05 -3.39842e-05 )  
( 9.2715e-05 1.13335e-05 -4.44903e-05 )  
( -7.01501e-05 -3.60853e-05 0.00021097 )  
( -1.24697e-05 1.28836e-05 0.000158005 )  
( -4.69478e-06 1.99609e-06 4.18144e-06 )  
( -6.22157e-05 1.75846e-05 -0.000101466 )  
( 0.000110779 2.05397e-05 9.01663e-05 )  
( -8.78856e-06 -2.61934e-05 1.1253e-05 )  
( 6.49184e-05 -9.16635e-05 -5.97367e-05 )  
( 5.08657e-05 6.6688e-05 1.59249e-05 )  
( -3.64112e-05 0.000100849 -3.06341e-05 )  
( -1.6014e-05 2.61485e-06 -5.73854e-06 )  
( -9.66313e-07 2.64487e-06 1.21843e-06 )  
( 7.81891e-05 -2.30215e-05 0.000273683 )  
( 2.25018e-05 2.45697e-05 3.75277e-05 )  
( -5.20317e-05 -4.77112e-05 -6.82691e-06 )  
( 2.31417e-05 -2.24107e-06 4.24242e-05 )  
( 0.000106536 0.000168473 0.000147676 )  
( 1.26125e-05 -4.03246e-06 8.05272e-05 )  
( 0.000102566 -3.84483e-05 8.08391e-05 )  
( -8.97636e-05 -7.76433e-05 -6.43981e-05 )  
( 4.79174e-07 3.37554e-06 2.34842e-05 )  
( 2.53432e-05 -5.93256e-05 8.88707e-05 )  
( -7.43113e-05 -2.91682e-05 -1.2226e-05 )  
( 7.18956e-05 6.38428e-05 0.000168842 )  
( -2.73623e-06 -3.40236e-05 5.4923e-06 )  
( -5.37329e-05 -1.76383e-05 6.39437e-05 )  
( 5.61903e-05 0.000153465 0.000100473 )  
( 0.000112372 0.000125942 0.000134469 )  
( -2.46072e-05 8.95207e-05 4.83726e-05 )  
( 5.14106e-05 4.46775e-05 0.000170075 )  
( 4.86215e-05 -7.09098e-05 4.57168e-05 )  
( 5.49033e-05 -3.55386e-05 4.48693e-05 )  
( 0.000185762 7.11953e-06 5.89586e-05 )  
( 4.46505e-05 -9.42837e-05 5.38914e-05 )  
( -6.46505e-05 -7.13592e-05 0.000138179 )  
( 2.87768e-06 -8.94136e-06 1.51982e-05 )  
( 0.000108998 2.57749e-05 0.000125823 )  
( -1.1089e-05 -3.38519e-06 1.30312e-05 )  
( 2.37421e-05 2.65699e-05 3.59101e-07 )  
( 4.82591e-05 -6.30746e-05 2.27363e-05 )  
( 6.76876e-05 1.42948e-05 8.92322e-05 )  
( 3.07282e-05 -5.96732e-05 0.000146212 )  
( 7.4625e-06 -1.68337e-05 4.73972e-05 )  
( 7.41793e-05 -2.6598e-05 0.000195431 )  
( -0.000235327 0.000645197 -0.000171467 )  
( 3.3471e-06 -5.33885e-05 0.000120412 )  
( -1.14529e-05 -4.67488e-05 4.70129e-05 )  
( -1.38127e-06 -8.55076e-06 2.21325e-05 )  
( 1.22121e-05 1.1124e-07 1.04129e-05 )  
( 1.21737e-05 -1.94996e-05 -8.03791e-05 )  
( 9.95577e-06 -4.80889e-05 0.000145466 )  
( 3.37911e-06 -3.96956e-05 6.85369e-05 )  
( -2.02508e-05 5.03672e-05 8.92209e-05 )  
( 1.15739e-05 -0.000100407 3.38696e-05 )  
( 1.51609e-05 4.09386e-05 7.3457e-05 )  
( 8.20895e-05 -4.02762e-05 6.42359e-05 )  
( 8.22461e-05 -2.08042e-05 3.38146e-05 )  
( -0.000101737 4.56349e-06 5.56965e-05 )  
( 3.95694e-05 6.52732e-06 7.97042e-05 )  
( -2.27303e-05 4.03081e-06 1.51924e-05 )  
( -1.93991e-05 -1.64508e-05 2.92489e-05 )  
( 4.48707e-06 -2.44848e-05 1.36586e-05 )  
( 7.96461e-05 3.34989e-05 0.000134195 )  
( 4.97242e-05 -3.66772e-05 9.50205e-05 )  
( -0.000148988 -0.000259208 -5.6798e-06 )  
( 6.86797e-05 -1.12523e-05 1.82514e-05 )  
( 6.44562e-06 -6.02038e-05 -6.51094e-05 )  
( 2.86043e-05 -4.26661e-06 -0.00018029 )  
( 5.8822e-05 0.000111988 1.79898e-05 )  
( 0.00014384 -9.44056e-06 -1.75161e-05 )  
( -4.20689e-05 -4.99137e-05 0.000154702 )  
( -6.83115e-05 -3.14052e-05 3.54053e-05 )  
( 4.29216e-05 6.66275e-05 0.000115256 )  
( -0.00215351 0.000355402 -0.000100944 )  
( 2.04243e-05 5.42446e-05 0.000217496 )  
( 4.07951e-06 -9.7912e-06 7.04484e-06 )  
( 1.58504e-05 -0.000267001 0.000116462 )  
( 7.82214e-05 -1.96425e-05 9.01846e-05 )  
( 9.82415e-05 3.98303e-05 6.08329e-05 )  
( -1.0808e-05 -3.32046e-05 -8.40203e-06 )  
( 0.000129334 -0.000128109 -6.72286e-05 )  
( 1.11551e-05 -8.47122e-06 9.32304e-05 )  
( 8.45978e-05 -9.44426e-05 7.47977e-06 )  
( -3.37323e-05 -8.17531e-06 -1.12564e-05 )  
( 5.85577e-05 0.000170708 4.88788e-05 )  
( 4.54316e-05 -3.05759e-05 8.01875e-05 )  
( -7.29604e-05 3.30449e-05 3.70812e-05 )  
( 0.000127801 0.000141698 0.000231645 )  
( -4.46134e-05 1.25715e-05 0.000135464 )  
( 6.80342e-05 -0.000261706 0.000533129 )  
( 4.84634e-05 -4.89126e-05 6.18805e-05 )  
( 5.39489e-05 3.23367e-05 5.13372e-05 )  
( 4.53857e-05 -4.17742e-05 0.00010394 )  
( -8.55411e-06 -6.57209e-05 -7.73952e-06 )  
( -1.02011e-05 1.57426e-06 3.75387e-06 )  
( 8.02578e-05 -0.000229714 0.000161309 )  
( 0.000127657 0.000115085 0.000201924 )  
( 7.72264e-05 7.69473e-05 -1.68379e-05 )  
( 3.14967e-05 -6.74085e-05 0.000156008 )  
( 3.91266e-06 -0.000119454 0.000506105 )  
( 2.83931e-05 4.16077e-06 1.11043e-05 )  
( 0.000173915 5.827e-05 9.00795e-05 )  
( 0.000110878 3.56934e-05 4.84724e-05 )  
( 3.33335e-05 -2.84162e-05 0.000140321 )  
( 0.000131526 -1.43568e-05 0.000221255 )  
( 9.89548e-06 -3.59377e-05 7.24885e-05 )  
( -0.000131194 1.03372e-05 -0.000140237 )  
( 0.000128598 3.1549e-05 0.000167848 )  
( 4.57371e-05 -4.46222e-05 0.000104811 )  
( 5.57774e-05 -3.84409e-05 0.000261175 )  
( 1.12607e-05 -5.38637e-06 -0.000150958 )  
( 5.66393e-05 -3.40946e-05 0.000170458 )  
( 4.59568e-05 -8.46226e-05 1.94955e-05 )  
( 3.73572e-05 -2.10596e-05 0.000105664 )  
( 2.26011e-05 -1.99763e-05 1.66852e-05 )  
( 3.04571e-05 0.000175205 7.3141e-06 )  
( 0.000163122 4.19217e-05 -1.87368e-05 )  
( -2.15056e-05 -5.67164e-05 7.44042e-05 )  
( 7.88255e-05 6.06666e-06 2.77017e-05 )  
( 4.19517e-05 5.95527e-06 5.6589e-05 )  
( 6.06559e-06 2.75992e-05 -7.15481e-06 )  
( -5.77756e-05 2.3333e-05 -3.04289e-05 )  
( -1.72608e-05 5.99744e-05 0.000130387 )  
( 0.000185928 8.28793e-05 1.64329e-05 )  
( -5.85336e-05 -7.38433e-05 -8.68399e-05 )  
( 0.000147054 -0.000362817 4.53499e-05 )  
( -2.85836e-05 -3.5352e-05 0.000168796 )  
( 0.000220484 -6.81555e-05 0.000113542 )  
( 7.94462e-05 -5.45754e-05 7.25321e-05 )  
( -3.84054e-05 -5.16875e-05 0.000170516 )  
( 3.76246e-06 3.18575e-05 4.21736e-05 )  
( 0.000118194 8.15128e-05 -7.14809e-06 )  
( -2.02183e-05 -5.23859e-06 4.24282e-05 )  
( 9.82579e-05 2.5742e-05 3.95629e-05 )  
( 0.000114623 4.79363e-05 0.000211896 )  
( -4.8294e-05 -5.99766e-05 6.40577e-06 )  
( 8.97464e-05 -1.50292e-06 0.000106753 )  
( -1.29991e-05 -4.49735e-05 6.21282e-05 )  
( -6.91553e-06 -2.02119e-05 3.03752e-05 )  
( 1.40483e-05 -6.70919e-05 0.000166784 )  
( 2.07757e-05 -1.79621e-05 9.83329e-07 )  
( 6.16531e-05 5.12982e-05 3.11196e-05 )  
( 1.17726e-05 -1.32206e-06 2.28424e-05 )  
( 4.13751e-05 -1.78574e-05 7.85159e-05 )  
( 4.52425e-05 -7.40177e-05 -5.64626e-05 )  
( 8.04483e-05 2.88017e-05 7.11533e-05 )  
( 0.000140627 1.94127e-05 3.94082e-05 )  
( 3.89895e-05 -3.22859e-05 -1.49581e-05 )  
( -4.19126e-06 -1.227e-05 6.96535e-06 )  
( 5.32544e-05 -6.74173e-06 2.17579e-05 )  
( 0.000121652 0.000125961 0.000168076 )  
( 0.000160735 -5.26229e-05 7.01726e-05 )  
( 7.06531e-05 7.46491e-05 6.06717e-05 )  
( 4.9146e-05 5.02281e-05 0.000116253 )  
( 4.464e-05 5.12184e-06 9.19114e-05 )  
( 8.9278e-05 -6.54441e-05 0.000160175 )  
( -2.06199e-05 -8.85323e-06 5.48124e-05 )  
( -4.25515e-05 0.000135123 3.77953e-05 )  
( 0.000183622 7.10267e-05 0.000259848 )  
( 8.85641e-05 7.20767e-05 0.000138712 )  
( 6.95508e-05 2.78292e-05 9.55636e-05 )  
( -0.000183034 2.43348e-05 3.8623e-05 )  
( 4.72082e-06 -8.71065e-05 0.000118147 )  
( -6.45024e-05 1.0619e-05 -2.44006e-05 )  
( -3.758e-05 -1.72369e-05 4.16501e-06 )  
( 4.74429e-05 -3.84089e-05 9.44288e-05 )  
( -8.3029e-05 -3.63778e-05 2.05898e-05 )  
( 0.00031576 0.000424853 0.000294294 )  
( 5.46633e-05 -8.89025e-06 3.35209e-05 )  
( -8.0268e-06 -3.32618e-05 9.45731e-05 )  
( 0.000105685 5.22757e-05 0.000143443 )  
( -7.67268e-05 1.84894e-05 9.7213e-05 )  
( 5.82181e-05 -0.000113499 0.000213256 )  
( -3.89411e-05 3.47343e-05 5.1423e-05 )  
( 8.93721e-05 7.16129e-05 2.24927e-06 )  
( 7.02479e-05 0.000121945 0.000180892 )  
( 3.73024e-05 -3.14091e-05 0.000142736 )  
( -4.99696e-07 3.94216e-06 6.18511e-06 )  
( 7.5825e-05 -3.23509e-05 2.64027e-05 )  
( 4.6658e-05 2.98433e-05 0.000116529 )  
( 3.10604e-05 3.2094e-05 -1.13389e-05 )  
( -9.72373e-05 -3.09208e-05 6.56858e-05 )  
( -2.54314e-05 -8.60121e-05 2.68103e-05 )  
( -0.000102145 -5.93242e-05 -1.5422e-06 )  
( 9.00658e-05 6.74637e-05 0.000142948 )  
( 6.23524e-05 -8.14741e-05 5.91474e-05 )  
( 1.5011e-05 -2.73154e-05 0.000232508 )  
( 0.000103094 -3.3133e-05 -1.27195e-05 )  
( 2.80273e-05 -4.31946e-05 2.75559e-05 )  
( -6.34059e-06 1.61784e-05 -6.15501e-05 )  
( 0.00017771 7.83898e-05 0.000236179 )  
( -2.92529e-05 1.36562e-05 -1.43718e-05 )  
( 3.91872e-05 -2.64173e-05 0.000126594 )  
( -0.000154091 -2.78289e-06 6.48866e-05 )  
( 0.000122764 4.3352e-05 4.87629e-05 )  
( -8.84014e-05 8.07689e-05 -6.40594e-05 )  
( 0.000129376 0.00012722 0.000165262 )  
( -0.000394013 -0.000532704 -3.94158e-05 )  
( 0.000151268 8.50116e-05 0.000234893 )  
( 5.18017e-05 -5.59302e-05 4.67311e-05 )  
( 5.54527e-05 7.2163e-05 -4.10511e-05 )  
( 9.47232e-05 4.79349e-05 0.000149004 )  
( -5.81593e-05 -0.000152699 6.23894e-05 )  
( 5.33763e-05 0.000112753 7.99311e-05 )  
( 5.4817e-05 -2.6312e-05 0.000128092 )  
( 4.13782e-05 -3.05746e-05 4.94669e-05 )  
( 0.000116759 -1.25907e-05 0.000101118 )  
( 0.000108963 1.20962e-05 0.00016215 )  
( -2.56406e-05 -2.38119e-05 6.34092e-05 )  
( 3.25292e-05 -2.15351e-05 0.0001054 )  
( 3.59011e-05 -3.20551e-05 5.45679e-05 )  
( -6.30636e-06 0.000163633 1.87217e-06 )  
( 0.000112648 9.76858e-05 0.000162691 )  
( -5.85566e-06 -5.94208e-05 4.1012e-05 )  
( -0.00011176 3.84231e-05 3.50133e-05 )  
( 4.31102e-06 0.0013282 -2.31419e-07 )  
( -0.000159174 4.84061e-05 -1.67416e-05 )  
( 3.80803e-05 -3.51079e-05 7.63961e-05 )  
( 0.000114876 6.826e-05 0.000129437 )  
( 2.17617e-06 1.17233e-05 1.80274e-05 )  
( 2.58969e-05 -4.1242e-05 8.68023e-05 )  
( 3.56546e-05 -4.36636e-05 6.75897e-05 )  
( 7.77517e-05 1.45559e-05 6.66704e-05 )  
( 7.11254e-06 -1.10039e-05 3.89644e-05 )  
( 4.20685e-05 -7.19861e-05 -6.90917e-05 )  
( -6.33575e-05 -6.01492e-05 -2.8108e-05 )  
( -5.52274e-05 6.96457e-06 0.000134302 )  
( 2.94823e-05 -4.92902e-05 0.000136331 )  
( -8.6185e-05 4.89501e-06 7.43182e-05 )  
( -2.34934e-06 1.98814e-05 0.000122293 )  
( 1.10583e-05 -3.79855e-05 1.6875e-05 )  
( 3.9441e-05 -4.46015e-05 3.47225e-05 )  
( -7.453e-05 -6.34835e-05 -1.53175e-06 )  
( 5.18808e-05 0.000183769 0.000190667 )  
( 7.9601e-05 -1.53298e-05 2.14911e-05 )  
( 4.1058e-05 -9.59831e-06 9.44691e-05 )  
( 0.000116442 7.80702e-05 0.000105406 )  
( -1.26339e-05 -2.2762e-05 0.000118136 )  
( 6.26541e-05 1.61207e-05 0.000176266 )  
( -0.000334558 0.00020318 -0.000349389 )  
( 9.49711e-05 3.39398e-05 0.000136829 )  
( 1.14231e-05 -1.20002e-05 2.00974e-05 )  
( 0.000247371 6.47857e-05 1.84284e-05 )  
( 9.93132e-05 6.59309e-05 9.78255e-05 )  
( 7.50107e-05 8.38732e-05 0.000128449 )  
( 7.31611e-05 -5.49987e-05 3.20869e-05 )  
( -1.66425e-05 1.36943e-06 0.000141027 )  
( 0.000153493 -4.46599e-05 -6.05699e-06 )  
( 9.95124e-05 7.42252e-05 1.64521e-05 )  
( 0.000106886 -2.28795e-05 0.00014293 )  
( 4.3509e-05 -4.51022e-05 3.13952e-05 )  
( 8.39016e-05 -3.4851e-05 6.86463e-05 )  
( 2.00091e-05 6.66761e-05 1.52485e-05 )  
( 0.000101685 2.58121e-05 -5.66462e-05 )  
( -2.87163e-05 -6.61323e-05 -0.000121878 )  
( 3.43136e-05 -1.78194e-05 4.59466e-05 )  
( 8.2924e-05 2.76914e-05 0.00012388 )  
( -0.000167087 -6.49813e-05 4.65738e-05 )  
( 5.75406e-05 -0.000152906 2.54684e-05 )  
( -0.000125023 -0.000135544 0.000150003 )  
( 3.66704e-06 -2.94791e-05 8.44942e-05 )  
( 0.000125176 5.33363e-05 4.82899e-05 )  
( -9.7109e-07 -5.65765e-05 1.2991e-05 )  
( 4.68396e-05 -3.04257e-05 2.50225e-06 )  
( -6.19608e-06 -6.4874e-06 3.03018e-05 )  
( 7.70847e-05 -8.89275e-06 0.000125702 )  
( 6.41322e-05 -2.43247e-05 0.000106616 )  
( 2.56291e-05 -5.00228e-05 9.12868e-05 )  
( 4.69286e-05 6.50571e-05 0.000212247 )  
( 0.000166842 2.39832e-06 -9.45152e-05 )  
( 7.83638e-05 -5.35012e-05 0.00021647 )  
( 7.89223e-05 0.000168499 0.000159126 )  
( -3.80866e-05 -7.89481e-06 3.57421e-05 )  
( 1.90214e-05 -0.000112075 3.42529e-05 )  
( 9.08035e-05 -2.70244e-05 7.63332e-05 )  
( 6.58288e-05 1.2531e-05 2.08353e-05 )  
( 0.000156715 4.56761e-05 4.03916e-05 )  
( 0.000110123 4.88223e-05 3.47191e-05 )  
( -3.95669e-05 -1.85175e-05 -8.49789e-06 )  
( -3.21175e-05 -2.86046e-05 -1.33864e-06 )  
( 9.28917e-05 -3.98465e-05 9.87914e-05 )  
( 0.000217684 7.89285e-05 0.000223387 )  
( -0.000124061 -7.87639e-05 5.05368e-05 )  
( -3.64208e-05 9.51944e-05 -0.000105084 )  
( 4.75591e-08 1.98568e-05 2.30248e-06 )  
( 2.42402e-05 1.09783e-06 0.000143835 )  
( 7.47024e-06 -3.44039e-05 2.18032e-05 )  
( 5.76421e-05 -8.45991e-06 -2.8929e-05 )  
( -8.40145e-05 8.81725e-06 -7.89402e-05 )  
( -7.80528e-05 4.26269e-05 0.000110888 )  
( 1.833e-05 5.87546e-06 2.25478e-05 )  
( 5.98701e-06 2.11554e-05 -7.8982e-06 )  
( 3.90273e-05 4.03086e-05 0.000112298 )  
( 6.1864e-05 5.91057e-05 0.000149169 )  
( -1.87886e-05 3.85288e-06 1.09775e-05 )  
( -2.2904e-05 8.71425e-05 -7.09057e-05 )  
( 6.6122e-05 -4.38046e-05 0.000206019 )  
( 6.3845e-05 7.08728e-05 0.000124363 )  
( 3.53935e-05 9.9236e-06 -5.09739e-05 )  
( 3.02611e-05 -0.000100251 5.53154e-05 )  
( -1.44318e-05 -2.41806e-05 2.45255e-05 )  
( 1.29651e-05 -1.71213e-05 1.03395e-05 )  
( 0.00252425 -0.000276371 -1.99736e-07 )  
( 7.64185e-05 0.000124613 1.3815e-05 )  
( 2.44802e-05 1.18895e-05 7.45994e-05 )  
( 5.03663e-05 0.000114797 2.12357e-05 )  
( -2.60916e-05 2.55018e-06 4.40859e-05 )  
( 3.89655e-05 4.12589e-05 -5.43774e-06 )  
( 3.40151e-05 2.38001e-05 -7.71703e-06 )  
( -1.32114e-06 -3.9663e-05 8.77495e-05 )  
( 4.42023e-05 -4.99925e-05 9.40698e-05 )  
( 6.83882e-06 -2.32092e-05 3.6306e-05 )  
( 5.71761e-05 1.1415e-05 -6.08108e-05 )  
( 9.31997e-05 -2.46135e-05 0.000233709 )  
( 2.56668e-05 -5.14145e-05 0.000111177 )  
( 0.000139245 4.2008e-05 3.35877e-05 )  
( 6.64639e-05 9.5631e-06 0.000267278 )  
( -7.19889e-06 4.38279e-05 7.11914e-05 )  
( 7.40499e-05 -6.36597e-05 1.68616e-05 )  
( 2.34569e-05 -1.34274e-05 1.26864e-05 )  
( 2.09802e-06 -3.33561e-05 0.000119011 )  
( 2.18896e-05 -2.91487e-05 0.000114051 )  
( -3.65751e-05 -6.34516e-05 -8.94527e-06 )  
( -2.2175e-05 -3.39851e-05 2.50985e-05 )  
( 0.000359467 -7.39634e-05 -8.56172e-05 )  
( 2.28388e-05 -2.99484e-05 4.05277e-05 )  
( -7.63379e-05 2.87811e-05 0.000146851 )  
( 0.000132039 5.05147e-05 0.000179296 )  
( 0.000168549 8.92171e-05 0.000177063 )  
( 1.43235e-05 -4.27709e-05 1.62973e-05 )  
( -0.000361514 0.000254669 -0.000258598 )  
( 1.92285e-05 -2.6096e-05 3.12059e-05 )  
( 9.76048e-06 -2.53481e-05 0.000105667 )  
( 8.51166e-05 4.71706e-05 0.000157617 )  
( -2.56799e-05 5.40509e-05 -3.60001e-05 )  
( 6.72376e-06 -3.25204e-06 1.77012e-05 )  
( 8.94941e-07 -5.15286e-05 -5.95209e-06 )  
( 4.46107e-05 -1.52273e-06 3.47166e-05 )  
( 0.000189793 -0.000116578 0.000144214 )  
( -2.0621e-05 -1.55083e-05 1.08892e-05 )  
( 6.87837e-05 5.63462e-05 1.85165e-05 )  
( 0.000104984 0.00010202 2.30963e-05 )  
( 3.83849e-05 4.25698e-05 0.000242382 )  
( -6.10068e-06 -9.73925e-06 1.79336e-05 )  
( 1.43316e-05 -1.85312e-05 7.92832e-05 )  
( -3.2923e-05 6.62749e-05 0.00014782 )  
( 4.79306e-05 4.36379e-05 0.000108394 )  
( 6.29884e-05 -2.86805e-05 4.55495e-05 )  
( 2.57443e-05 5.33995e-06 0.000147118 )  
( 4.69972e-06 2.0188e-05 -1.39084e-06 )  
( 6.42125e-05 6.89841e-05 0.000288004 )  
( 1.26446e-05 -4.10534e-05 7.89193e-05 )  
( -4.43196e-06 5.12815e-06 1.10307e-06 )  
( -9.63676e-05 0.000100325 -7.38668e-05 )  
( -8.37729e-07 5.46192e-06 1.03998e-05 )  
( -1.03336e-05 7.71777e-06 2.65237e-05 )  
( 0.000187159 8.47919e-05 0.000158091 )  
( 6.64314e-06 -7.50602e-06 0.000122174 )  
( 2.47065e-05 -4.70557e-05 1.79676e-05 )  
( 6.7067e-05 0.000153504 -4.20484e-05 )  
( 9.53568e-05 -1.26321e-05 1.32128e-05 )  
( 8.57333e-05 7.65278e-05 0.000142941 )  
( 6.18799e-05 -9.78065e-06 0.000133452 )  
( 3.67921e-05 -5.11515e-06 0.000109192 )  
( -0.000328409 -0.000117888 7.39349e-05 )  
( 3.17684e-05 -3.43744e-05 4.54281e-05 )  
( 6.89087e-05 6.49008e-05 1.7243e-05 )  
( 1.07078e-05 0.000202989 0.000309835 )  
( 3.91062e-05 2.91044e-05 4.08567e-05 )  
( 0.000104406 2.70773e-06 3.12839e-05 )  
( -0.00011948 4.83241e-06 -6.00078e-05 )  
( 0.000114674 -4.68471e-05 0.000194802 )  
( 7.96839e-05 7.82419e-05 9.94576e-05 )  
( 3.94286e-05 -3.89633e-05 3.58632e-05 )  
( 2.82156e-05 -5.26099e-06 4.271e-05 )  
( -0.000114415 -0.000106844 2.39447e-07 )  
( -5.22008e-05 5.94945e-05 0.000120734 )  
( 0.000102999 1.61201e-05 0.000146406 )  
( -9.26652e-05 -2.38221e-05 2.94272e-05 )  
( 1.95111e-05 -3.08632e-05 1.91254e-05 )  
( 3.39894e-05 1.68239e-05 0.000113883 )  
( 9.89904e-07 -7.37324e-05 0.000137799 )  
( 3.36479e-05 2.72938e-05 0.000161387 )  
( 5.26218e-05 -6.9075e-05 9.85128e-05 )  
( 5.16217e-06 -2.04104e-05 0.000121121 )  
( -4.91673e-07 3.24257e-06 1.39317e-05 )  
( -3.64616e-06 -7.51356e-05 0.000174601 )  
( -8.01546e-07 3.20605e-06 2.57696e-06 )  
( 3.50591e-05 -7.70985e-05 0.000139672 )  
( -3.13484e-05 4.41877e-06 0.000172926 )  
( 1.90992e-05 -4.26584e-05 -2.40605e-07 )  
( 6.23965e-05 -2.46259e-05 0.000210974 )  
( 0.000105894 0.000113893 1.38362e-06 )  
( -2.09083e-05 5.33629e-05 7.43596e-05 )  
( -7.54788e-06 2.28748e-05 0.000230589 )  
( 5.2656e-05 0.000141104 0.00015022 )  
( 9.58272e-05 8.52328e-06 0.00018872 )  
( 4.35707e-05 -6.0358e-05 0.000198085 )  
( 0.000133722 6.19107e-05 5.54094e-05 )  
( 0.000110012 6.88047e-05 0.000170042 )  
( 6.48778e-05 3.89317e-06 7.91815e-05 )  
( 7.73199e-05 -5.82786e-05 0.000195228 )  
( 3.4848e-05 0.00015417 0.000238091 )  
( -1.10735e-05 -2.81876e-05 0.000189548 )  
( 6.55014e-05 -1.09383e-05 2.99904e-05 )  
( 2.19332e-05 6.19681e-06 0.000201378 )  
( -7.04146e-05 -4.98586e-05 4.21126e-05 )  
( -7.69862e-07 8.75898e-05 0.000138705 )  
( 2.02514e-05 -2.3653e-05 -0.000144178 )  
( -1.23493e-05 -6.50511e-05 0.000122813 )  
( 4.29761e-05 0.00011633 7.39908e-06 )  
( 5.05556e-05 6.23484e-05 0.000129681 )  
( 2.63612e-05 0.000179677 9.9508e-05 )  
( 6.93375e-05 -0.00012554 0.000164201 )  
( 4.20001e-05 3.41582e-06 9.86067e-05 )  
( -5.41722e-05 -5.56086e-06 -2.77155e-06 )  
( 0.000116127 4.96121e-05 7.63983e-05 )  
( 8.13248e-05 -1.88709e-05 7.05441e-05 )  
( 8.621e-05 -2.35804e-05 7.84155e-05 )  
( 3.92761e-05 -3.59929e-05 7.26158e-05 )  
( 7.87782e-05 9.62457e-05 0.00014208 )  
( -8.12734e-05 -7.65406e-05 0.000216536 )  
( 9.55882e-06 -1.93391e-05 0.000132232 )  
( -5.58211e-06 8.14281e-06 4.03098e-06 )  
( 4.00084e-05 7.38967e-05 8.2617e-05 )  
( 4.80367e-05 -4.3239e-05 5.99481e-05 )  
( 7.56982e-05 1.30618e-05 2.10317e-05 )  
( 4.65214e-05 9.36914e-05 0.000114821 )  
( 8.94935e-07 -1.18462e-05 3.88187e-05 )  
( -7.95766e-05 3.25809e-06 -1.07736e-05 )  
( -6.0121e-06 0.000175197 0.000125086 )  
( 3.31158e-05 -2.15103e-05 0.000106326 )  
( 1.51639e-05 1.5049e-05 8.56887e-05 )  
( -4.84038e-05 -3.60489e-05 -0.000129043 )  
( -0.00460042 0.000874032 -0.0022225 )  
( 2.95604e-05 -4.01913e-06 2.73247e-05 )  
( 8.89305e-05 0.000112304 0.000170579 )  
( 2.19885e-05 0.000101477 0.000135995 )  
( -4.44046e-05 -2.965e-05 5.96993e-05 )  
( -5.05782e-05 -4.25692e-05 -1.14495e-06 )  
( 7.16044e-05 6.00819e-05 0.000195865 )  
( -2.91243e-05 -1.95668e-05 0.000224839 )  
( 9.45909e-06 -2.06047e-05 4.83328e-05 )  
( 0.00019577 2.54774e-05 6.25292e-05 )  
( 0.000120368 -4.94261e-06 0.000301844 )  
( 0.000165352 -9.32994e-05 8.01793e-05 )  
( -2.16602e-05 0.000122573 0.000129408 )  
( 6.08779e-05 -1.20587e-05 9.76623e-05 )  
( -5.09889e-05 -4.09365e-05 5.62275e-05 )  
( 7.8583e-05 -3.95319e-05 0.00014053 )  
( 8.43711e-05 -3.32929e-05 0.000119171 )  
( 2.89891e-05 -0.0001175 -4.52302e-05 )  
( 6.86379e-05 2.43573e-05 -2.44773e-06 )  
( 0.000141665 0.000874642 -1.40498e-07 )  
( -3.48809e-05 -2.42382e-05 7.27072e-05 )  
( -0.000136609 0.000178773 1.09696e-05 )  
( 8.79027e-06 5.30367e-06 -9.72031e-05 )  
( 5.11374e-06 -5.28421e-06 5.39254e-06 )  
( 7.89286e-05 0.000193883 0.00013808 )  
( -8.66153e-06 3.63753e-06 1.22679e-05 )  
( 1.58745e-05 -8.70829e-05 0.000149474 )  
( 4.32123e-06 9.52718e-06 3.40012e-05 )  
( 5.25733e-06 -3.1283e-05 -2.44828e-05 )  
( 4.03416e-05 -1.19204e-05 9.86267e-05 )  
( 1.40613e-05 -7.81385e-05 9.65554e-05 )  
( 7.02255e-05 4.11697e-05 5.80846e-05 )  
( 0.000155941 0.000141102 0.000225767 )  
( 1.4437e-05 -1.81525e-05 0.000103602 )  
( 5.45124e-05 -4.72142e-05 -2.98591e-06 )  
( 0.000159283 -4.38644e-05 0.000321066 )  
( 0.000113731 7.30263e-06 0.000102942 )  
( 0.000154101 5.85843e-05 3.875e-05 )  
( -4.60014e-06 -9.5878e-05 0.000167873 )  
( 0.000115084 0.000102748 0.000199823 )  
( 8.29576e-05 -6.18887e-05 0.000105263 )  
( -5.42034e-05 -6.10696e-05 0.000140375 )  
( 0.000112267 8.55654e-05 0.000134718 )  
( 0.000111148 0.000107676 5.78699e-06 )  
( 9.31356e-05 3.71117e-05 0.000155061 )  
( 1.43857e-05 9.0699e-05 0.000212638 )  
( -2.57805e-05 6.75625e-05 3.06724e-05 )  
( 5.55906e-05 7.34778e-05 8.39517e-05 )  
( 4.08426e-06 -2.76447e-06 0.000114767 )  
( 8.23222e-06 -3.10294e-05 3.39946e-06 )  
( -8.05387e-05 -9.62893e-05 1.02017e-06 )  
( 1.76578e-05 -5.07548e-05 9.00907e-05 )  
( 3.81615e-05 8.19041e-06 0.000159173 )  
( -0.000189679 -0.000208776 4.70608e-05 )  
( 1.59469e-06 -7.54264e-06 -1.14958e-05 )  
( -3.21563e-05 2.86301e-05 7.58865e-05 )  
( 3.64314e-05 0.000162093 2.82598e-06 )  
( 8.02131e-05 2.58798e-05 0.000193573 )  
( 0.000109967 5.35245e-05 0.000237632 )  
( 0.000160835 -4.01481e-06 0.000105987 )  
( 8.59892e-05 0.000103339 0.000153284 )  
( 6.52637e-05 2.70356e-05 7.25682e-05 )  
( -0.000141062 -0.000249884 -6.41639e-05 )  
( -3.98758e-05 -3.34333e-05 -4.35059e-05 )  
( 0.000204427 0.000100894 0.000201434 )  
( -2.11058e-05 4.39427e-05 0.00010066 )  
( 0.000145585 1.31249e-06 2.88104e-05 )  
( -5.7877e-05 -8.94692e-05 5.11298e-06 )  
( 3.7467e-05 -6.93946e-06 2.69319e-05 )  
( -1.30514e-05 -5.95531e-06 0.000217521 )  
( -1.67058e-05 -7.33066e-05 7.53202e-05 )  
( 2.95832e-05 7.27012e-05 -0.000192116 )  
( 0.00013762 -0.00013243 0.000147663 )  
( 4.53322e-05 2.08298e-05 -6.54345e-07 )  
( 1.15108e-06 -1.45017e-05 3.68221e-06 )  
( -4.26489e-06 -5.62409e-05 0.000151571 )  
( 8.4487e-05 -7.03628e-05 8.76251e-05 )  
( 0.000115385 -4.03337e-05 -1.7331e-05 )  
( 7.91596e-05 -1.60211e-05 8.4076e-06 )  
( 1.75494e-05 6.69054e-05 8.3851e-05 )  
( 0.000116951 0.000115653 1.54271e-05 )  
( 0.000108192 2.27006e-05 3.14114e-05 )  
( 0.000118981 0.000113662 0.000294954 )  
( 0.000142467 6.54749e-05 0.000204121 )  
( 9.16425e-05 -8.0685e-05 7.98841e-05 )  
( 7.06785e-05 0.000163146 0.00037827 )  
( 2.07923e-05 -5.1748e-05 9.68225e-05 )  
( -6.55552e-07 -3.51453e-05 0.000164086 )  
( 0.000146477 8.40837e-05 8.24505e-05 )  
( -7.69466e-05 -1.50102e-05 -1.54287e-06 )  
( 9.43602e-05 -1.90569e-05 0.000132852 )  
( -1.46184e-06 -1.24701e-05 8.91196e-06 )  
( 6.09939e-05 -3.08046e-05 7.22695e-05 )  
( 6.06905e-05 -2.38121e-05 4.31751e-05 )  
( 0.000191936 -4.28471e-05 1.30995e-05 )  
( 3.96532e-05 -4.0898e-06 8.40661e-05 )  
( 2.29869e-05 -5.99773e-05 3.98754e-05 )  
( -5.67867e-06 9.14424e-06 3.37928e-06 )  
( -8.16212e-06 1.48014e-06 6.83901e-06 )  
( 4.88191e-05 -8.89268e-07 8.21809e-05 )  
( 1.33125e-05 -3.38993e-05 8.89504e-06 )  
( 5.95154e-06 -6.30563e-05 0.000128083 )  
( -1.83518e-05 6.38995e-05 0.000228629 )  
( -0.000117848 -0.000114381 -2.54253e-06 )  
( 9.77093e-05 3.69985e-06 0.000103168 )  
( 5.93578e-05 -1.72702e-06 2.64934e-05 )  
( 1.82585e-05 -5.13614e-05 3.8777e-05 )  
( 4.56529e-05 1.16405e-05 0.000103341 )  
( 9.24983e-06 1.49349e-06 -1.19568e-05 )  
( 3.19827e-05 -3.64608e-05 0.000115701 )  
( 5.62664e-05 -1.78403e-05 5.46383e-05 )  
( 5.97717e-05 8.98571e-05 5.91298e-05 )  
( 5.24435e-05 -1.84269e-05 6.21587e-06 )  
( -3.29735e-05 -7.50205e-05 6.68801e-05 )  
( 0.000188705 -5.10582e-06 -4.39615e-05 )  
( -1.13251e-05 -4.22378e-05 0.000141744 )  
( 4.8722e-05 -3.82957e-05 0.000135247 )  
( 5.93214e-05 -3.7155e-05 4.95911e-05 )  
( 7.9241e-05 -7.32335e-05 8.48783e-05 )  
( 3.1394e-05 5.08919e-05 0.000206335 )  
( -6.26391e-05 -5.76328e-06 7.56627e-06 )  
( -3.34526e-05 -1.74095e-06 0.000107543 )  
( 1.52192e-05 7.57874e-06 4.60968e-05 )  
( -2.73533e-05 -0.000116034 3.20046e-05 )  
( 7.27127e-05 -0.000128686 0.000112088 )  
( 1.29218e-07 -5.01997e-06 -1.89914e-05 )  
( 0.000123234 7.63727e-05 0.000123524 )  
( 4.73004e-06 2.51656e-05 2.74646e-05 )  
( 5.47508e-05 8.58337e-06 9.71793e-05 )  
( -1.17101e-05 -1.07067e-05 5.19772e-05 )  
( 3.78747e-05 2.37301e-05 0.000178028 )  
( 8.52143e-05 4.37521e-05 0.000104721 )  
( 1.08553e-05 -2.69793e-05 1.23297e-05 )  
( 0.000108424 0.000245475 6.14958e-05 )  
( 0.000151318 4.88779e-05 4.67164e-05 )  
( -5.5578e-06 -2.95248e-05 0.00013611 )  
( 0.000191514 5.58868e-05 0.00018674 )  
( 4.15992e-05 -3.76692e-05 0.00010613 )  
( 8.18984e-05 0.000142394 0.000361657 )  
( 9.52924e-05 -1.16669e-05 3.38691e-05 )  
( 7.28319e-05 8.24886e-05 8.31509e-05 )  
( -3.34061e-05 -1.56742e-05 7.06759e-05 )  
( 2.08204e-05 -5.32439e-06 0.000114337 )  
( 1.20062e-05 -3.15958e-05 3.02123e-05 )  
( 0.000105957 -7.37572e-05 0.000204396 )  
( 4.21615e-05 -7.78254e-06 -5.49292e-05 )  
( 1.62823e-05 -3.78982e-05 7.23982e-05 )  
( 1.83085e-05 -9.72526e-06 3.03704e-05 )  
( -1.62736e-05 3.84588e-05 -2.35979e-05 )  
( -1.1138e-05 -2.44986e-05 -3.8873e-06 )  