/*--------------------------------*- C++ -*----------------------------------*\
| =========                 |                                                 |
| \\      /  F ield         | OpenFOAM: The Open Source CFD Toolbox           |
|  \\    /   O peration     | Version:  2506                                  |
|   \\  /    A nd           | Website:  www.openfoam.com                      |
|    \\/     M anipulation  |                                                 |
\*---------------------------------------------------------------------------*/
FoamFile
{
    version     2.0;
    format      ascii;
    arch        "LSB;label=32;scalar=64";
    class       volScalarField;
    location    "0.05";
    object      Ksl;
}
// * * * * * * * * * * * * * * * * * * * * * * * * * * * * * * * * * * * * * //

dimensions      [1 -3 -1 0 0 0 0];

internalField   nonuniform List<scalar> 
1152
(
173744
210395
198735
139775
189561
136332
158730
199512
204617
261492
253284
201053
234690
86523.1
194317
104642
239946
151663
308003
202268
204658
270657
193175
261816
195383
196979
400434
304032
204126
237133
258501
208578
186686
210348
258278
249744
267046
298948
229807
296836
273995
140627
271952
139781
202265
347364
295814
145044
139039
190271
176964
178892
303211
230224
208595
234753
163292
291015
284357
244069
240574
247485
357168
489447
202347
306275
250889
174473
159155
249494
157842
122405
232744
223535
297877
273468
268298
292094
417905
217327
205348
247131
207088
290285
184446
258490
169261
291021
207097
279393
297531
172888
409166
176981
203129
143326
28057.9
35374.6
35708.5
42703.7
53396.8
29200.6
116421
62741.1
39287.2
60082
68094.8
82766.2
24770.8
18600.9
60221.3
75217.6
0
0
0
0
0
0
0
0
0
0
0
0
0
0
0
0
0
0
0
0
0
0
0
0
0
0
0
0
0
0
0
0
0
0
0
0
0
0
0
0
0
0
0
0
0
0
0
0
0
0
0
0
0
0
0
0
0
0
0
0
0
0
0
0
0
0
0
0
0
0
0
0
0
0
0
0
0
0
0
0
0
0
0
0
0
0
0
0
0
0
0
0
0
0
0
0
0
0
0
0
0
0
0
0
0
0
0
0
0
0
0
0
0
0
0
0
0
0
0
0
0
0
0
0
0
0
0
0
0
0
0
0
0
0
0
0
0
0
0
0
0
0
0
0
0
0
0
0
0
0
0
0
0
0
0
0
0
0
0
0
0
0
0
0
0
0
0
0
0
0
0
0
0
0
0
0
0
0
0
0
0
0
0
0
0
0
0
0
0
0
0
0
0
0
0
0
0
0
0
0
0
0
0
0
0
0
0
0
0
0
0
0
0
0
0
0
0
0
0
0
0
0
0
0
0
0
0
0
0
0
0
0
0
0
0
0
0
0
0
0
0
0
0
0
0
0
0
0
0
0
0
0
0
0
0
0
0
0
0
0
0
0
0
0
0
0
0
0
0
0
0
0
244451
148199
156350
219391
165031
238395
187297
289179
199335
189241
130429
220131
165097
220430
286619
162158
182837
211675
240776
109612
245362
119958
233458
359850
192531
294647
290049
349120
143215
240586
353292
218632
210264
221402
240449
207748
177315
349131
173187
175333
254052
143273
256392
204093
314976
169838
188144
181342
239273
252325
155945
267942
213938
174376
295718
200972
231627
208951
219070
330908
299807
427751
250705
214316
206087
151777
181242
265849
241015
161930
432920
189816
173569
291982
226805
410526
149260
252617
249212
344177
68626.1
244170
252557
161139
235701
269888
250051
289043
209111
175224
208674
209448
183969
191650
266111
125063
77929.6
40507.5
27575.5
25145.9
101704
69009.4
74232.9
47156.9
121798
62430.1
74870.5
61725.5
81449.5
83619
72575.7
74749.6
0
0
0
0
0
0
0
0
0
0
0
0
0
0
0
0
0
0
0
0
0
0
0
0
0
0
0
0
0
0
0
0
0
0
0
0
0
0
0
0
0
0
0
0
0
0
0
0
0
0
0
0
0
0
0
0
0
0
0
0
0
0
0
0
0
0
0
0
0
0
0
0
0
0
0
0
0
0
0
0
0
0
0
0
0
0
0
0
0
0
0
0
0
0
0
0
0
0
0
0
0
0
0
0
0
0
0
0
0
0
0
0
0
0
0
0
0
0
0
0
0
0
0
0
0
0
0
0
0
0
0
0
0
0
0
0
0
0
0
0
0
0
0
0
0
0
0
0
0
0
0
0
0
0
0
0
0
0
0
0
0
0
0
0
0
0
0
0
0
0
0
0
0
0
0
0
0
0
0
0
0
0
0
0
0
0
0
0
0
0
0
0
0
0
0
0
0
0
0
0
0
0
0
0
0
0
0
0
0
0
0
0
0
0
0
0
0
0
0
0
0
0
0
0
0
0
0
0
0
0
0
0
0
0
0
0
0
0
0
0
0
0
0
0
0
0
0
0
0
0
0
0
0
0
0
0
0
0
0
0
0
0
0
0
0
0
0
0
0
0
0
0
159748
174723
247240
222527
149521
162463
175430
192036
170857
272575
175625
226333
175976
243183
134269
301366
176740
236767
216886
223809
245936
202122
198265
252144
209304
268958
253608
227978
315167
347766
174556
228378
212252
143532
256668
188542
283176
198973
181246
243763
193625
168068
277781
187685
345625
249574
225691
233794
153327
264382
239783
253892
192321
145764
261476
144177
217108
322607
311594
259082
293698
205967
175041
196998
214162
199107
222343
210588
283624
262143
142360
287402
154905
185879
262378
401436
218773
273247
325332
264476
187493
239782
245833
199565
344575
244738
208425
221485
121165
350490
239037
260847
289695
163489
173939
287930
35094.9
40102.7
54455.6
49360
72729.7
33316.5
28730.7
27988.1
58684.3
24376.2
42410.9
36213.9
51116.3
15732.8
39044.8
38435
0
0
0
0
0
0
0
0
0
0
0
0
0
0
0
0
0
0
0
0
0
0
0
0
0
0
0
0
0
0
0
0
0
0
0
0
0
0
0
0
0
0
0
0
0
0
0
0
0
0
0
0
0
0
0
0
0
0
0
0
0
0
0
0
0
0
0
0
0
0
0
0
0
0
0
0
0
0
0
0
0
0
0
0
0
0
0
0
0
0
0
0
0
0
0
0
0
0
0
0
0
0
0
0
0
0
0
0
0
0
0
0
0
0
0
0
0
0
0
0
0
0
0
0
0
0
0
0
0
0
0
0
0
0
0
0
0
0
0
0
0
0
0
0
0
0
0
0
0
0
0
0
0
0
0
0
0
0
0
0
0
0
0
0
0
0
0
0
0
0
0
0
0
0
0
0
0
0
0
0
0
0
0
0
0
0
0
0
0
0
0
0
0
0
0
0
0
0
0
0
0
0
0
0
0
0
0
0
0
0
0
0
0
0
0
0
0
0
0
0
0
0
0
0
0
0
0
0
0
0
0
0
0
0
0
0
0
0
0
0
0
0
0
0
0
0
0
0
0
0
0
0
0
0
0
0
0
0
0
0
0
0
0
0
0
0
0
0
0
0
0
0
)
;

boundaryField
{
    inlet
    {
        type            zeroGradient;
    }
    outlet
    {
        type            zeroGradient;
    }
    wall
    {
        type            zeroGradient;
    }
    procBoundary0to1
    {
        type            processor;
        value           nonuniform List<scalar> 
192
(
210803
120976
177391
206929
539859
262542
350737
253120
169668
263797
250595
222836
305637
200516
303572
208755
275144
474116
180488
363870
206447
168821
239792
310028
44043.3
155999
86848.9
166533
0
0
0
0
0
0
0
0
0
0
0
0
0
0
0
0
0
0
0
0
0
0
0
0
0
0
0
0
0
0
0
0
0
0
0
0
0
0
0
0
0
0
0
0
0
0
0
0
0
0
0
0
0
0
0
0
0
0
0
0
0
0
0
0
0
0
0
0
175834
205305
156446
133002
204512
261883
191767
252027
206589
206942
261029
288474
185331
258695
200549
372658
172449
266970
161054
236790
203061
234650
261099
103553
54100.1
50665.3
39587.6
40846.4
0
0
0
0
0
0
0
0
0
0
0
0
0
0
0
0
0
0
0
0
0
0
0
0
0
0
0
0
0
0
0
0
0
0
0
0
0
0
0
0
0
0
0
0
0
0
0
0
0
0
0
0
0
0
0
0
0
0
0
0
0
0
0
0
0
0
0
0
)
;
    }
    procBoundary0to2
    {
        type            processor;
        value           nonuniform List<scalar> 
192
(
155586
261550
332999
168057
312592
318415
164289
174543
469054
145091
256813
281043
183330
239534
167975
174241
285072
206303
155102
311184
159658
368387
328104
227870
40209
65409.6
40038.4
75265.2
0
0
0
0
0
0
0
0
0
0
0
0
0
0
0
0
0
0
0
0
0
0
0
0
0
0
0
0
0
0
0
0
0
0
0
0
0
0
0
0
0
0
0
0
0
0
0
0
0
0
0
0
0
0
0
0
0
0
0
0
0
0
0
0
0
0
0
0
226556
137710
144366
224302
214920
205745
135550
361524
188379
220226
212904
239749
162534
103116
179214
285326
196534
220586
231718
259027
248964
199108
193867
241123
68289.5
72119.4
49659.5
75502.4
0
0
0
0
0
0
0
0
0
0
0
0
0
0
0
0
0
0
0
0
0
0
0
0
0
0
0
0
0
0
0
0
0
0
0
0
0
0
0
0
0
0
0
0
0
0
0
0
0
0
0
0
0
0
0
0
0
0
0
0
0
0
0
0
0
0
0
0
)
;
    }
}


// ************************************************************************* //
