/*--------------------------------*- C++ -*----------------------------------*\
| =========                 |                                                 |
| \\      /  F ield         | OpenFOAM: The Open Source CFD Toolbox           |
|  \\    /   O peration     | Version:  2506                                  |
|   \\  /    A nd           | Website:  www.openfoam.com                      |
|    \\/     M anipulation  |                                                 |
\*---------------------------------------------------------------------------*/
FoamFile
{
    version     2.0;
    format      ascii;
    arch        "LSB;label=32;scalar=64";
    class       surfaceScalarField;
    location    "0.05";
    object      phi;
}
// * * * * * * * * * * * * * * * * * * * * * * * * * * * * * * * * * * * * * //

dimensions      [0 3 -1 0 0 0 0];

oriented        oriented;

internalField   nonuniform List<scalar> 
3120
(
-1.44733e-09
-3.69885e-09
3.36137e-08
4.32181e-09
-2.60963e-11
-3.93716e-09
-2.85965e-09
4.11595e-08
-2.93583e-09
-4.48985e-10
-6.57073e-10
2.50083e-08
4.62106e-09
-3.80176e-09
4.1989e-08
-2.31214e-09
2.92898e-10
-1.32736e-09
3.34385e-08
-3.115e-09
-4.09076e-09
-3.58415e-09
3.82577e-08
-3.98353e-09
-6.84164e-09
3.91456e-08
-1.51588e-09
2.64872e-08
-8.68191e-10
-6.15219e-10
3.43692e-08
-1.52174e-09
-3.65814e-09
3.01382e-09
2.92352e-08
1.71355e-09
3.57175e-09
1.66159e-08
7.52656e-09
2.71213e-08
4.70564e-09
2.96987e-08
9.81278e-10
-6.36083e-09
5.84906e-08
5.00723e-09
2.63751e-08
5.56766e-08
-1.97758e-09
-3.22994e-09
3.66224e-08
2.58993e-09
-3.91171e-10
-3.38116e-09
-6.24689e-09
4.69906e-08
1.81935e-09
-2.06794e-09
-1.46604e-09
2.44454e-08
7.15728e-10
-7.7961e-10
3.42057e-08
5.00533e-09
-3.18326e-09
-8.37433e-10
3.00979e-08
4.13133e-09
2.31831e-10
5.01044e-09
2.35852e-08
-6.30082e-10
1.93385e-09
3.66076e-08
4.07553e-09
2.36925e-08
2.20826e-09
-2.02703e-09
3.21731e-08
1.17742e-09
-1.59329e-09
-1.17703e-08
4.98175e-08
1.84995e-09
-2.07755e-09
1.71841e-08
-5.62597e-09
4.22361e-08
-8.98466e-09
3.78477e-08
3.04674e-09
3.9915e-09
2.47998e-08
1.35205e-09
2.20932e-08
4.96974e-08
-3.59867e-09
-4.34969e-09
5.23307e-08
-7.56209e-09
-1.97874e-10
3.46975e-09
-1.75475e-09
3.80754e-08
3.60164e-09
-1.00927e-09
-3.43916e-09
3.42656e-08
-1.90208e-09
-1.09455e-09
3.69564e-08
-4.16012e-10
8.99283e-10
2.4051e-10
2.27545e-08
1.85394e-09
1.12371e-09
-3.95507e-09
2.55611e-08
9.48846e-10
-1.05944e-09
3.44028e-08
-3.74173e-09
2.67938e-08
-2.86758e-09
-1.39082e-09
3.6989e-08
-3.17043e-10
2.59862e-09
-7.4124e-10
4.11375e-08
-3.97249e-11
-2.57431e-09
2.13373e-08
-7.95004e-09
4.48707e-08
-3.93295e-10
3.21429e-08
9.14704e-10
-1.16366e-10
2.05758e-08
6.90269e-10
1.67002e-08
3.48211e-08
-2.30807e-09
2.77182e-09
5.06186e-08
-1.2349e-09
2.48329e-09
3.11197e-09
1.06338e-09
3.03562e-08
1.23577e-09
2.22205e-09
2.34213e-09
3.51771e-08
-2.36375e-09
3.08255e-09
4.44693e-08
-3.50043e-09
-4.74158e-10
-5.68099e-09
3.70426e-08
-5.3611e-09
3.59705e-09
-5.14654e-09
2.76998e-08
3.46295e-09
-5.27169e-09
4.21507e-08
-1.05885e-08
5.01741e-08
-3.08488e-09
-2.79441e-09
4.13156e-08
-4.12828e-09
2.6218e-09
2.03541e-09
2.82489e-08
-1.79116e-09
-4.68112e-10
2.09467e-08
-4.31668e-10
2.82123e-08
1.90757e-09
2.65108e-08
-3.18038e-09
2.74718e-10
2.4916e-08
-9.55552e-10
1.37183e-08
2.43888e-08
1.7193e-10
3.23914e-09
3.98931e-08
3.54398e-09
3.77041e-09
6.26939e-10
6.93043e-10
2.59954e-08
3.21278e-09
6.82863e-10
1.58312e-09
3.20967e-08
1.44136e-09
1.69602e-09
3.5943e-08
1.29206e-09
-1.00027e-09
-3.69124e-09
4.79201e-08
-2.94674e-09
9.58683e-10
1.60456e-10
2.62734e-08
-5.05391e-10
4.51244e-10
4.47466e-08
3.48779e-09
4.56967e-08
1.76616e-09
-2.43306e-10
3.388e-08
2.22146e-09
8.46829e-10
2.088e-09
2.72407e-08
1.45871e-09
1.87505e-09
1.89111e-08
3.62383e-09
3.02148e-08
3.02272e-09
1.85166e-08
3.35893e-09
1.00113e-09
3.33251e-08
1.61677e-09
2.2522e-08
4.05493e-08
1.749e-09
-5.49364e-09
4.58561e-08
-3.74311e-10
-1.84425e-09
-2.47063e-09
-1.12764e-09
2.98931e-08
1.44962e-09
-1.08831e-09
-1.00697e-08
3.89225e-08
1.86155e-09
-4.76925e-09
3.74347e-08
2.21048e-09
4.72159e-09
3.18707e-09
3.34978e-08
1.01996e-09
-1.00251e-08
-1.31261e-09
4.12051e-08
-9.39108e-10
4.74981e-09
2.08411e-08
2.02581e-09
3.68269e-08
-5.48015e-12
2.33228e-09
3.70979e-08
-2.35762e-09
-1.60293e-09
3.64551e-09
2.388e-08
-3.81518e-09
1.55663e-09
2.43165e-08
2.41672e-09
2.80449e-08
3.79136e-11
3.46851e-08
-9.90187e-09
-5.78915e-09
4.64938e-08
-8.05197e-09
2.66107e-08
3.37591e-08
2.25323e-09
4.46195e-10
4.09182e-08
-7.31976e-10
2.97031e-09
-1.97931e-10
-2.47236e-09
3.47707e-08
4.61628e-11
4.06628e-10
1.3758e-09
3.61856e-08
7.56965e-10
-3.34804e-09
3.81999e-08
2.37894e-09
7.96668e-10
3.38251e-10
3.35945e-08
-7.85009e-10
2.26073e-09
8.51078e-10
3.64179e-08
3.89316e-09
-6.83436e-10
2.12681e-08
-1.75155e-09
3.28355e-08
1.22038e-09
3.51585e-10
3.56844e-08
1.795e-10
1.49852e-10
-2.01764e-09
2.78193e-08
-5.00957e-11
-7.95914e-10
2.4629e-08
-8.85241e-10
2.70081e-08
-1.02274e-09
3.64913e-08
4.11134e-10
4.97056e-10
4.14738e-08
-1.54798e-09
2.93548e-08
3.04053e-08
-1.2037e-09
3.18965e-10
3.71954e-08
2.10538e-09
2.50451e-09
5.51731e-10
8.99897e-10
3.39006e-08
-1.78531e-09
9.64962e-10
2.02853e-09
3.39055e-08
-1.6153e-10
6.83728e-10
3.73684e-08
2.36753e-10
-2.5455e-09
-7.63168e-10
3.46165e-08
2.60503e-09
1.72283e-09
4.53703e-10
3.25954e-08
9.81639e-10
-9.08899e-10
2.49467e-08
-9.10432e-10
3.44505e-08
-1.35283e-09
-1.46157e-09
3.3911e-08
3.82473e-09
-1.27182e-10
-1.87774e-09
2.89242e-08
-3.01337e-11
-1.52892e-09
2.5152e-08
-1.79851e-09
2.82313e-08
-3.39747e-09
3.33981e-08
5.36496e-09
7.30078e-10
3.39817e-08
1.60769e-10
2.95633e-08
2.83849e-08
2.32683e-09
2.82087e-09
3.49262e-08
-1.74903e-09
-1.12934e-09
1.82569e-09
2.89617e-09
3.36574e-08
-2.15196e-09
4.13998e-10
3.93047e-09
3.28136e-08
-1.42721e-09
2.71029e-09
3.3866e-08
-2.36054e-10
1.35182e-09
1.51097e-09
3.3256e-08
1.31773e-09
2.4833e-09
2.16099e-09
3.21986e-08
3.16689e-10
1.47787e-09
2.95657e-08
2.84305e-09
3.2007e-08
2.05852e-09
5.93994e-10
3.27243e-08
4.50667e-11
2.05383e-09
2.38575e-10
3.08505e-08
2.80495e-10
-6.5526e-10
2.90584e-08
1.05917e-09
2.98866e-08
8.3876e-10
3.2707e-08
8.87963e-10
2.17207e-09
3.22733e-08
1.69063e-09
3.04686e-08
2.95209e-08
8.97671e-10
1.56122e-09
3.38125e-08
-4.92124e-10
-8.54173e-10
9.85188e-10
1.91421e-09
3.32293e-08
-1.57324e-09
4.17615e-10
2.3109e-09
3.26855e-08
-1.61527e-09
2.0488e-09
3.28533e-08
-1.31602e-09
6.85518e-10
8.3444e-10
3.28073e-08
4.90079e-10
1.20671e-09
1.26543e-09
3.23269e-08
4.0245e-10
1.20026e-09
3.14808e-08
1.61365e-09
3.18679e-08
1.17066e-09
2.52205e-10
3.25219e-08
-3.86238e-10
1.24991e-09
2.30907e-10
3.1806e-08
4.35847e-10
2.62164e-11
3.10463e-08
5.51231e-10
3.11258e-08
9.03666e-10
3.25379e-08
-2.35225e-10
1.31525e-09
3.20791e-08
9.46413e-10
3.13395e-08
3.0874e-08
7.93204e-10
1.30226e-09
3.34073e-08
-6.11445e-10
-1.07813e-09
7.82963e-10
1.30405e-09
3.31122e-08
-1.17617e-09
4.73899e-10
1.33259e-09
3.28069e-08
-1.14462e-09
1.24985e-09
3.27486e-08
-1.0467e-09
5.928e-10
7.88657e-10
3.28488e-08
-1.20254e-10
7.33973e-10
8.7929e-10
3.2611e-08
4.1072e-10
8.6273e-10
3.22743e-08
9.05966e-10
3.22505e-08
7.26071e-10
3.4113e-10
3.26567e-08
-4.12995e-10
7.4113e-10
3.26864e-10
3.23437e-08
3.85181e-10
2.6328e-10
3.2002e-08
3.45899e-10
3.1926e-08
6.64214e-10
3.26286e-08
-3.4855e-10
7.32079e-10
3.235e-08
4.73399e-10
3.20125e-08
3.18004e-08
3.96995e-10
7.70255e-10
3.31987e-08
-2.69094e-10
-6.89001e-10
4.19617e-10
7.74861e-10
3.30521e-08
-7.37157e-10
2.99271e-10
7.69878e-10
3.28955e-08
-7.38181e-10
7.31818e-10
3.28224e-08
-7.08267e-10
3.33198e-10
5.04598e-10
3.29077e-08
-1.26319e-10
3.85825e-10
5.44533e-10
3.27889e-08
2.57118e-10
5.38532e-10
3.26344e-08
5.17289e-10
3.25734e-08
3.94238e-10
2.52766e-10
3.27871e-08
-2.72521e-10
3.89051e-10
2.54985e-10
3.26387e-08
2.23685e-10
2.26413e-10
3.24796e-08
2.08418e-10
3.24113e-08
3.83152e-10
3.27496e-08
-2.65169e-10
3.72152e-10
3.26039e-08
2.08963e-10
3.24446e-08
3.2348e-08
2.01338e-10
4.53011e-10
3.31037e-08
-1.30141e-10
-4.29055e-10
2.17602e-10
4.4846e-10
3.30287e-08
-4.41281e-10
1.65703e-10
4.36512e-10
3.29491e-08
-4.38216e-10
4.09304e-10
3.28988e-08
-4.21217e-10
1.76606e-10
3.17819e-10
3.29514e-08
-8.5058e-11
1.9589e-10
3.28851e-10
3.28892e-08
1.34927e-10
3.17395e-10
3.28144e-08
2.89752e-10
3.27709e-08
1.98086e-10
1.77851e-10
3.28759e-08
-1.46912e-10
1.88718e-10
1.73956e-10
3.2803e-08
1.05571e-10
1.52959e-10
3.27271e-08
1.22019e-10
3.26858e-08
1.90755e-10
3.28437e-08
-1.47264e-10
1.70101e-10
3.27702e-08
7.58962e-11
3.26953e-08
3.26521e-08
9.58966e-11
2.58995e-10
3.30572e-08
-5.74601e-11
-2.50809e-10
1.0568e-10
2.54724e-10
3.30191e-08
-2.54791e-10
8.25683e-11
2.44467e-10
3.29787e-08
-2.51023e-10
2.25282e-10
3.29495e-08
-2.39012e-10
8.61675e-11
1.93262e-10
3.29767e-08
-4.57002e-11
9.23325e-11
1.93937e-10
3.29441e-08
6.17254e-11
1.82582e-10
3.2907e-08
1.60553e-10
3.28821e-08
9.16502e-11
1.18307e-10
3.29302e-08
-7.08612e-11
8.29159e-11
1.11855e-10
3.28941e-08
3.96879e-11
9.52198e-11
3.28577e-08
6.98741e-11
3.28363e-08
8.43127e-11
3.29063e-08
-7.01964e-11
6.68453e-11
3.28703e-08
1.48005e-11
3.2836e-08
3.28178e-08
4.21763e-11
1.47617e-10
3.30344e-08
-2.25167e-11
-1.44449e-10
4.73035e-11
1.44487e-10
3.30153e-08
-1.45586e-10
3.63008e-11
1.37016e-10
3.29951e-08
-1.42332e-10
1.24009e-10
3.29796e-08
-1.3384e-10
3.7807e-11
1.15826e-10
3.29911e-08
-2.01507e-11
3.89065e-11
1.13533e-10
3.29743e-08
2.26475e-11
1.04444e-10
3.29561e-08
8.89706e-11
3.29434e-08
3.76118e-11
7.59024e-11
3.29628e-08
-3.00255e-11
3.06634e-11
6.97437e-11
3.29452e-08
7.31483e-12
5.75438e-11
3.29282e-08
3.98006e-11
3.29184e-08
3.12344e-11
3.29465e-08
-2.85296e-11
1.86229e-11
3.29295e-08
-1.02085e-11
3.29145e-08
3.2908e-08
1.55091e-11
8.45508e-11
3.30234e-08
-5.89782e-12
-8.31398e-11
1.78935e-11
8.22734e-11
3.30142e-08
-8.31343e-11
1.22947e-11
7.70719e-11
3.30044e-08
-8.05513e-11
6.8457e-11
3.29967e-08
-7.46283e-11
1.3086e-11
6.89671e-11
3.29997e-08
-5.71188e-12
1.24266e-11
6.63075e-11
3.29914e-08
3.39505e-12
5.97007e-11
3.29829e-08
4.93872e-11
3.29771e-08
1.13126e-11
4.75063e-11
3.29827e-08
-9.35408e-12
6.16122e-12
4.26592e-11
3.29745e-08
-6.79071e-12
3.42285e-11
3.2967e-08
2.26679e-11
3.29632e-08
6.40402e-12
3.2972e-08
-7.69224e-12
-2.20978e-12
3.29645e-08
-1.82412e-11
3.29586e-08
3.29572e-08
2.95414e-12
4.88424e-11
3.30182e-08
1.5215e-12
-4.81819e-11
3.80693e-12
4.71166e-11
3.30142e-08
-4.76406e-11
7.5732e-13
4.35656e-11
3.30098e-08
-4.5659e-11
3.79017e-11
3.30064e-08
-4.15609e-11
1.40443e-12
4.09738e-11
3.3005e-08
1.45608e-12
1.61412e-13
3.87464e-11
3.30015e-08
-4.99829e-12
3.4137e-11
3.29978e-08
2.74258e-11
3.29956e-08
-5.34961e-13
2.91962e-11
3.29949e-08
3.83177e-13
-4.26682e-12
2.57663e-11
3.29916e-08
-1.16627e-11
2.01259e-11
3.29888e-08
1.27815e-11
3.29879e-08
-4.12063e-12
3.29882e-08
1.77318e-12
-9.87265e-12
3.29854e-08
-1.89548e-11
3.29837e-08
3.29844e-08
-2.55295e-12
2.84025e-11
3.30161e-08
4.34253e-12
-2.81087e-11
-2.40731e-12
2.7175e-11
3.30146e-08
-2.74735e-11
-4.15638e-12
2.47409e-11
3.3013e-08
-2.59565e-11
2.10396e-11
3.30118e-08
-2.31957e-11
-3.72256e-12
2.43419e-11
3.30087e-08
4.37823e-12
-4.86073e-12
2.26315e-11
3.30075e-08
-7.90235e-12
1.95246e-11
3.30063e-08
1.51635e-11
3.30058e-08
-5.27367e-12
1.77825e-11
3.30027e-08
4.26229e-12
-7.90628e-12
1.53805e-11
3.30017e-08
-1.22505e-11
1.1682e-11
3.30011e-08
6.94318e-12
3.30015e-08
-7.68181e-12
3.29986e-08
5.38008e-12
-1.1596e-11
3.2998e-08
-1.69649e-11
3.29981e-08
3.29994e-08
-4.45145e-12
1.66414e-11
3.30154e-08
4.97822e-12
-1.65236e-11
-4.65132e-12
1.5742e-11
3.30153e-08
-1.59344e-11
-5.74237e-12
1.4084e-11
3.3015e-08
-1.48083e-11
1.16596e-11
3.30148e-08
-1.29559e-11
-5.30155e-12
1.44492e-11
3.30113e-08
5.13337e-12
-6.32139e-12
1.3209e-11
3.30112e-08
-8.18905e-12
1.11296e-11
3.30112e-08
8.27796e-12
3.30115e-08
-6.46595e-12
1.07195e-11
3.30078e-08
5.33516e-12
-8.37971e-12
9.09144e-12
3.30078e-08
-1.1039e-11
6.65082e-12
3.30082e-08
3.49453e-12
3.30091e-08
-8.09464e-12
3.30052e-08
6.15083e-12
-1.08103e-11
3.30056e-08
-1.41974e-11
3.30064e-08
3.3008e-08
-4.62821e-12
9.77571e-12
3.30154e-08
4.61729e-12
-9.74029e-12
-4.98025e-12
9.11182e-12
3.30159e-08
-9.26476e-12
-5.73513e-12
7.98425e-12
3.30163e-08
-8.44912e-12
6.40906e-12
3.30167e-08
-7.19715e-12
-5.26638e-12
8.52773e-12
3.30131e-08
4.80411e-12
-6.11895e-12
7.65999e-12
3.30136e-08
-7.32042e-12
6.28975e-12
3.30141e-08
4.4634e-12
3.30148e-08
-6.0976e-12
6.35794e-12
3.30111e-08
5.06595e-12
-7.48344e-12
5.28961e-12
3.30116e-08
-9.14854e-12
3.69706e-12
3.30124e-08
1.65546e-12
3.30135e-08
-7.18287e-12
3.30096e-08
5.64263e-12
-9.0635e-12
3.30103e-08
-1.12565e-11
3.30114e-08
3.3013e-08
-4.02137e-12
5.6884e-12
3.30157e-08
3.81886e-12
-5.68819e-12
-4.40668e-12
5.20518e-12
3.30165e-08
-5.34518e-12
-4.96449e-12
4.45683e-12
3.30172e-08
-4.76863e-12
3.4675e-12
3.30179e-08
-3.92305e-12
-4.49411e-12
4.93997e-12
3.30144e-08
3.97553e-12
-5.16539e-12
4.35678e-12
3.30152e-08
-5.95883e-12
3.49338e-12
3.30159e-08
2.40205e-12
3.30168e-08
-5.05827e-12
3.65635e-12
3.30133e-08
4.2055e-12
-6.02598e-12
2.97374e-12
3.3014e-08
-7.05309e-12
1.98665e-12
3.3015e-08
8.68972e-13
3.30161e-08
-5.75019e-12
3.30124e-08
4.60567e-12
-7.01186e-12
3.30133e-08
-8.41047e-12
3.30144e-08
3.30159e-08
-3.07197e-12
3.19156e-12
3.3016e-08
2.8426e-12
-3.20741e-12
-3.4107e-12
2.86125e-12
3.30169e-08
-2.98182e-12
-3.81248e-12
2.39059e-12
3.30178e-08
-2.59222e-12
1.79902e-12
3.30187e-08
-2.04042e-12
-3.39942e-12
2.73379e-12
3.30153e-08
2.94929e-12
-3.88966e-12
2.37009e-12
3.30162e-08
-4.407e-12
1.86074e-12
3.30171e-08
1.24364e-12
3.30181e-08
-3.75347e-12
1.98637e-12
3.30147e-08
3.11898e-12
-4.39565e-12
1.58867e-12
3.30155e-08
-5.03279e-12
1.02572e-12
3.30165e-08
3.82985e-13
3.30177e-08
-4.16325e-12
3.30142e-08
3.38786e-12
-4.9446e-12
3.30151e-08
-5.74691e-12
3.30162e-08
3.30176e-08
-2.04652e-12
1.61125e-12
3.30162e-08
1.85801e-12
-1.64073e-12
-2.284e-12
1.41307e-12
3.30172e-08
-1.50424e-12
-2.53536e-12
1.14574e-12
3.30182e-08
-1.26799e-12
8.18585e-13
3.30192e-08
-9.42452e-13
-2.24518e-12
1.34812e-12
3.30159e-08
1.92742e-12
-2.55929e-12
1.1411e-12
3.30168e-08
-2.8646e-12
8.65938e-13
3.30178e-08
5.44448e-13
3.30188e-08
-2.44762e-12
9.39589e-13
3.30155e-08
2.03636e-12
-2.8297e-12
7.19552e-13
3.30164e-08
-3.19668e-12
4.40635e-13
3.30174e-08
1.08478e-13
3.30185e-08
-2.66546e-12
3.30153e-08
2.19525e-12
-3.10878e-12
3.30161e-08
-3.53428e-12
3.30172e-08
3.30184e-08
-1.22887e-12
6.42034e-13
1.08539e-12
-6.93271e-13
-1.36865e-12
5.19208e-13
-5.93317e-13
-1.49831e-12
3.6055e-13
-4.47172e-13
1.75653e-13
-2.59456e-13
-1.35573e-12
4.97137e-13
1.16142e-12
-1.53078e-12
3.67477e-13
-1.68888e-12
2.08599e-13
2.35819e-14
-1.48372e-12
2.82864e-13
1.24929e-12
-1.69194e-12
1.52653e-13
-1.87597e-12
-5.08049e-15
-1.84866e-13
-1.61335e-12
1.35198e-12
-1.84935e-12
-2.0549e-12
1.96676e-09
1.74219e-10
2.91486e-08
7.34219e-10
-2.55937e-09
6.19366e-12
3.22129e-08
-3.7527e-10
3.68165e-10
-2.86939e-09
2.49822e-08
-1.22493e-09
-5.16313e-09
3.21988e-08
-2.24976e-09
1.90343e-09
-1.24141e-09
4.02065e-08
-5.5999e-09
-3.35993e-09
4.62293e-08
-4.98066e-09
-1.90026e-09
3.0295e-08
-7.93886e-11
1.42205e-08
-4.75068e-09
3.7752e-09
4.57486e-08
-2.86249e-09
9.32097e-10
3.47411e-08
-7.16814e-09
-3.57847e-09
4.23259e-08
2.14068e-09
2.13056e-08
-1.04893e-08
6.47531e-08
-5.30783e-09
3.52635e-08
1.5396e-09
1.99525e-08
4.03541e-08
-4.46909e-09
-2.63197e-10
3.5613e-08
-6.89909e-10
-7.65907e-10
1.06962e-09
2.7681e-08
-2.4089e-10
2.03215e-09
5.62185e-10
2.11523e-08
4.69716e-10
2.43534e-09
3.61252e-08
-1.73979e-09
-7.18152e-10
-9.10045e-10
4.17362e-08
1.27662e-10
1.50531e-09
4.49478e-08
1.58356e-09
-4.23592e-09
3.36372e-08
-1.76104e-09
2.41318e-08
3.96065e-09
-1.8497e-09
4.31049e-08
-6.3863e-09
-4.75642e-10
4.70689e-08
2.95891e-09
2.70365e-09
2.6041e-08
-5.74615e-10
2.42555e-08
7.76152e-09
5.1177e-08
1.41978e-10
4.48608e-08
-3.37711e-09
3.04763e-08
3.99547e-08
1.88899e-09
-1.29626e-10
3.21817e-08
1.78501e-09
3.08381e-09
-1.39382e-09
2.66031e-08
1.27693e-09
-5.16369e-09
-1.93042e-09
3.09567e-08
3.73503e-10
2.06807e-09
1.88627e-08
2.46851e-09
-4.40953e-09
-1.12335e-09
4.70795e-08
1.8277e-09
2.16568e-09
3.5151e-08
2.81892e-09
7.59968e-10
2.99557e-08
-1.36928e-09
3.2242e-08
4.43982e-09
-2.4574e-09
4.03077e-08
1.04453e-09
-3.40043e-09
5.60303e-08
-7.06483e-10
-1.21945e-09
2.97714e-08
-1.32113e-09
2.31839e-08
8.24218e-09
3.25802e-08
4.28522e-09
3.76216e-08
-9.56634e-10
3.65258e-08
3.76082e-08
5.22365e-10
-3.08167e-09
3.60443e-08
-1.53299e-09
-3.79928e-09
-3.22773e-09
3.5292e-08
-1.13957e-09
-3.55329e-09
-4.93924e-09
3.52467e-08
4.03345e-10
-2.06658e-09
1.48988e-08
1.24229e-09
4.43086e-09
1.71512e-09
3.73219e-08
-6.91216e-09
-6.03766e-09
4.9304e-08
3.22939e-09
-3.05337e-11
1.49055e-08
-3.49335e-09
3.15371e-08
-1.0167e-08
2.61338e-09
4.95193e-08
2.44274e-09
-8.34735e-10
3.82177e-08
-1.45135e-09
-2.4334e-09
3.60684e-08
-9.71687e-10
1.50826e-08
-8.00314e-09
5.15959e-08
2.15366e-10
2.53979e-08
-4.73532e-11
3.29112e-08
3.04572e-08
-2.4062e-08
-8.212e-09
7.42873e-08
-5.73364e-09
-8.6923e-09
-6.76963e-09
2.99932e-08
-3.30103e-09
1.60351e-09
-8.98915e-10
2.57206e-08
1.29177e-10
-2.13044e-09
2.25257e-08
-3.48904e-10
-1.07572e-09
-3.9586e-10
3.05443e-08
2.92637e-09
5.36225e-10
3.79961e-08
2.35918e-10
-1.55612e-10
1.68527e-08
1.49146e-09
2.52044e-08
1.21975e-09
1.44284e-09
4.65164e-08
8.56343e-10
5.42494e-10
3.85748e-08
2.66366e-09
-6.52883e-10
3.47584e-08
5.81458e-10
2.08778e-08
1.40685e-09
6.33076e-08
-1.38078e-09
3.74296e-08
5.04004e-09
2.85428e-08
4.23682e-08
1.97989e-08
-3.43133e-09
5.00802e-08
8.41816e-09
7.75221e-09
-1.38424e-09
4.25301e-08
8.94365e-10
2.36255e-09
-2.20231e-09
3.64305e-08
-3.11799e-09
-2.95397e-09
2.89024e-08
-1.43448e-09
3.11975e-09
-2.71207e-09
2.67034e-08
5.74556e-09
-5.22028e-10
3.45081e-08
1.85556e-09
-2.52992e-09
2.10704e-08
-1.18892e-09
2.63149e-08
1.10479e-08
5.43314e-10
3.21006e-08
3.76659e-09
-1.47552e-09
4.68097e-08
4.75415e-09
-6.60892e-11
3.1307e-08
-3.45236e-09
2.55378e-08
7.94848e-09
5.38155e-08
4.62336e-09
3.8754e-08
2.53477e-09
2.95482e-08
3.07162e-08
-6.34092e-09
-1.53003e-09
4.39794e-08
1.5462e-09
-1.42421e-09
-6.6731e-10
3.7149e-08
1.13102e-09
9.73541e-10
1.01496e-09
3.184e-08
1.17726e-09
7.57467e-10
2.53981e-08
2.98843e-09
-9.69168e-10
-3.30508e-10
2.65347e-08
9.60439e-10
-5.00204e-10
3.24112e-08
-3.45849e-10
-3.3358e-10
2.37253e-08
1.54046e-10
2.57868e-08
-1.20973e-09
-7.87256e-10
3.35336e-08
8.82914e-10
-3.24001e-10
4.45405e-08
5.94402e-10
-3.1372e-10
3.15752e-08
-1.09632e-09
2.75618e-08
5.4527e-10
5.50357e-08
-3.65622e-10
4.02044e-08
-7.48005e-10
3.10813e-08
2.93791e-08
-4.01809e-09
-1.6775e-10
4.88386e-08
-6.72218e-10
-4.53846e-09
-5.70961e-11
3.81525e-08
-4.2401e-10
-2.81869e-09
1.21528e-09
2.91559e-08
-2.49278e-10
1.74865e-09
2.30097e-08
-7.43768e-11
-3.09047e-09
-2.0609e-10
2.96651e-08
-2.2732e-09
-1.42514e-11
3.15516e-08
-3.16619e-09
5.80628e-10
2.52532e-08
1.39307e-09
2.55804e-08
-3.4364e-09
-6.21534e-11
3.68268e-08
-2.15954e-09
5.20815e-10
4.27285e-08
-2.91832e-09
9.15073e-11
3.28238e-08
2.16926e-10
2.96444e-08
-1.496e-09
5.6361e-08
-3.35197e-09
4.30765e-08
-4.64314e-09
3.38795e-08
3.04659e-08
3.22224e-09
5.16032e-09
4.02068e-08
2.50942e-10
3.78315e-09
4.06382e-09
3.30873e-08
4.41866e-10
2.56928e-09
3.80605e-09
2.6337e-08
2.27024e-10
3.10056e-09
2.07512e-08
-2.26603e-11
-2.05196e-09
9.69534e-10
3.59074e-08
-8.80517e-10
8.78185e-10
3.35663e-08
-2.11283e-09
1.19079e-09
2.91013e-08
1.80794e-09
2.60778e-08
-1.88342e-09
-2.41657e-09
4.20966e-08
1.35177e-09
-5.63739e-10
4.09356e-08
4.80063e-10
-2.76589e-10
3.51636e-08
1.04138e-09
3.09371e-08
2.95503e-09
5.12228e-08
2.61555e-09
4.36458e-08
4.7615e-10
3.74422e-08
3.29624e-08
1.80038e-09
2.45956e-09
3.61299e-08
-1.84283e-10
2.23148e-09
2.00662e-09
3.08005e-08
-1.50638e-10
1.51346e-09
1.67729e-09
2.55508e-08
-1.73262e-10
1.30907e-09
2.0708e-08
-2.43969e-10
-5.37762e-10
5.17086e-10
3.83871e-08
-1.87383e-10
4.33903e-10
3.47886e-08
-5.08229e-10
4.36044e-10
3.06637e-08
6.03017e-10
2.67657e-08
-3.78894e-10
-1.11648e-09
4.41086e-08
7.88842e-10
-4.48212e-10
4.06498e-08
6.41155e-10
-2.61178e-10
3.60084e-08
2.03839e-10
3.15914e-08
1.3975e-09
4.88857e-08
1.40965e-09
4.36079e-08
7.56146e-10
3.85296e-08
3.39042e-08
7.74125e-10
1.55023e-09
3.40159e-08
-2.09771e-10
1.01856e-09
1.39124e-09
2.93599e-08
-1.94062e-10
8.53251e-10
1.20469e-09
2.4709e-08
-1.9695e-10
9.70096e-10
2.02024e-08
-2.22276e-10
-2.2115e-10
7.10401e-10
3.94487e-08
-9.75538e-11
6.78819e-10
3.53781e-08
-4.86417e-11
6.57214e-10
3.11629e-08
6.36781e-10
2.69305e-08
-1.42066e-10
-1.03837e-10
4.50653e-08
2.43231e-10
8.46057e-11
4.08592e-08
3.47611e-10
2.06649e-10
3.6355e-08
3.23676e-10
3.18395e-08
3.31405e-10
4.8462e-08
4.27468e-10
4.36885e-08
3.67925e-10
3.89602e-08
3.43079e-08
3.74087e-10
7.8067e-10
3.30494e-08
-1.88069e-10
5.03056e-10
7.17448e-10
2.86954e-08
-1.81464e-10
4.3023e-10
6.23484e-10
2.43377e-08
-1.79141e-10
5.15828e-10
2.00321e-08
-1.84468e-10
-3.61686e-11
4.44814e-10
3.9821e-08
2.72928e-11
4.32937e-10
3.55996e-08
8.23497e-11
4.0884e-10
3.13229e-08
3.79239e-10
2.70232e-08
1.34625e-11
9.74465e-11
4.53996e-08
1.55611e-10
1.64564e-10
4.0986e-08
2.33947e-10
1.99554e-10
3.64864e-08
2.18109e-10
3.19623e-08
1.18254e-10
4.84088e-08
1.91718e-10
4.37586e-08
2.29802e-10
3.91146e-08
3.44722e-08
1.68363e-10
4.05242e-10
3.26088e-08
-1.33016e-10
2.29968e-10
3.83669e-10
2.83811e-08
-1.30727e-10
2.0327e-10
3.43585e-10
2.41498e-08
-1.28847e-10
2.9563e-10
1.99375e-08
-1.27972e-10
2.35701e-12
2.72041e-10
3.99519e-08
4.00067e-11
2.71458e-10
3.56745e-08
7.00101e-11
2.61429e-10
3.13754e-08
2.43137e-10
2.70609e-08
2.19198e-11
1.24414e-10
4.55256e-08
8.29863e-11
1.47251e-10
4.10495e-08
1.26224e-10
1.5889e-10
3.6546e-08
1.58119e-10
3.2027e-08
4.34141e-11
4.84433e-08
8.35476e-11
4.38212e-08
1.19552e-10
3.91946e-08
3.45579e-08
7.71456e-11
2.09705e-10
3.24066e-08
-8.46346e-11
1.06475e-10
2.02744e-10
2.82337e-08
-8.42734e-11
9.47813e-11
1.86708e-10
2.40583e-08
-8.33341e-11
1.66794e-10
1.989e-08
-8.18671e-11
1.04207e-11
1.6346e-10
3.99879e-08
3.02113e-11
1.65391e-10
3.56925e-08
4.38337e-11
1.61716e-10
3.13871e-08
1.52241e-10
2.70739e-08
1.53114e-11
1.01331e-10
4.55727e-08
4.22374e-11
1.09929e-10
4.10786e-08
6.26886e-11
1.13557e-10
3.65741e-08
1.10025e-10
3.20615e-08
1.47449e-11
4.8484e-08
3.48568e-11
4.38639e-08
5.59252e-11
3.92391e-08
3.46065e-08
3.56873e-11
1.1099e-10
3.23119e-08
-5.20522e-11
4.92734e-11
1.09277e-10
2.81636e-08
-5.23424e-11
4.28806e-11
1.03395e-10
2.40136e-08
-5.20957e-11
9.56616e-11
1.98663e-08
-5.12452e-11
8.57024e-12
9.77309e-11
3.99928e-08
1.8459e-11
9.97837e-11
3.56926e-08
2.31401e-11
9.87958e-11
3.13875e-08
9.43251e-11
2.70787e-08
8.50469e-12
7.13109e-11
4.5591e-08
2.0272e-11
7.50644e-11
4.10922e-08
2.85482e-11
7.62949e-11
3.65887e-08
7.34834e-11
3.20814e-08
4.5703e-12
4.85137e-08
1.34808e-11
4.38916e-08
2.31958e-11
3.92662e-08
3.46366e-08
1.62998e-11
6.0878e-11
3.22669e-08
-3.20639e-11
2.20474e-11
6.08718e-11
2.81298e-08
-3.25076e-11
1.77392e-11
5.89693e-11
2.39917e-08
-3.26073e-11
5.6219e-11
1.98546e-08
-3.22781e-11
4.97905e-12
5.88763e-11
3.99902e-08
9.22252e-12
6.04623e-11
3.56893e-08
9.74056e-12
6.04347e-11
3.13859e-08
5.83934e-11
2.7081e-08
3.61853e-12
4.71263e-11
4.55995e-08
8.12933e-12
4.90683e-11
4.10997e-08
1.05732e-11
4.95933e-11
3.65976e-08
4.77588e-11
3.20937e-08
3.87684e-13
4.85337e-08
3.36772e-12
4.39098e-08
6.70202e-12
3.92841e-08
3.46562e-08
7.06502e-12
3.47842e-11
3.22453e-08
-2.0051e-11
8.96052e-12
3.51907e-11
2.81134e-08
-2.04712e-11
5.72758e-12
3.47151e-11
2.3981e-08
-2.06987e-11
3.39394e-11
1.9849e-08
-2.06703e-11
2.05855e-12
3.59329e-11
3.99873e-08
3.23234e-12
3.701e-11
3.56868e-08
1.99781e-12
3.72384e-11
3.1385e-08
3.62649e-11
2.70825e-08
6.96033e-13
3.02588e-11
4.56048e-08
1.64879e-12
3.1411e-11
4.11049e-08
1.44689e-12
3.17007e-11
3.66038e-08
3.04794e-11
3.21018e-08
-1.51968e-12
4.85475e-08
-1.4395e-12
4.39224e-08
-1.06286e-12
3.92964e-08
3.46694e-08
2.66318e-12
2.06362e-11
3.2235e-08
-1.27813e-11
2.76156e-12
2.10488e-11
2.81055e-08
-1.31288e-11
1.88496e-13
2.10732e-11
2.39759e-08
-1.33777e-11
2.09257e-11
1.98463e-08
-1.35031e-11
3.33127e-13
2.21466e-11
3.99857e-08
2.63418e-14
2.28894e-11
3.56857e-08
-1.54036e-12
2.31092e-11
3.13849e-08
2.26603e-11
2.70839e-08
-8.91009e-13
1.9146e-11
4.5609e-08
-1.38702e-12
1.98343e-11
4.1109e-08
-2.39053e-12
2.00023e-11
3.66084e-08
1.92805e-11
3.21074e-08
-2.23664e-12
4.85574e-08
-3.38998e-12
4.39314e-08
-4.18246e-12
3.93051e-08
3.46783e-08
6.72373e-13
1.26063e-11
3.22301e-08
-8.29073e-12
8.89484e-15
1.29579e-11
2.81019e-08
-8.55602e-12
-1.98036e-12
1.30877e-11
2.39735e-08
-8.79196e-12
1.3171e-11
1.98453e-08
-8.93883e-12
-6.22136e-13
1.37816e-11
3.99854e-08
-1.4771e-12
1.42575e-11
3.56855e-08
-2.98911e-12
1.44354e-11
3.13854e-08
1.42323e-11
2.70851e-08
-1.47752e-12
1.20069e-11
4.56125e-08
-2.55952e-12
1.2429e-11
4.11123e-08
-3.78427e-12
1.25329e-11
3.66119e-08
1.2098e-11
3.21113e-08
-2.30655e-12
4.85645e-08
-3.84926e-12
4.39379e-08
-4.99403e-12
3.93112e-08
3.46844e-08
-2.02391e-13
7.86847e-12
3.22279e-08
-5.4227e-12
-1.08294e-12
8.12276e-12
2.81003e-08
-5.627e-12
-2.59916e-12
8.25205e-12
2.39726e-08
-5.82045e-12
8.37443e-12
1.98449e-08
-5.9647e-12
-9.64483e-13
8.61447e-12
3.99857e-08
-1.97419e-12
8.91243e-12
3.56859e-08
-3.25771e-12
9.03863e-12
3.13861e-08
8.93565e-12
2.70862e-08
-1.53903e-12
7.4659e-12
4.56153e-08
-2.74256e-12
7.7248e-12
4.1115e-08
-3.89137e-12
7.78422e-12
3.66145e-08
7.50949e-12
3.2114e-08
-2.06087e-12
4.85697e-08
-3.57837e-12
4.39426e-08
-4.70735e-12
3.93156e-08
3.46885e-08
-4.93472e-13
4.93461e-12
3.22271e-08
-3.52085e-12
-1.3363e-12
5.09754e-12
2.80997e-08
-3.67608e-12
-2.44624e-12
5.19486e-12
2.39722e-08
-3.82237e-12
5.29037e-12
1.98449e-08
-3.94712e-12
-9.58938e-13
5.34051e-12
3.99862e-08
-1.90235e-12
5.52024e-12
3.56865e-08
-2.91366e-12
5.59876e-12
3.13867e-08
5.53622e-12
2.7087e-08
-1.3425e-12
4.56448e-12
4.56175e-08
-2.43107e-12
4.71332e-12
4.1117e-08
-3.38395e-12
4.73666e-12
3.66164e-08
4.55478e-12
3.21159e-08
-1.68233e-12
4.85733e-08
-2.97864e-12
4.39459e-08
-3.93055e-12
3.93186e-08
3.46913e-08
-4.90345e-13
3.00444e-12
3.22268e-08
-2.20297e-12
-1.17118e-12
3.10141e-12
2.80995e-08
-2.31186e-12
-1.93444e-12
3.16101e-12
2.39722e-08
-2.4148e-12
3.21793e-12
1.9845e-08
-2.51049e-12
-7.83173e-13
3.19293e-12
3.99868e-08
-1.53623e-12
3.29276e-12
3.5687e-08
-2.26473e-12
3.33336e-12
3.13873e-08
3.29022e-12
2.70876e-08
-1.02796e-12
2.67704e-12
4.5619e-08
-1.88342e-12
2.75078e-12
4.11184e-08
-2.58742e-12
2.74858e-12
3.66177e-08
2.62833e-12
3.21172e-08
-1.25176e-12
4.85758e-08
-2.23671e-12
4.39482e-08
-2.93858e-12
3.93206e-08
3.46932e-08
-3.76922e-13
1.66245e-12
3.22267e-08
-1.25865e-12
-8.37007e-13
1.71409e-12
2.80994e-08
-1.32619e-12
-1.30811e-12
1.74422e-12
2.39722e-08
-1.38967e-12
1.77328e-12
1.9845e-08
-1.45191e-12
-5.43665e-13
1.73256e-12
3.99872e-08
-1.05455e-12
1.77976e-12
3.56874e-08
-1.51479e-12
1.7936e-12
3.13876e-08
1.76327e-12
2.7088e-08
-6.85551e-13
1.42042e-12
4.562e-08
-1.26419e-12
1.44655e-12
4.11192e-08
-1.7159e-12
1.43028e-12
3.66185e-08
1.35285e-12
3.21179e-08
-8.23384e-13
4.85773e-08
-1.47611e-12
4.39495e-08
-1.9253e-12
3.93218e-08
3.46943e-08
-2.78302e-13
8.18949e-13
-6.41243e-13
-5.57928e-13
8.4164e-13
-6.75008e-13
-8.20182e-13
8.51958e-13
-7.06544e-13
8.57387e-13
-7.37477e-13
-3.68302e-13
8.32743e-13
-6.86487e-13
8.44401e-13
-9.49427e-13
8.38144e-13
8.08669e-13
-4.52797e-13
6.37742e-13
-8.14667e-13
6.33733e-13
-1.07923e-12
6.07596e-13
5.50995e-13
-5.34024e-13
-9.36205e-13
-1.20369e-12
-2.53396e-09
-4.85792e-09
3.94566e-08
-4.01978e-09
-1.37441e-09
4.28245e-08
-6.80148e-10
3.76586e-09
3.85737e-08
1.89983e-10
4.56413e-08
-1.64919e-09
-4.61868e-09
2.92065e-08
-3.27823e-09
-8.35052e-09
4.37533e-08
-2.94597e-09
-2.67537e-09
4.69748e-08
-1.34252e-09
4.18647e-08
-3.39797e-09
-3.98447e-09
2.55398e-08
3.41418e-10
-1.43157e-09
2.02606e-08
-2.29688e-09
2.27965e-09
3.49111e-08
-8.94802e-10
3.36372e-08
-3.0221e-09
1.62293e-08
3.1619e-09
1.61472e-08
-6.11227e-09
4.69289e-08
2.3134e-08
2.70607e-09
-4.8655e-09
4.01136e-08
-2.32238e-09
-4.61653e-09
5.26392e-08
6.20317e-11
-2.06086e-09
3.79972e-08
-4.63305e-09
5.16615e-08
1.5829e-09
8.78937e-10
2.16382e-08
-1.88247e-09
1.76291e-09
4.08392e-08
-6.46978e-10
-5.77885e-09
4.94573e-08
-8.13768e-10
3.81027e-08
2.20577e-09
-2.83598e-09
2.75186e-08
-3.64946e-09
-3.74887e-09
3.16276e-08
2.07854e-09
-3.19265e-09
2.65968e-08
-3.34955e-09
4.2137e-08
4.70012e-10
1.07922e-08
-2.47719e-09
1.71648e-08
2.07825e-09
3.98965e-08
3.21405e-08
-1.27868e-09
2.62048e-10
4.28218e-08
-1.4939e-09
3.92271e-09
4.92362e-08
3.05524e-10
-7.22796e-10
3.72954e-08
4.83137e-09
4.71658e-08
-5.06544e-10
-1.83388e-09
2.55176e-08
-2.82262e-09
-2.23384e-09
4.93119e-08
3.31064e-09
-1.36519e-09
4.39664e-08
-5.89755e-09
5.48674e-08
-2.69837e-10
-7.59151e-10
2.70872e-08
-1.87048e-09
9.15838e-10
3.00787e-08
6.16691e-10
8.17138e-10
2.19273e-08
3.54431e-10
3.7052e-08
8.41353e-10
1.14623e-08
-1.38276e-09
2.39064e-08
4.09218e-11
3.73879e-08
3.49498e-08
-3.21339e-09
1.86604e-09
4.27039e-08
2.85832e-09
4.45967e-09
3.91781e-08
-1.37677e-09
1.1005e-09
4.0466e-08
-6.14584e-10
4.51399e-08
-2.84502e-09
3.20656e-09
2.58826e-08
3.79227e-09
1.42927e-09
4.5705e-08
-3.79694e-09
-1.56672e-09
5.42228e-08
-3.53453e-09
5.34805e-08
-2.03184e-09
-6.13323e-10
3.33423e-08
1.66153e-10
5.2668e-10
2.87833e-08
-2.06032e-09
-1.07779e-09
2.36649e-08
3.39357e-09
2.28545e-08
-1.43683e-09
1.60113e-08
-9.58541e-10
2.51905e-08
2.47088e-10
3.27408e-08
3.23061e-08
5.37237e-11
4.10242e-10
3.64802e-08
1.29067e-09
-2.99699e-09
4.13542e-08
-4.98853e-10
1.29132e-09
4.04342e-08
-5.26334e-09
5.18178e-08
-1.08347e-09
7.78121e-09
1.62942e-08
4.05618e-09
5.98424e-09
3.15841e-08
-5.56472e-09
1.95738e-09
6.31777e-08
1.99615e-09
3.91098e-08
-2.5838e-09
-2.04938e-09
4.58859e-08
1.26641e-09
1.37278e-09
2.95447e-08
-1.17808e-09
-1.44822e-09
2.9515e-08
-8.02379e-10
2.29199e-08
1.06709e-09
1.63163e-08
-4.57024e-10
3.13002e-08
-3.64674e-10
3.26416e-08
2.45711e-08
8.87798e-10
-1.27106e-09
4.52912e-08
-1.21859e-09
3.49668e-09
4.01101e-08
-3.68194e-10
2.52184e-09
3.70454e-08