/*--------------------------------*- C++ -*----------------------------------*\
| =========                 |                                                 |
| \\      /  F ield         | OpenFOAM: The Open Source CFD Toolbox           |
|  \\    /   O peration     | Version:  2506                                  |
|   \\  /    A nd           | Website:  www.openfoam.com                      |
|    \\/     M anipulation  |                                                 |
\*---------------------------------------------------------------------------*/
FoamFile
{
    version     2.0;
    format      ascii;
    arch        "LSB;label=32;scalar=64";
    class       volVectorField;
    location    "0.05";
    object      U;
}
// * * * * * * * * * * * * * * * * * * * * * * * * * * * * * * * * * * * * * //

dimensions      [0 1 -1 0 0 0 0];

internalField   nonuniform List<vector> 
1152
(
(-0.00200946 -0.00132803 0.0155067)
(-0.00155083 0.000350671 0.0123293)
(-0.00115076 -0.000957275 0.012768)
(-0.00159951 -0.000319345 0.0189992)
(0.00114145 -0.00142421 0.0136124)
(-0.00096797 -0.00227588 0.0193616)
(-0.00253168 -0.00304794 0.0165957)
(-0.000681801 -0.00125006 0.0126274)
(0.000190977 -0.00041809 0.0128192)
(-0.00141783 -0.000272242 0.00969591)
(-0.000720297 -0.000176813 0.00978053)
(0.000237813 0.000725056 0.014147)
(0.000380426 -0.000649014 0.0109931)
(-0.000641154 -0.00328511 0.0294204)
(5.62823e-05 0.000728079 0.0126062)
(-0.00112683 0.00185543 0.0267799)
(-0.000632432 -0.000886552 0.0222826)
(-0.00209608 -0.0034457 0.0386874)
(-0.00110185 -0.000396279 0.0164212)
(-4.90614e-05 -0.00198948 0.0270697)
(-0.00304092 -0.00117544 0.0265409)
(-0.000850672 0.000260587 0.0192101)
(-0.0002212 0.00022629 0.0286569)
(-0.0010228 0.00139568 0.0197881)
(-2.57143e-05 -0.00101188 0.0291942)
(-0.000225498 -0.00228054 0.0280977)
(0.000411902 -7.45197e-05 0.0109426)
(-0.000566171 -0.000103215 0.0162824)
(-0.00421652 -0.00225491 0.0270771)
(-0.00104447 0.000419469 0.0216123)
(0.00154677 0.000114797 0.0190785)
(0.00103156 -0.0021092 0.0250046)
(0.00116427 -0.00170803 0.0324131)
(0.000111073 -0.00193596 0.0280507)
(0.000786708 -0.000489731 0.0219447)
(-0.000765159 -0.000167359 0.0234478)
(9.10852e-05 -0.000668388 0.0209856)
(0.00069052 -0.00140489 0.0189498)
(0.000721635 -0.00158001 0.0261534)
(0.000376717 -0.000916055 0.0195815)
(-0.00031196 -0.000368904 0.0200914)
(-0.000275348 -0.001588 0.0441223)
(0.000567923 -0.00117778 0.0199027)
(0.000435584 -0.00400184 0.0456086)
(-0.000777412 0.00139028 0.0296757)
(0.000224267 0.000266441 0.0154369)
(5.65674e-05 -0.000264643 0.0178462)
(0.00204638 -0.00100239 0.0442472)
(-0.000676271 5.16666e-05 0.0460254)
(0.000510955 -9.27855e-05 0.0316685)
(0.00156025 0.00140369 0.0336654)
(-0.00140362 0.00228037 0.0342368)
(0.00142704 -0.000618214 0.0181883)
(0.000612894 -0.00170756 0.0249855)
(0.00230277 -0.00142109 0.0283503)
(-0.000624431 -0.00295984 0.0239956)
(0.000221916 -0.00331359 0.0387545)
(0.000375857 -0.000749846 0.018666)
(0.000416628 -0.00152972 0.0191526)
(0.0010668 -0.00339548 0.0238818)
(0.00153635 0.000210416 0.0236891)
(0.000666337 0.000508672 0.0233416)
(-0.000335976 0.000398615 0.0146398)
(0.000169878 0.000708933 0.0102888)
(-0.00147835 -0.000252505 0.0299717)
(0.000302126 -0.000879149 0.018056)
(0.000339313 -0.000299999 0.0226487)
(0.00276609 -7.45498e-05 0.0352687)
(0.000443006 -0.000319504 0.0390007)
(0.00011346 0.000440497 0.0225195)
(0.000196462 0.000813031 0.0362648)
(0.000609967 0.00197909 0.0491921)
(-0.00052113 -0.000923114 0.0248955)
(0.000845395 0.000850023 0.0270115)
(0.000735903 0.000919017 0.0176144)
(0.000420107 0.00139407 0.0198093)
(-0.000278957 0.00032368 0.0213636)
(0.00137797 -0.000582767 0.0189781)
(0.000680309 -0.000328304 0.0117291)
(-0.00147153 -0.000990235 0.0265131)
(0.00067958 -0.000683093 0.017719)
(-0.000216292 -0.000682375 0.0142208)
(-0.00132702 -0.00308424 0.0171236)
(-0.000118654 -0.00232303 0.0115981)
(0.00116358 -0.000704709 0.0194699)
(-0.00106122 -0.00077535 0.0125977)
(-0.00425673 -0.00137546 0.0213128)
(0.000132167 -0.00115105 0.0111364)
(0.000722316 0.00196742 0.0172106)
(-0.000553146 0.000352022 0.0116987)
(-0.00123631 0.0012535 0.0108183)
(-0.00228563 0.00127988 0.0204207)
(0.000980153 -0.00015374 0.00716756)
(-0.00179078 -0.000165901 0.0193989)
(-0.00316089 0.00054963 0.0163326)
(-0.00392968 0.00229377 0.0249663)
(0.000536414 -0.000467187 0.0214209)
(0.000402036 -0.000915153 0.0137973)
(-0.000166813 0.000307828 0.0188502)
(0.00039684 -0.000455508 0.0184657)
(0.000548846 0.000444097 0.0163285)
(0.000588265 7.91327e-05 0.0195948)
(8.20466e-05 9.20201e-06 0.00956673)
(0.00379825 -0.00186168 0.0184944)
(0.000156149 5.83075e-06 0.0177185)
(0.000225745 -0.000108441 0.0117597)
(4.54919e-06 -0.000328616 0.012618)
(-2.50111e-05 -6.47383e-05 0.0133545)
(-0.0002441 -8.08533e-05 0.0162672)
(6.0583e-05 6.22461e-05 0.0221269)
(-0.000304517 -0.000440402 0.0127468)
(-0.000182213 -0.00016919 0.0144513)
(-0.000468574 -0.000275388 0.0250036)
(-4.52788e-05 0.000391839 0.0223141)
(0.000256877 0.000423158 0.0233334)
(0.0002191 0.000154467 0.0258006)
(-0.000799934 0.000182384 0.023602)
(1.57123e-05 0.000335395 0.0223557)
(0.000386212 0.000215769 0.0158797)
(0.000336068 -5.20409e-06 0.0251024)
(-0.000768807 -0.000395157 0.0233293)
(-9.72529e-05 -0.000331526 0.0192724)
(3.61187e-05 -0.000449406 0.0171898)
(-2.79177e-06 -0.000364663 0.0194045)
(-0.00124108 -0.000204451 0.0224311)
(-0.000151406 -4.64381e-05 0.0230169)
(0.000185879 -0.000409256 0.0201345)
(0.000175062 -0.000297066 0.0204113)
(0.000556849 0.000584979 0.00750761)
(0.00061387 0.000741627 0.00706755)
(0.0002299 0.000789504 0.00678951)
(9.08333e-05 0.000420256 0.0072327)
(-2.83004e-06 0.00063753 0.00684366)
(0.000681184 0.000749901 0.00660133)
(0.000218784 0.000825546 0.00541329)
(0.000190329 0.000797755 0.00650067)
(0.000180285 0.000223817 0.00672885)
(0.000664232 0.000182801 0.00603544)
(0.000251535 5.31975e-05 0.00534162)
(2.39359e-05 0.000539091 0.00569855)
(-0.000110707 2.19924e-05 0.0068235)
(0.000466718 4.57288e-05 0.00689106)
(0.000523394 -0.000362565 0.00605884)
(0.000509516 -6.95305e-05 0.00576746)
(0.000163845 0.000330273 0.012521)
(0.000275819 0.000481786 0.0121746)
(0.000170938 0.000544464 0.0119099)
(8.41092e-05 0.000466653 0.0120376)
(1.69833e-05 0.000337789 0.0120373)
(0.000316137 0.000446969 0.0117653)
(0.000179795 0.000503701 0.0113005)
(0.000119255 0.000509779 0.0115952)
(0.000176601 0.000118823 0.0118799)
(0.000366922 0.000153633 0.0114889)
(0.000211155 0.00013769 0.0111147)
(6.44579e-05 0.000294587 0.0112075)
(0.000106727 -2.55451e-06 0.0118603)
(0.000321281 8.13993e-06 0.0116515)
(0.000307842 -0.000119896 0.011287)
(0.00020504 -4.86853e-05 0.011066)
(0.000194447 0.00033377 0.0111421)
(0.000220162 0.000340315 0.0110426)
(0.000161418 0.000338782 0.0109237)
(9.01819e-05 0.000313242 0.0109312)
(0.000101232 0.000283351 0.0109223)
(0.000196703 0.000298166 0.0108304)
(0.000146558 0.000301876 0.0106645)
(8.72586e-05 0.000293511 0.010703)
(0.000147819 0.000135266 0.0108614)
(0.000209951 0.000145351 0.0107142)
(0.000148176 0.000139141 0.0105543)
(6.13531e-05 0.000165955 0.0105467)
(0.000125817 2.86395e-05 0.0108647)
(0.000196166 2.8896e-05 0.0107468)
(0.000164432 -6.67356e-06 0.0105866)
(7.8711e-05 -6.4117e-06 0.0104857)
(9.29076e-05 0.000201272 0.0111878)
(0.000111957 0.000204933 0.0111141)
(9.41257e-05 0.000203213 0.0110394)
(5.9289e-05 0.000193599 0.0110113)
(6.49634e-05 0.000169698 0.0110495)
(0.00010189 0.000176558 0.0109935)
(8.52683e-05 0.000175522 0.0109179)
(4.97296e-05 0.000167145 0.0108987)
(8.85837e-05 9.31243e-05 0.010996)
(0.000108989 9.96117e-05 0.0109261)
(8.22443e-05 9.66499e-05 0.0108508)
(3.41419e-05 9.44564e-05 0.0108249)
(8.47347e-05 2.89087e-05 0.0109818)
(0.000104778 2.86829e-05 0.0109165)
(7.9863e-05 1.62602e-05 0.0108414)
(2.58273e-05 5.46184e-06 0.010795)
(4.66362e-05 0.000119988 0.0111363)
(5.71219e-05 0.000119363 0.0111034)
(5.06664e-05 0.000116724 0.0110679)
(3.32754e-05 0.000110632 0.0110471)
(3.70737e-05 0.000101679 0.011069)
(5.17469e-05 0.00010281 0.011042)
(4.44912e-05 9.98111e-05 0.011008)
(2.46622e-05 9.25693e-05 0.0109902)
(4.64853e-05 6.19893e-05 0.0110381)
(5.32277e-05 6.35552e-05 0.0110052)
(4.0059e-05 5.99928e-05 0.0109705)
(1.40446e-05 5.32355e-05 0.0109528)
(4.51172e-05 2.52032e-05 0.0110259)
(4.99479e-05 2.34277e-05 0.0109928)
(3.43655e-05 1.63572e-05 0.0109582)
(4.07207e-06 6.76182e-06 0.0109377)
(2.18324e-05 6.86459e-05 0.011115)
(2.75016e-05 6.78505e-05 0.011098)
(2.5077e-05 6.56984e-05 0.0110798)
(1.64646e-05 6.14984e-05 0.0110671)
(1.88745e-05 5.93162e-05 0.0110794)
(2.47009e-05 5.89541e-05 0.011065)
(2.09555e-05 5.61559e-05 0.0110481)
(1.02733e-05 5.08093e-05 0.0110372)
(2.2218e-05 3.93589e-05 0.01106)
(2.40742e-05 3.89278e-05 0.0110435)
(1.70249e-05 3.5596e-05 0.0110267)
(3.11963e-06 2.97607e-05 0.011017)
(2.09848e-05 1.92013e-05 0.0110505)
(2.11581e-05 1.69669e-05 0.0110339)
(1.19587e-05 1.20633e-05 0.0110178)
(-4.40153e-06 5.06294e-06 0.0110088)
(9.44555e-06 3.89838e-05 0.0111043)
(1.23064e-05 3.8401e-05 0.0110957)
(1.12624e-05 3.6865e-05 0.0110865)
(6.95071e-06 3.40219e-05 0.0110795)
(8.52886e-06 3.4417e-05 0.0110852)
(1.07132e-05 3.37574e-05 0.0110777)
(8.54919e-06 3.16206e-05 0.0110694)
(2.80179e-06 2.79501e-05 0.0110636)
(9.48794e-06 2.43705e-05 0.0110734)
(9.58895e-06 2.34244e-05 0.0110653)
(5.57721e-06 2.0806e-05 0.0110573)
(-1.94304e-06 1.66402e-05 0.0110526)
(8.36452e-06 1.34305e-05 0.0110667)
(7.27828e-06 1.14452e-05 0.0110588)
(1.8633e-06 7.96067e-06 0.0110515)
(-7.10353e-06 3.14807e-06 0.0110481)
(3.37831e-06 2.22158e-05 0.0110992)
(4.71507e-06 2.17862e-05 0.011095)
(4.17975e-06 2.07222e-05 0.0110905)
(1.97824e-06 1.88271e-05 0.0110869)
(3.03907e-06 1.9999e-05 0.0110889)
(3.71714e-06 1.93805e-05 0.0110851)
(2.39444e-06 1.78622e-05 0.0110811)
(-7.25982e-07 1.54309e-05 0.0110783)
(3.13088e-06 1.48633e-05 0.0110817)
(2.67573e-06 1.39611e-05 0.0110778)
(3.09319e-07 1.20819e-05 0.0110742)
(-3.82502e-06 9.32026e-06 0.0110723)
(2.22078e-06 8.88767e-06 0.0110773)
(9.99489e-07 7.38023e-06 0.0110737)
(-2.197e-06 4.97709e-06 0.0110707)
(-7.23829e-06 1.77105e-06 0.0110697)
(5.35981e-07 1.2772e-05 0.0110968)
(1.08437e-06 1.24245e-05 0.0110948)
(7.6635e-07 1.16924e-05 0.0110927)
(-3.9571e-07 1.04343e-05 0.0110911)
(3.32339e-07 1.16767e-05 0.0110911)
(4.12841e-07 1.11761e-05 0.0110893)
(-4.12692e-07 1.01297e-05 0.0110875)
(-2.13368e-06 8.54288e-06 0.0110864)
(1.58978e-07 8.97763e-06 0.0110868)
(-3.9891e-07 8.27914e-06 0.0110851)
(-1.82427e-06 6.98861e-06 0.0110836)
(-4.12068e-06 5.20827e-06 0.011083)
(-5.14285e-07 5.66409e-06 0.011084)
(-1.54783e-06 4.61975e-06 0.0110825)
(-3.46073e-06 3.03118e-06 0.0110815)
(-6.30946e-06 9.63971e-07 0.0110815)
(-6.77706e-07 7.39733e-06 0.0110957)
(-5.06301e-07 7.13504e-06 0.0110949)
(-7.34198e-07 6.62446e-06 0.0110941)
(-1.37103e-06 5.79924e-06 0.0110934)
(-8.27226e-07 6.84707e-06 0.0110925)
(-9.66146e-07 6.47362e-06 0.0110918)
(-1.51694e-06 5.76392e-06 0.0110912)
(-2.48049e-06 4.73136e-06 0.0110908)
(-1.04752e-06 5.399e-06 0.01109)
(-1.55511e-06 4.88448e-06 0.0110894)
(-2.45617e-06 4.0227e-06 0.0110889)
(-3.73642e-06 2.86813e-06 0.0110889)
(-1.52948e-06 3.52595e-06 0.0110882)
(-2.33136e-06 2.825e-06 0.0110878)
(-3.52375e-06 1.81205e-06 0.0110876)
(-5.09608e-06 5.2594e-07 0.011088)
(-1.07908e-06 4.31854e-06 0.0110953)
(-1.08643e-06 4.1183e-06 0.0110951)
(-1.26652e-06 3.76459e-06 0.0110949)
(-1.6316e-06 3.22335e-06 0.0110947)
(-1.2071e-06 4.03277e-06 0.0110935)
(-1.40883e-06 3.75954e-06 0.0110934)
(-1.7878e-06 3.28101e-06 0.0110932)
(-2.34171e-06 2.6055e-06 0.0110933)
(-1.40277e-06 3.2293e-06 0.011092)
(-1.82204e-06 2.86773e-06 0.0110919)
(-2.41221e-06 2.29393e-06 0.011092)
(-3.13499e-06 1.53038e-06 0.0110922)
(-1.73616e-06 2.14886e-06 0.011091)
(-2.34083e-06 1.69296e-06 0.011091)
(-3.12182e-06 1.05988e-06 0.0110912)
(-3.94936e-06 2.89164e-07 0.0110917)
(-1.10154e-06 2.52827e-06 0.0110953)
(-1.18065e-06 2.37819e-06 0.0110954)
(-1.332e-06 2.13445e-06 0.0110954)
(-1.54729e-06 1.78016e-06 0.0110955)
(-1.2083e-06 2.37353e-06 0.0110943)
(-1.40866e-06 2.17698e-06 0.0110944)
(-1.67794e-06 1.85715e-06 0.0110945)
(-2.00199e-06 1.4213e-06 0.0110947)
(-1.36064e-06 1.91102e-06 0.0110934)
(-1.69049e-06 1.66376e-06 0.0110935)
(-2.08515e-06 1.28708e-06 0.0110937)
(-2.4996e-06 7.86753e-07 0.0110941)
(-1.58681e-06 1.27996e-06 0.0110927)
(-2.03229e-06 9.87855e-07 0.0110929)
(-2.55429e-06 5.96739e-07 0.0110933)
(-2.98113e-06 1.41787e-07 0.0110938)
(-9.50225e-07 1.46611e-06 0.0110953)
(-1.04726e-06 1.35789e-06 0.0110956)
(-1.17461e-06 1.1933e-06 0.0110958)
(-1.3008e-06 9.65987e-07 0.011096)
(-1.03307e-06 1.37856e-06 0.0110948)
(-1.20566e-06 1.24133e-06 0.011095)
(-1.39775e-06 1.03526e-06 0.0110952)
(-1.58703e-06 7.68133e-07 0.0110955)
(-1.14253e-06 1.10319e-06 0.0110943)
(-1.38865e-06 9.41202e-07 0.0110945)
(-1.64778e-06 7.05067e-07 0.0110948)
(-1.88941e-06 3.92995e-07 0.0110952)
(-1.29097e-06 7.36387e-07 0.0110939)
(-1.60441e-06 5.53997e-07 0.0110942)
(-1.94627e-06 3.16437e-07 0.0110946)
(-2.18027e-06 4.52743e-08 0.0110951)
(-7.23551e-07 8.19823e-07 0.0110954)
(-8.09708e-07 7.47e-07 0.0110957)
(-9.08794e-07 6.41153e-07 0.011096)
(-9.80562e-07 5.0114e-07 0.0110963)
(-7.81571e-07 7.69252e-07 0.0110951)
(-9.13539e-07 6.7978e-07 0.0110954)
(-1.04565e-06 5.54956e-07 0.0110957)
(-1.15351e-06 3.99176e-07 0.011096)
(-8.53465e-07 6.04178e-07 0.0110949)
(-1.02414e-06 5.05395e-07 0.0110951)
(-1.19028e-06 3.70823e-07 0.0110955)
(-1.3295e-06 2.002e-07 0.0110959)
(-9.45483e-07 3.96884e-07 0.0110946)
(-1.14761e-06 2.88697e-07 0.0110949)
(-1.35134e-06 1.52063e-07 0.0110953)
(-1.49892e-06 -4.20907e-09 0.0110958)
(-4.82399e-07 4.13321e-07 0.0110955)
(-5.4261e-07 3.70089e-07 0.0110959)
(-6.07221e-07 3.08376e-07 0.0110962)
(-6.46372e-07 2.28822e-07 0.0110965)
(-5.17806e-07 3.84819e-07 0.0110954)
(-6.03532e-07 3.32768e-07 0.0110957)
(-6.84249e-07 2.63959e-07 0.011096)
(-7.42604e-07 1.79848e-07 0.0110963)
(-5.59868e-07 2.9306e-07 0.0110952)
(-6.64324e-07 2.38646e-07 0.0110955)
(-7.61213e-07 1.68665e-07 0.0110959)
(-8.38006e-07 8.36965e-08 0.0110962)
(-6.1067e-07 1.83008e-07 0.0110951)
(-7.2833e-07 1.24265e-07 0.0110954)
(-8.3961e-07 5.14863e-08 0.0110958)
(-9.3061e-07 -3.2076e-08 0.0110962)
(-2.90087e-07 1.6913e-07 0.0110956)
(-3.26539e-07 1.41102e-07 0.011096)
(-3.61518e-07 1.03698e-07 0.0110963)
(-3.85576e-07 5.78462e-08 0.0110966)
(-3.1601e-07 1.49408e-07 0.0110955)
(-3.63436e-07 1.17081e-07 0.0110958)
(-4.06373e-07 7.65481e-08 0.0110962)
(-4.3833e-07 2.88592e-08 0.0110965)
(-3.43894e-07 1.01048e-07 0.0110955)
(-4.00384e-07 6.78336e-08 0.0110958)
(-4.50785e-07 2.73701e-08 0.0110961)
(-4.90263e-07 -1.90801e-08 0.0110964)
(-3.7398e-07 4.23455e-08 0.0110954)
(-4.37134e-07 8.96194e-09 0.0110957)
(-4.93599e-07 -3.1344e-08 0.011096)
(-5.40774e-07 -7.75089e-08 0.0110964)
(0.00030231 7.68196e-05 0.00960433)
(-0.000389802 0.000254466 0.0169536)
(-0.0003847 -0.0012753 0.0163104)
(-0.000494633 -0.00201096 0.0117595)
(0.00057014 -0.000215284 0.0158709)
(-0.000336945 -0.00126177 0.00939104)
(-0.00275026 -0.00229741 0.0145323)
(0.000224854 -0.00170609 0.00902845)
(-0.000894484 0.000523363 0.0124842)
(-0.00116416 -0.00116962 0.0145546)
(-0.00239573 -0.0028485 0.0206726)
(-0.000876776 0.000329576 0.0121533)
(-0.00260093 5.85229e-05 0.0142547)
(-0.00309324 0.000878669 0.0116317)
(-0.000731752 0.000959888 0.00901932)
(9.74219e-05 0.000245005 0.0173378)
(-0.000740359 -0.000271669 0.0291369)
(-0.00111342 -0.000466331 0.0240556)
(9.43962e-05 0.000170966 0.0212631)
(-0.00107437 0.00218494 0.0538937)
(0.000114459 -0.000300837 0.0199716)
(-0.000797451 0.00100844 0.0458404)
(0.000942368 -0.00158072 0.0216591)
(-0.000395427 -0.000572693 0.0135412)
(0.00133313 -0.0005059 0.027535)
(-0.00119424 -3.79426e-05 0.0157496)
(-0.000540647 -0.000336148 0.0161206)
(0.000961878 -0.000704014 0.0134116)
(0.00214679 0.00112986 0.0356889)
(0.00104586 -0.000760226 0.020016)
(-0.000654059 0.000294696 0.0127463)
(-0.00196046 -0.000495414 0.0242926)
(0.000861859 -0.000457296 0.0274891)
(0.00192833 -0.0007541 0.0265603)
(-0.000325396 -0.000392694 0.0241592)
(0.000565791 -0.000743923 0.0284477)
(-0.000957308 -0.000798749 0.0331706)
(-0.000547923 -0.000192262 0.0140316)
(0.00179382 -7.51923e-05 0.0332279)
(-0.000362031 0.000388265 0.0337344)
(0.000869123 -0.00127184 0.0221451)
(0.00133303 0.000297391 0.0406649)
(-5.25078e-05 -0.00013534 0.0213114)
(2.97869e-07 -0.000732198 0.0271271)
(0.00108845 0.00102043 0.0168457)
(0.00356157 0.00191153 0.0332039)
(0.000652074 -0.00106053 0.0291307)
(-0.000305732 -0.000175959 0.0321503)
(0.000369057 -0.000843352 0.0253295)
(-0.000256284 -0.00100383 0.0234159)
(-0.00141435 -0.0039996 0.0404026)
(2.76798e-06 -0.0012632 0.0214674)
(0.00103373 -0.000173684 0.0268054)
(0.000135755 -0.00378229 0.0347312)
(-8.96466e-05 -0.00109584 0.0176004)
(0.00332297 -0.00208182 0.0282085)
(-0.00219607 0.00117917 0.0242637)
(-0.00129475 -0.00259509 0.0285238)
(8.64109e-05 -0.00103055 0.0262843)
(0.000677436 -0.00101067 0.0158081)
(-0.00246182 -0.000883496 0.0180513)
(-0.00159933 1.73727e-07 0.01103)
(7.99147e-05 -0.00044233 0.021793)
(0.0011311 0.000867941 0.028436)
(-0.00341082 -0.00347511 0.0261973)
(-0.00725293 -0.00532852 0.0379722)
(-0.00116891 -0.00148688 0.03299)
(-0.000370681 -0.000245688 0.0210048)
(0.00125882 -0.00263198 0.0218423)
(0.00181092 -0.00174091 0.0356473)
(0.000346952 2.7245e-05 0.0109664)
(0.0010038 1.06562e-07 0.0317196)
(0.000312271 0.000279506 0.0310598)
(0.000292662 0.000354697 0.0184228)
(0.00136877 -0.000106892 0.0245706)
(-1.5499e-05 0.000415515 0.011893)
(0.000369466 -0.00319299 0.036849)
(-0.00015763 -0.00228039 0.0209462)
(0.00139246 -0.000952938 0.0223746)
(0.00020351 -0.000481655 0.0149712)
(0.00861656 -0.00196717 0.0524496)
(0.0033877 0.00045557 0.0124937)
(0.00211325 0.000710181 0.0130453)
(0.000951796 -0.00061823 0.0217583)
(0.00112461 -0.00101469 0.014332)
(0.00217285 0.000302763 0.0124292)
(0.00244936 -0.000637973 0.013227)
(0.000559898 -0.000903568 0.0112669)
(0.00216117 -0.000506883 0.0164971)
(0.00352113 9.92649e-05 0.0207744)
(0.00219886 -0.000514671 0.0169171)
(0.00207055 -0.000754211 0.0157197)
(0.00165394 0.00132798 0.019214)
(0.00286058 -0.00012245 0.0181207)
(0.00120184 0.000266756 0.0124026)
(0.00525132 -0.000584765 0.0287819)
(-0.00153879 -0.00314051 0.0137022)
(-0.000268591 -0.00108154 0.0250237)
(0.000214659 0.00034106 0.024792)
(0.000306227 9.09674e-06 0.0235677)
(-8.38689e-05 -6.42191e-05 0.0113351)
(-8.74243e-07 -0.000134798 0.0164035)
(9.81175e-06 0.000181716 0.0113756)
(-6.36209e-05 0.000549753 0.0165879)
(-0.000108226 -0.000201768 0.0109096)
(-8.78928e-05 -0.000119934 0.0180632)
(0.000261712 -0.000121791 0.0135338)
(0.00017629 -0.000495911 0.0128411)
(0.000123048 -0.000398793 0.0171837)
(6.90119e-05 -0.000486569 0.0139235)
(-0.000278261 -0.000372894 0.0128661)
(-0.000122634 -0.000178935 0.0121108)
(-0.000368638 -0.000284912 0.0345708)
(-0.000685008 -0.000543941 0.0296571)
(-0.00072177 -0.000286047 0.0263112)
(-0.000560108 -0.000117472 0.0247273)
(-0.000278881 -9.07908e-05 0.0169068)
(-0.000505557 -0.000187762 0.0209691)
(-0.000632483 0.000161743 0.0176291)
(-0.000786381 0.000373309 0.0210142)
(-0.00029035 -0.000191489 0.0195778)
(-0.000554649 -8.66855e-05 0.0255557)
(-0.00048314 -7.19238e-05 0.0207271)
(-0.000866973 -0.000100472 0.0205826)
(-0.000115289 0.000147518 0.0286552)
(-0.000489572 6.32351e-05 0.023053)
(-0.000840409 -0.000156666 0.0196745)
(-0.00126136 -3.29916e-05 0.0199838)
(-0.000336811 0.00113362 0.00955696)
(0.000309874 0.00123365 0.00875831)
(0.000444422 0.00121061 0.00796147)
(0.000362685 0.000964504 0.00753198)
(-0.000886228 0.00118667 0.00499821)
(-0.000616561 0.000857396 0.00571361)
(-0.000524564 0.000891913 0.00561866)
(-0.000607007 0.000788201 0.00629393)
(-0.000134545 -0.000719902 0.00505921)
(5.22959e-06 -0.00027394 0.00623897)
(0.000329968 2.37244e-05 0.00592867)
(-0.000101107 0.000269439 0.00617959)
(0.000343525 -0.000458472 0.00680669)
(0.000575552 -0.000137929 0.00613524)
(0.000358307 -0.000213241 0.0057879)
(-0.000178711 0.000148273 0.00602434)
(-0.000201061 0.00061869 0.0141384)
(0.00015115 0.000713873 0.0136992)
(0.000256138 0.000675126 0.0131694)
(0.000159727 0.000522821 0.0127569)
(-0.000390088 0.000605577 0.0115017)
(-0.000245362 0.000464488 0.0117566)
(-0.000162579 0.000400749 0.0117472)
(-0.000184636 0.000324952 0.0119163)
(-2.95423e-06 -0.000337885 0.0116242)
(6.33023e-05 -0.000161749 0.0120096)
(0.00020437 -3.31401e-05 0.0118481)
(8.59784e-05 7.74638e-05 0.0118311)
(0.000162931 -0.000247787 0.0123265)
(0.000293039 -0.000122451 0.0120215)
(0.00024284 -0.000114085 0.0117672)
(6.55244e-05 1.57299e-05 0.0117065)
(-0.000168461 0.000380368 0.0117918)
(-2.2044e-06 0.000439212 0.0116145)
(9.3052e-05 0.000440303 0.011388)
(0.000123016 0.000395376 0.0112078)
(-0.000240001 0.000415091 0.0107354)
(-0.000179663 0.000368722 0.0108143)
(-0.00010197 0.000340725 0.0108228)
(-3.27219e-05 0.00030225 0.0108698)
(-2.81846e-05 -1.53955e-05 0.0108292)
(-8.12368e-06 4.44581e-05 0.0109374)
(5.94082e-05 9.65777e-05 0.0108942)
(7.63204e-05 0.000130181 0.0108696)
(3.72075e-05 -5.61491e-05 0.0110739)
(7.44593e-05 -1.73233e-05 0.0109706)
(8.28014e-05 -2.61345e-06 0.0108848)
(7.06973e-05 3.38513e-05 0.0108447)
(-9.48017e-05 0.000198315 0.0115018)
(-1.43465e-05 0.00023133 0.0114348)
(3.75103e-05 0.000236458 0.0113426)
(5.74426e-05 0.000222061 0.0112512)
(-0.000115141 0.000215957 0.0110121)
(-8.09438e-05 0.000203373 0.0110455)
(-3.48296e-05 0.000190875 0.0110565)
(6.66707e-06 0.000173777 0.0110592)
(-1.62625e-05 3.85443e-05 0.0110019)
(-9.28076e-07 5.98607e-05 0.0110394)
(3.24285e-05 7.80175e-05 0.0110352)
(5.46172e-05 8.79067e-05 0.0110215)
(9.8302e-06 -1.2246e-06 0.0110365)
(2.70158e-05 1.03152e-05 0.0110207)
(4.16823e-05 1.79774e-05 0.0110072)
(5.48678e-05 2.84558e-05 0.0109956)
(-5.43749e-05 0.00010478 0.0112769)
(-1.67525e-05 0.000122469 0.0112478)
(1.08292e-05 0.000128227 0.0112067)
(2.52653e-05 0.000125162 0.0111648)
(-5.74036e-05 0.00011376 0.0110764)
(-3.97432e-05 0.000112459 0.011086)
(-1.50538e-05 0.000109496 0.0110865)
(8.39993e-06 0.000103304 0.01108)
(-1.13837e-05 4.15659e-05 0.0110647)
(-1.99736e-06 5.01339e-05 0.0110729)
(1.44894e-05 5.72347e-05 0.0110686)
(2.92066e-05 6.01395e-05 0.0110569)
(1.7393e-06 1.41641e-05 0.0110594)
(9.40969e-06 1.85818e-05 0.0110561)
(1.92546e-05 2.22622e-05 0.0110511)
(3.04903e-05 2.52967e-05 0.0110419)
(-3.01146e-05 5.48682e-05 0.0111809)
(-1.23276e-05 6.42888e-05 0.0111683)
(1.77587e-06 6.86366e-05 0.0111499)
(1.01917e-05 6.90347e-05 0.0111299)
(-2.91948e-05 6.04325e-05 0.0110933)
(-1.97871e-05 6.17247e-05 0.0110959)
(-6.99093e-06 6.181e-05 0.0110943)
(5.05832e-06 5.98581e-05 0.011088)
(-7.99807e-06 3.18106e-05 0.0110812)
(-2.60112e-06 3.55456e-05 0.0110824)
(5.78569e-06 3.84494e-05 0.0110792)
(1.38096e-05 3.9157e-05 0.0110715)
(-6.49823e-07 1.57804e-05 0.0110705)
(2.71662e-06 1.768e-05 0.0110696)
(8.16955e-06 1.9332e-05 0.011067)
(1.4521e-05 2.00268e-05 0.0110611)
(-1.68067e-05 2.92306e-05 0.0111357)
(-8.29104e-06 3.42935e-05 0.01113)
(-1.17608e-06 3.71889e-05 0.0111215)
(3.34748e-06 3.82663e-05 0.0111118)
(-1.53594e-05 3.28343e-05 0.0110966)
(-1.03555e-05 3.43092e-05 0.011097)
(-3.88753e-06 3.50785e-05 0.0110952)
(1.95326e-06 3.46209e-05 0.0110907)
(-5.3834e-06 2.15841e-05 0.0110867)
(-2.4549e-06 2.33582e-05 0.0110865)
(1.74433e-06 2.46442e-05 0.0110844)
(5.6445e-06 2.47126e-05 0.0110798)
(-1.04312e-06 1.28076e-05 0.0110776)
(3.77759e-07 1.37243e-05 0.0110774)
(3.01876e-06 1.44427e-05 0.011076)
(5.92395e-06 1.43923e-05 0.0110726)
(-9.68071e-06 1.60823e-05 0.0111145)
(-5.57592e-06 1.88074e-05 0.0111119)
(-2.02752e-06 2.05842e-05 0.0111078)
(2.74573e-07 2.1501e-05 0.011103)
(-8.47291e-06 1.83855e-05 0.0110964)
(-5.89454e-06 1.94663e-05 0.0110962)
(-2.71153e-06 2.01579e-05 0.0110948)
(-2.26537e-08 2.0131e-05 0.011092)
(-3.57474e-06 1.39326e-05 0.0110893)
(-2.14434e-06 1.4823e-05 0.011089)
(-1.54671e-07 1.54225e-05 0.0110877)
(1.53248e-06 1.53111e-05 0.0110851)
(-9.36425e-07 9.19519e-06 0.011083)
(-4.91081e-07 9.66829e-06 0.0110829)
(5.58237e-07 9.96128e-06 0.0110822)
(1.58731e-06 9.71323e-06 0.0110803)
(-5.80751e-06 9.19109e-06 0.0111043)
(-3.83749e-06 1.06432e-05 0.011103)
(-2.09288e-06 1.16695e-05 0.0111011)
(-9.87425e-07 1.22908e-05 0.0110986)
(-4.93122e-06 1.06294e-05 0.0110955)
(-3.68363e-06 1.12936e-05 0.0110952)
(-2.15724e-06 1.17583e-05 0.0110943)
(-1.00995e-06 1.18089e-05 0.0110927)
(-2.38934e-06 8.81279e-06 0.0110908)
(-1.82016e-06 9.26295e-06 0.0110906)
(-9.6078e-07 9.54422e-06 0.0110898)
(-3.65087e-07 9.38023e-06 0.0110884)
(-7.565e-07 6.20799e-06 0.0110867)
(-8.0923e-07 6.45408e-06 0.0110867)
(-5.67232e-07 6.55898e-06 0.0110863)
(-4.18491e-07 6.28635e-06 0.0110853)
(-3.62152e-06 5.44517e-06 0.0110994)
(-2.69932e-06 6.20374e-06 0.0110988)
(-1.86914e-06 6.77055e-06 0.0110978)
(-1.39339e-06 7.13139e-06 0.0110965)
(-3.00534e-06 6.31247e-06 0.0110949)
(-2.46336e-06 6.68679e-06 0.0110947)
(-1.79641e-06 6.95315e-06 0.0110942)
(-1.38896e-06 6.96909e-06 0.0110933)
(-1.59702e-06 5.5237e-06 0.0110919)
(-1.4778e-06 5.7457e-06 0.0110918)
(-1.21266e-06 5.85999e-06 0.0110914)
(-1.13154e-06 5.71023e-06 0.0110907)
(-5.84672e-07 4.04076e-06 0.0110893)
(-8.57443e-07 4.16067e-06 0.0110893)
(-9.87732e-07 4.1808e-06 0.0110891)
(-1.20122e-06 3.96191e-06 0.0110887)
(-2.32879e-06 3.32093e-06 0.011097)
(-1.92346e-06 3.70819e-06 0.0110967)
(-1.55874e-06 4.0031e-06 0.0110963)
(-1.39798e-06 4.1935e-06 0.0110956)
(-1.8914e-06 3.83238e-06 0.0110946)
(-1.71371e-06 4.02508e-06 0.0110945)
(-1.47499e-06 4.15463e-06 0.0110943)
(-1.40209e-06 4.14253e-06 0.0110938)
(-1.07177e-06 3.45072e-06 0.0110928)
(-1.1638e-06 3.549e-06 0.0110927)
(-1.17562e-06 3.58254e-06 0.0110926)
(-1.30621e-06 3.45883e-06 0.0110923)
(-4.40398e-07 2.56618e-06 0.0110912)
(-7.81389e-07 2.62054e-06 0.0110912)
(-1.04841e-06 2.60691e-06 0.0110912)
(-1.37089e-06 2.44408e-06 0.0110911)
(-1.52195e-06 2.06888e-06 0.011096)
(-1.3682e-06 2.25689e-06 0.0110958)
(-1.23229e-06 2.39754e-06 0.0110956)
(-1.22146e-06 2.48662e-06 0.0110953)
(-1.21608e-06 2.36233e-06 0.0110947)
(-1.21006e-06 2.44758e-06 0.0110946)
(-1.1713e-06 2.49718e-06 0.0110945)
(-1.23451e-06 2.46485e-06 0.0110943)
(-7.18846e-07 2.14707e-06 0.0110935)
(-8.89654e-07 2.18119e-06 0.0110935)
(-1.01345e-06 2.1762e-06 0.0110935)
(-1.2075e-06 2.07519e-06 0.0110934)
(-3.24432e-07 1.59489e-06 0.0110926)
(-6.55057e-07 1.61572e-06 0.0110926)
(-9.44693e-07 1.59156e-06 0.0110926)
(-1.26223e-06 1.47524e-06 0.0110926)
(-9.90405e-07 1.29584e-06 0.0110955)
(-9.528e-07 1.37836e-06 0.0110955)
(-9.25347e-07 1.43443e-06 0.0110954)
(-9.7655e-07 1.46659e-06 0.0110953)
(-7.83216e-07 1.45678e-06 0.0110948)
(-8.44473e-07 1.48344e-06 0.0110948)
(-8.88589e-07 1.49005e-06 0.0110947)
(-9.91368e-07 1.44834e-06 0.0110947)
(-4.75214e-07 1.31792e-06 0.0110941)
(-6.53955e-07 1.31995e-06 0.0110942)
(-8.04893e-07 1.29778e-06 0.0110942)
(-9.92049e-07 1.21757e-06 0.0110942)
(-2.32402e-07 9.64502e-07 0.0110935)
(-5.14366e-07 9.68014e-07 0.0110936)
(-7.71637e-07 9.42613e-07 0.0110936)
(-1.03595e-06 8.61948e-07 0.0110937)
(-6.22659e-07 7.88113e-07 0.0110954)
(-6.3089e-07 8.18388e-07 0.0110953)
(-6.45555e-07 8.32933e-07 0.0110953)
(-7.11205e-07 8.36381e-07 0.0110953)
(-4.88154e-07 8.71276e-07 0.011095)
(-5.61729e-07 8.70452e-07 0.011095)
(-6.26787e-07 8.57803e-07 0.011095)
(-7.22956e-07 8.17581e-07 0.011095)
(-3.00953e-07 7.77768e-07 0.0110946)
(-4.50358e-07 7.66085e-07 0.0110946)
(-5.83642e-07 7.39698e-07 0.0110946)
(-7.32304e-07 6.80124e-07 0.0110947)
(-1.5781e-07 5.54796e-07 0.0110942)
(-3.72605e-07 5.50083e-07 0.0110943)
(-5.70862e-07 5.27678e-07 0.0110943)
(-7.65406e-07 4.73406e-07 0.0110944)
(-3.56927e-07 4.36708e-07 0.0110953)
(-3.77321e-07 4.43453e-07 0.0110953)
(-4.01446e-07 4.40971e-07 0.0110953)
(-4.56285e-07 4.33104e-07 0.0110953)
(-2.77005e-07 4.7391e-07 0.0110951)
(-3.36519e-07 4.63612e-07 0.0110951)
(-3.92113e-07 4.46357e-07 0.0110951)
(-4.64052e-07 4.14908e-07 0.0110952)
(-1.73085e-07 4.16065e-07 0.0110949)
(-2.77512e-07 4.01445e-07 0.0110949)
(-3.73184e-07 3.7839e-07 0.0110949)
(-4.74614e-07 3.38327e-07 0.011095)
(-9.6715e-08 2.85375e-07 0.0110947)
(-2.39683e-07 2.77865e-07 0.0110947)
(-3.71516e-07 2.6044e-07 0.0110948)
(-4.97254e-07 2.26174e-07 0.0110949)
(-1.85545e-07 2.1404e-07 0.0110953)
(-2.07595e-07 2.09065e-07 0.0110953)
(-2.29901e-07 2.00157e-07 0.0110953)
(-2.62437e-07 1.88154e-07 0.0110954)
(-1.43909e-07 2.28131e-07 0.0110952)
(-1.88093e-07 2.14223e-07 0.0110952)
(-2.28692e-07 1.96989e-07 0.0110953)
(-2.74485e-07 1.73155e-07 0.0110953)
(-9.27138e-08 1.9314e-07 0.0110951)
(-1.62514e-07 1.77652e-07 0.0110951)
(-2.25518e-07 1.58167e-07 0.0110952)
(-2.88546e-07 1.30857e-07 0.0110953)
(-5.68989e-08 1.16358e-07 0.011095)
(-1.48247e-07 1.0689e-07 0.011095)
(-2.30457e-07 9.21521e-08 0.0110951)
(-3.06882e-07 6.98041e-08 0.0110952)
(-0.00117265 -0.000686263 0.0158188)
(-0.00228914 0.000598984 0.0165068)
(-0.00100232 0.000956687 0.0106523)
(0.000193202 1.48385e-05 0.0125456)
(-0.0015598 -0.00147692 0.0169483)
(-0.002531 -0.00193555 0.0171486)
(-0.00156286 0.000787869 0.01567)
(-0.00070805 -2.98046e-05 0.0146859)
(-0.00332878 -0.00127351 0.0151853)
(-0.0013892 -0.00140199 0.00923892)
(-0.000762397 -0.000242906 0.0153139)
(-1.5116e-05 -0.000560043 0.0116742)
(-0.00242658 -0.000154572 0.0145072)
(-7.17831e-05 0.000460121 0.0104849)
(-0.00154886 -0.000846408 0.0198252)
(-0.000370099 0.000219049 0.00786349)
(0.000265807 -0.00140261 0.0310541)
(-0.000270216 -0.000959813 0.0213983)
(-0.000970586 -0.000107965 0.0249733)
(-0.000609947 -0.00120143 0.0250501)
(-2.80944e-05 -0.000824007 0.0204489)
(-0.000569058 -0.000547563 0.0272057)
(-0.00120356 -0.00172258 0.0273676)
(-0.000138784 -0.0012144 0.0218034)
(0.00103867 -0.00114205 0.0258688)
(-0.0010239 -0.000900054 0.0186677)
(-0.00121475 -0.00172433 0.0202025)
(-0.000155921 -0.0011546 0.0237215)
(-0.000542718 -0.000252571 0.0151235)
(-0.00067837 -0.00134777 0.0136635)
(-0.0009628 -0.00108466 0.0322822)
(-0.00135287 -0.00243321 0.0238473)