/*--------------------------------*- C++ -*----------------------------------*\
| =========                 |                                                 |
| \\      /  F ield         | OpenFOAM: The Open Source CFD Toolbox           |
|  \\    /   O peration     | Version:  2506                                  |
|   \\  /    A nd           | Website:  www.openfoam.com                      |
|    \\/     M anipulation  |                                                 |
\*---------------------------------------------------------------------------*/
FoamFile
{
    version     2.0;
    format      ascii;
    arch        "LSB;label=32;scalar=64";
    class       volScalarField;
    location    "0.05";
    object      voidfraction;
}
// * * * * * * * * * * * * * * * * * * * * * * * * * * * * * * * * * * * * * //

dimensions      [0 0 0 0 0 0 0];

internalField   nonuniform List<scalar> 
1152
(
0.468063
0.454897
0.44963
0.494397
0.44963
0.50493
0.48123
0.446997
0.452263
0.41013
0.396963
0.436463
0.436463
0.570764
0.452263
0.53653
0.40223
0.46543
0.378529
0.420663
0.42593
0.391696
0.42593
0.38643
0.428563
0.428563
0.325862
0.365363
0.423296
0.404863
0.38643
0.420663
0.439097
0.423296
0.396963
0.396963
0.38643
0.367996
0.404863
0.367996
0.39433
0.478597
0.383796
0.48123
0.428563
0.344296
0.365363
0.47333
0.47333
0.44173
0.446997
0.44963
0.373263
0.41013
0.423296
0.41013
0.452263
0.375896
0.373263
0.399596
0.404863
0.39433
0.336396
0.302162
0.423296
0.367996
0.39433
0.452263
0.46543
0.391696
0.454897
0.502297
0.40223
0.41013
0.365363
0.381163
0.378529
0.367996
0.320596
0.404863
0.431196
0.41013
0.415396
0.381163
0.444363
0.38643
0.44173
0.373263
0.423296
0.383796
0.375896
0.444363
0.323229
0.44173
0.428563
0.491764
0.778799
0.781432
0.712965
0.694531
0.647131
0.760365
0.523364
0.623431
0.720865
0.676098
0.618164
0.578664
0.781432
0.818299
0.668198
0.628698
1
1
1
1
1
1
1
1
1
1
1
1
1
1
1
1
1
1
1
1
1
1
1
1
1
1
1
1
1
1
1
1
1
1
1
1
1
1
1
1
1
1
1
1
1
1
1
1
1
1
1
1
1
1
1
1
1
1
1
1
1
1
1
1
1
1
1
1
1
1
1
1
1
1
1
1
1
1
1
1
1
1
1
1
1
1
1
1
1
1
1
1
1
1
1
1
1
1
1
1
1
1
1
1
1
1
1
1
1
1
1
1
1
1
1
1
1
1
1
1
1
1
1
1
1
1
1
1
1
1
1
1
1
1
1
1
1
1
1
1
1
1
1
1
1
1
1
1
1
1
1
1
1
1
1
1
1
1
1
1
1
1
1
1
1
1
1
1
1
1
1
1
1
1
1
1
1
1
1
1
1
1
1
1
1
1
1
1
1
1
1
1
1
1
1
1
1
1
1
1
1
1
1
1
1
1
1
1
1
1
1
1
1
1
1
1
1
1
1
1
1
1
1
1
1
1
1
1
1
1
1
1
1
1
1
1
1
1
1
1
1
1
1
1
1
1
1
1
1
1
1
1
1
1
1
1
1
1
1
1
1
1
1
1
1
1
1
1
1
1
1
1
0.414576
0.483292
0.477748
0.456753
0.469496
0.408014
0.448792
0.380553
0.441626
0.443936
0.503795
0.423431
0.484575
0.424366
0.380938
0.471263
0.441554
0.424505
0.408839
0.500563
0.40427
0.483535
0.404474
0.351667
0.435909
0.376278
0.368467
0.347638
0.479206
0.398651
0.341141
0.416134
0.425368
0.412129
0.408839
0.430467
0.44558
0.366599
0.448792
0.447954
0.395889
0.475651
0.396957
0.423431
0.361088
0.457994
0.442844
0.44871
0.401087
0.402847
0.459614
0.391038
0.423838
0.446992
0.374005
0.415858
0.407323
0.422793
0.411202
0.353052
0.362878
0.321504
0.391992
0.416134
0.430763
0.455446
0.437853
0.386657
0.402096
0.449429
0.313068
0.428697
0.445437
0.382621
0.404079
0.325983
0.475627
0.382826
0.394203
0.34597
0.584538
0.396659
0.408839
0.447991
0.402096
0.390961
0.393394
0.377343
0.422569
0.446051
0.43257
0.418017
0.448782
0.436235
0.391992
0.49131
0.611516
0.6875
0.749754
0.759044
0.547767
0.622396
0.620525
0.656576
0.531194
0.619424
0.627253
0.645396
0.584797
0.588551
0.602031
0.629132
1
1
1
1
1
1
1
1
1
1
1
1
1
1
1
1
1
1
1
1
1
1
1
1
1
1
1
1
1
1
1
1
1
1
1
1
1
1
1
1
1
1
1
1
1
1
1
1
1
1
1
1
1
1
1
1
1
1
1
1
1
1
1
1
1
1
1
1
1
1
1
1
1
1
1
1
1
1
1
1
1
1
1
1
1
1
1
1
1
1
1
1
1
1
1
1
1
1
1
1
1
1
1
1
1
1
1
1
1
1
1
1
1
1
1
1
1
1
1
1
1
1
1
1
1
1
1
1
1
1
1
1
1
1
1
1
1
1
1
1
1
1
1
1
1
1
1
1
1
1
1
1
1
1
1
1
1
1
1
1
1
1
1
1
1
1
1
1
1
1
1
1
1
1
1
1
1
1
1
1
1
1
1
1
1
1
1
1
1
1
1
1
1
1
1
1
1
1
1
1
1
1
1
1
1
1
1
1
1
1
1
1
1
1
1
1
1
1
1
1
1
1
1
1
1
1
1
1
1
1
1
1
1
1
1
1
1
1
1
1
1
1
1
1
1
1
1
1
1
1
1
1
1
1
1
1
1
1
1
1
1
1
1
1
1
1
1
1
1
1
1
1
0.482022
0.462973
0.407323
0.420147
0.483292
0.476226
0.454508
0.450082
0.463241
0.385085
0.458686
0.411891
0.456753
0.415858
0.501931
0.368523
0.44695
0.40427
0.407323
0.40762
0.399753
0.427503
0.424908
0.390738
0.416093
0.379545
0.396957
0.405258
0.364752
0.351667
0.447793
0.406111
0.42267
0.482541
0.395889
0.436254
0.378095
0.437248
0.443936
0.404585
0.4306
0.446022
0.380338
0.434
0.369133
0.393391
0.41531
0.406111
0.47123
0.397747
0.401606
0.396882
0.439976
0.471354
0.391079
0.475798
0.426973
0.365696
0.366092
0.394203
0.377895
0.422277
0.447793
0.433675
0.411879
0.423838
0.416852
0.420147
0.384283
0.398269
0.481994
0.372935
0.463241
0.429403
0.382712
0.321243
0.417324
0.380553
0.355758
0.378546
0.438857
0.40427
0.407323
0.427306
0.365718
0.400705
0.427022
0.412498
0.488628
0.376775
0.411202
0.387571
0.386657
0.444744
0.445086
0.37604
0.711335
0.719528
0.664594
0.683229
0.647277
0.812416
0.746283
0.786363
0.655458
0.783949
0.710349
0.772274
0.671423
0.813845
0.750965
0.746908
1
1
1
1
1
1
1
1
1
1
1
1
1
1
1
1
1
1
1
1
1
1
1
1
1
1
1
1
1
1
1
1
1
1
1
1
1
1
1
1
1
1
1
1
1
1
1
1
1
1
1
1
1
1
1
1
1
1
1
1
1
1
1
1
1
1
1
1
1
1
1
1
1
1
1
1
1
1
1
1
1
1
1
1
1
1
1
1
1
1
1
1
1
1
1
1
1
1
1
1
1
1
1
1
1
1
1
1
1
1
1
1
1
1
1
1
1
1
1
1
1
1
1
1
1
1
1
1
1
1
1
1
1
1
1
1
1
1
1
1
1
1
1
1
1
1
1
1
1
1
1
1
1
1
1
1
1
1
1
1
1
1
1
1
1
1
1
1
1
1
1
1
1
1
1
1
1
1
1
1
1
1
1
1
1
1
1
1
1
1
1
1
1
1
1
1
1
1
1
1
1
1
1
1
1
1
1
1
1
1
1
1
1
1
1
1
1
1
1
1
1
1
1
1
1
1
1
1
1
1
1
1
1
1
1
1
1
1
1
1
1
1
1
1
1
1
1
1
1
1
1
1
1
1
1
1
1
1
1
1
1
1
1
1
1
1
1
1
1
1
1
1
)
;

boundaryField
{
    inlet
    {
        type            fixedValue;
        value           uniform 1;
    }
    outlet
    {
        type            fixedValue;
        value           uniform 1;
    }
    wall
    {
        type            zeroGradient;
    }
    procBoundary0to1
    {
        type            processor;
        value           nonuniform List<scalar> 
192
(
0.431196
0.515464
0.454897
0.43383
0.286362
0.381163
0.341663
0.383796
0.439097
0.389063
0.39433
0.41013
0.367996
0.423296
0.365363
0.41803
0.375896
0.302162
0.431196
0.344296
0.439097
0.452263
0.415396
0.360096
0.686631
0.499664
0.570764
0.483863
1
1
1
1
1
1
1
1
1
1
1
1
1
1
1
1
1
1
1
1
1
1
1
1
1
1
1
1
1
1
1
1
1
1
1
1
1
1
1
1
1
1
1
1
1
1
1
1
1
1
1
1
1
1
1
1
1
1
1
1
1
1
1
1
1
1
1
1
0.454151
0.436235
0.473797
0.501333
0.421937
0.384804
0.422946
0.383558
0.427306
0.424366
0.396414
0.368523
0.445203
0.396673
0.429578
0.333441
0.448782
0.382826
0.464953
0.408616
0.432675
0.404585
0.40968
0.513863
0.672491
0.693391
0.705945
0.711826
1
1
1
1
1
1
1
1
1
1
1
1
1
1
1
1
1
1
1
1
1
1
1
1
1
1
1
1
1
1
1
1
1
1
1
1
1
1
1
1
1
1
1
1
1
1
1
1
1
1
1
1
1
1
1
1
1
1
1
1
1
1
1
1
1
1
1
1
)
;
    }
    procBoundary0to2
    {
        type            processor;
        value           nonuniform List<scalar> 
192
(
0.475963
0.39433
0.354829
0.454897
0.354829
0.362729
0.444363
0.44963
0.310062
0.47333
0.391696
0.381163
0.44173
0.407496
0.462797
0.44963
0.381163
0.415396
0.462797
0.360096
0.44963
0.331129
0.354829
0.404863
0.694531
0.633964
0.707698
0.641864
1
1
1
1
1
1
1
1
1
1
1
1
1
1
1
1
1
1
1
1
1
1
1
1
1
1
1
1
1
1
1
1
1
1
1
1
1
1
1
1
1
1
1
1
1
1
1
1
1
1
1
1
1
1
1
1
1
1
1
1
1
1
1
1
1
1
1
1
0.434465
0.501513
0.491485
0.41864
0.420147
0.428323
0.484852
0.343464
0.443413
0.42041
0.422946
0.398593
0.468468
0.519316
0.449477
0.373534
0.429096
0.418432
0.405258
0.386064
0.393302
0.432279
0.438422
0.411122
0.613432
0.624157
0.681625
0.614097
1
1
1
1
1
1
1
1
1
1
1
1
1
1
1
1
1
1
1
1
1
1
1
1
1
1
1
1
1
1
1
1
1
1
1
1
1
1
1
1
1
1
1
1
1
1
1
1
1
1
1
1
1
1
1
1
1
1
1
1
1
1
1
1
1
1
1
1
)
;
    }
}


// ************************************************************************* //
