/*--------------------------------*- C++ -*----------------------------------*\
| =========                 |                                                 |
| \\      /  F ield         | OpenFOAM: The Open Source CFD Toolbox           |
|  \\    /   O peration     | Version:  2506                                  |
|   \\  /    A nd           | Website:  www.openfoam.com                      |
|    \\/     M anipulation  |                                                 |
\*---------------------------------------------------------------------------*/
FoamFile
{
    version     2.0;
    format      ascii;
    arch        "LSB;label=32;scalar=64";
    class       volScalarField;
    location    "0.02";
    object      Ksl;
}
// * * * * * * * * * * * * * * * * * * * * * * * * * * * * * * * * * * * * * //

dimensions      [1 -3 -1 0 0 0 0];

internalField   nonuniform List<scalar> 
1152
(
59933.4
171793
108577
274310
51452.9
130103
128896
134185
275366
123315
105595
108680
174843
120625
202295
88760.3
103051
349203
138668
210172
287570
221796
337294
227396
3.49268e+06
122596
346753
238712
147346
401985
108942
5.20917e+06
245437
234977
821805
111644
1.28136e+06
202189
200122
428278
192962
277963
259489
284045
224233
276197
363252
129329
512290
502060
149914
316248
192113
349632
366878
250810
272540
185197
271727
190075
162203
309874
157820
193771
9.36673e+06
99351.6
1.16041e+06
270517
228409
358497
127094
226718
245176
188539
309032
123345
228837
335578
417369
132257
147011
182757
163671
182623
114848
192446
310749
245369
657950
430415
340056
234068
109359
780977
113452
209683
140432
93315.8
361003
64326.5
96527.6
51022.6
30937.6
23566.1
79613.5
86821.4
81832.2
28646
679953
47383.4
98275.3
56593.5
0
0
0
0
0
0
0
0
0
0
0
0
0
0
0
0
0
0
0
0
0
0
0
0
0
0
0
0
0
0
0
0
0
0
0
0
0
0
0
0
0
0
0
0
0
0
0
0
0
0
0
0
0
0
0
0
0
0
0
0
0
0
0
0
0
0
0
0
0
0
0
0
0
0
0
0
0
0
0
0
0
0
0
0
0
0
0
0
0
0
0
0
0
0
0
0
0
0
0
0
0
0
0
0
0
0
0
0
0
0
0
0
0
0
0
0
0
0
0
0
0
0
0
0
0
0
0
0
0
0
0
0
0
0
0
0
0
0
0
0
0
0
0
0
0
0
0
0
0
0
0
0
0
0
0
0
0
0
0
0
0
0
0
0
0
0
0
0
0
0
0
0
0
0
0
0
0
0
0
0
0
0
0
0
0
0
0
0
0
0
0
0
0
0
0
0
0
0
0
0
0
0
0
0
0
0
0
0
0
0
0
0
0
0
0
0
0
0
0
0
0
0
0
0
0
0
0
0
0
0
0
0
0
0
0
0
0
0
0
0
0
0
0
0
0
0
0
0
0
0
0
0
0
0
0
0
0
0
0
0
0
0
0
0
0
0
0
0
0
0
0
0
76117.5
139385
65934.8
166262
191138
240018
92377.7
115376
84719.4
125633
106715
86989.5
779749
197156
105941
105274
180287
315216
185018
156076
165840
217878
960887
332138
223907
153937
150874
146325
121217
154793
279909
130630
441428
203388
255165
1.40465e+07
900120
171705
261513
136479
252041
484302
133970
266371
367992
183203
303888
132939
407546
170279
404217
249754
248934
284089
228603
179678
152508
197409
227433
305607
225413
285587
265078
175386
228098
136944
245451
611619
138236
400405
234936
181161
4.33562e+06
127979
143539
317068
312931
249323
260462
167230
95848.5
321554
222240
407873
1.80462e+06
167588
295957
183404
131569
226625
249368
276285
199114
224638
167812
248986
248361
75663.7
55150.6
45609.7
36583.1
62143
47768.4
214060
41012.4
32593.3
35935.4
43967.1
39707.7
44416.2
48023.4
45681.1
0
261.179
0
0
0
0
0
0
0
0
0
0
0
0
0
0
0
0
0
0
0
0
0
0
0
0
0
0
0
0
0
0
0
0
0
0
0
0
0
0
0
0
0
0
0
0
0
0
0
0
0
0
0
0
0
0
0
0
0
0
0
0
0
0
0
0
0
0
0
0
0
0
0
0
0
0
0
0
0
0
0
0
0
0
0
0
0
0
0
0
0
0
0
0
0
0
0
0
0
0
0
0
0
0
0
0
0
0
0
0
0
0
0
0
0
0
0
0
0
0
0
0
0
0
0
0
0
0
0
0
0
0
0
0
0
0
0
0
0
0
0
0
0
0
0
0
0
0
0
0
0
0
0
0
0
0
0
0
0
0
0
0
0
0
0
0
0
0
0
0
0
0
0
0
0
0
0
0
0
0
0
0
0
0
0
0
0
0
0
0
0
0
0
0
0
0
0
0
0
0
0
0
0
0
0
0
0
0
0
0
0
0
0
0
0
0
0
0
0
0
0
0
0
0
0
0
0
0
0
0
0
0
0
0
0
0
0
0
0
0
0
0
0
0
0
0
0
0
0
0
0
0
0
0
0
0
0
0
0
0
0
0
0
0
0
0
0
0
0
0
0
0
82279.8
77364.8
177666
114962
141837
91296.3
149956
134716
313472
108814
98843.2
100587
65925.8
168611
87283.2
114529
279905
326496
138687
145660
311279
358987
155302
228658
213062
322982
426864
206486
261991
1.50449e+06
213566
152267
290074
609117
201371
210084
203689
137469
282020
274336
297724
162219
257479
187850
97195
377668
252076
225845
207234
175363
176063
135520
426995
228527
316228
170383
244716
157662
278809
139970
383878
527576
283959
259410
161600
509423
210501
300854
407214
203534
157674
416927
605472
161810
671956
173181
148403
144420
197440
263175
159332
170973
110395
182176
193781
210614
228395
137887
396593
135307
191791
214383
414117
877246
295730
167283
50356.7
43695.4
44404.4
93059.2
49554.4
74631.9
15572.4
49845.3
57681.4
39129.5
101186
70899.7
57275.7
82783.7
68750
125118
0
0
0
0
0
0
0
0
0
0
0
0
0
0
0
0
0
0
0
0
0
0
0
0
0
0
0
0
0
0
0
0
0
0
0
0
0
0
0
0
0
0
0
0
0
0
0
0
0
0
0
0
0
0
0
0
0
0
0
0
0
0
0
0
0
0
0
0
0
0
0
0
0
0
0
0
0
0
0
0
0
0
0
0
0
0
0
0
0
0
0
0
0
0
0
0
0
0
0
0
0
0
0
0
0
0
0
0
0
0
0
0
0
0
0
0
0
0
0
0
0
0
0
0
0
0
0
0
0
0
0
0
0
0
0
0
0
0
0
0
0
0
0
0
0
0
0
0
0
0
0
0
0
0
0
0
0
0
0
0
0
0
0
0
0
0
0
0
0
0
0
0
0
0
0
0
0
0
0
0
0
0
0
0
0
0
0
0
0
0
0
0
0
0
0
0
0
0
0
0
0
0
0
0
0
0
0
0
0
0
0
0
0
0
0
0
0
0
0
0
0
0
0
0
0
0
0
0
0
0
0
0
0
0
0
0
0
0
0
0
0
0
0
0
0
0
0
0
0
0
0
0
0
0
0
0
0
0
0
0
0
0
0
0
0
0
0
0
0
0
0
0
)
;

boundaryField
{
    inlet
    {
        type            zeroGradient;
    }
    outlet
    {
        type            zeroGradient;
    }
    wall
    {
        type            zeroGradient;
    }
    procBoundary3to1
    {
        type            processor;
        value           nonuniform List<scalar> 
192
(
258795
84613.6
67075.1
70529
335181
485496
9.86956e+06
195203
150372
177968
125025
4.1381e+06
8.09456e+06
182753
340279
567703
127020
1.47841e+07
90415.4
184949
5.36019e+06
203914
419507
166290
104507
118365
13890.6
35134.6
267.617
0
0
0
0
0
0
0
0
0
0
0
0
0
0
0
0
0
0
0
0
0
0
0
0
0
0
0
0
0
0
0
0
0
0
0
0
0
0
0
0
0
0
0
0
0
0
0
0
0
0
0
0
0
0
0
0
0
0
0
0
0
0
0
0
0
0
0
255729
95393.1
84812.4
107435
242400
1.48368e+06
261386
479813
153781
172492
323525
116081
205224
338030
555001
3.96969e+07
245638
189143
184046
111513
307136
299310
399165
334248
39863.9
33115.4
17230.9
18901.2
0
0
0
0
0
0
0
0
0
0
0
0
0
0
0
0
0
0
0
0
0
0
0
0
0
0
0
0
0
0
0
0
0
0
0
0
0
0
0
0
0
0
0
0
0
0
0
0
0
0
0
0
0
0
0
0
0
0
0
0
0
0
0
0
0
0
0
0
)
;
    }
    procBoundary3to2
    {
        type            processor;
        value           nonuniform List<scalar> 
192
(
137566
737504
65502.5
90488.7
1.60972e+07
212104
147657
403592
104563
173762
363535
375938
366259
228255
178186
1.6578e+06
121081
414434
151836
641464
1.07465e+06
199161
182469
1.64856e+06
64575.2
96540
74813.1
100169
0
0
0
0
0
0
0
0
0
0
0
0
0
0
0
0
0
0
0
0
0
0
0
0
0
0
0
0
0
0
0
0
0
0
0
0
0
0
0
0
0
0
0
0
0
0
0
0
0
0
0
0
0
0
0
0
0
0
0
0
0
0
0
0
0
0
0
0
132283
108000
113730
111378
734197
491440
225013
276257
111302
128106
329023
257789
163580
269853
294956
164337
209837
386861
178920
228873
570502
110917
6.48453e+06
98452.1
43968.3
118926
52018
19392.9
0
0
0
0
0
0
0
0
0
0
0
0
0
0
0
0
0
0
0
0
0
0
0
0
0
0
0
0
0
0
0
0
0
0
0
0
0
0
0
0
0
0
0
0
0
0
0
0
0
0
0
0
0
0
0
0
0
0
0
0
0
0
0
0
0
0
0
0
)
;
    }
}


// ************************************************************************* //
