/*--------------------------------*- C++ -*----------------------------------*\
| =========                 |                                                 |
| \\      /  F ield         | OpenFOAM: The Open Source CFD Toolbox           |
|  \\    /   O peration     | Version:  2506                                  |
|   \\  /    A nd           | Website:  www.openfoam.com                      |
|    \\/     M anipulation  |                                                 |
\*---------------------------------------------------------------------------*/
FoamFile
{
    version     2.0;
    format      ascii;
    arch        "LSB;label=32;scalar=64";
    class       volScalarField;
    location    "0.02";
    object      p;
}
// * * * * * * * * * * * * * * * * * * * * * * * * * * * * * * * * * * * * * //

dimensions      [0 2 -2 0 0 0 0];

internalField   nonuniform List<scalar> 
1152
(
8.4856
8.5698
8.51102
8.54115
8.52509
8.56778
8.58977
8.57032
8.61954
8.53545
8.5633
8.53109
8.57248
8.57105
8.49117
8.4775
7.63116
7.55382
7.5213
7.33008
7.83418
7.56429
7.51326
7.4896
7.5008
7.52761
7.54842
7.51113
7.54148
7.56181
7.50337
7.39609
6.15436
5.94506
5.90143
5.90944
5.93546
6.00919
5.91134
5.88551
5.91878
6.04119
5.90841
5.7989
5.98046
5.94864
6.0299
5.86191
4.48211
3.86927
4.14571
4.41158
4.29369
4.3065
4.10415
4.19125
4.35465
4.31738
4.27622
4.17088
4.34032
4.34499
4.35156
4.35133
2.47835
2.59341
2.66196
2.61393
2.68273
2.64575
2.68776
2.69248
2.84642
2.88327
2.79615
2.804
2.71832
2.85486
2.75995
2.85856
1.56735
1.54629
1.377
1.26646
1.47625
1.33311
1.23989
1.14579
1.41134
1.34561
1.28931
1.25552
1.49983
1.27256
1.38587
1.40036
1.00534
1.00429
0.989208
1.0107
1.00908
1.01211
1.01785
1.01234
1.00991
1.00764
1.00961
1.01441
0.994216
1.0116
1.01022
1.00898
1.00412
1.00447
1.00556
1.00562
1.00451
1.00483
1.00587
1.00589
1.00467
1.00474
1.00509
1.00536
1.00466
1.00452
1.00428
1.00416
1.0075
1.00759
1.00763
1.00789
1.00756
1.00777
1.00787
1.00791
1.00749
1.00754
1.00766
1.00805
1.00729
1.00769
1.00787
1.00829
1.00615
1.00621
1.0063
1.0065
1.00615
1.00626
1.00637
1.00651
1.00618
1.00627
1.00635
1.00655
1.00618
1.00632
1.00638
1.00656
1.00603
1.00609
1.00616
1.00626
1.00603
1.00611
1.00618
1.00627
1.00605
1.00612
1.00618
1.00629
1.00604
1.00613
1.00619
1.0063
1.0056
1.00565
1.0057
1.00576
1.0056
1.00565
1.0057
1.00575
1.00561
1.00565
1.0057
1.00575
1.00561
1.00565
1.00569
1.00574
1.00517
1.00521
1.00524
1.00528
1.00517
1.00521
1.00524
1.00528
1.00518
1.00521
1.00524
1.00528
1.00518
1.00521
1.00524
1.00527
1.00473
1.00476
1.00478
1.00481
1.00473
1.00476
1.00478
1.00481
1.00474
1.00476
1.00478
1.00481
1.00474
1.00476
1.00478
1.0048
1.00429
1.00431
1.00432
1.00434
1.00429
1.00431
1.00432
1.00434
1.00429
1.00431
1.00432
1.00434
1.00429
1.0043
1.00432
1.00434
1.00384
1.00385
1.00386
1.00388
1.00384
1.00385
1.00386
1.00388
1.00384
1.00385
1.00386
1.00387
1.00384
1.00385
1.00386
1.00387
1.00339
1.0034
1.00341
1.00342
1.00339
1.0034
1.00341
1.00341
1.00339
1.0034
1.00341
1.00341
1.00339
1.0034
1.00341
1.00341
1.00294
1.00294
1.00295
1.00296
1.00294
1.00294
1.00295
1.00296
1.00294
1.00294
1.00295
1.00296
1.00294
1.00294
1.00295
1.00296
1.00249
1.00249
1.0025
1.0025
1.00249
1.00249
1.0025
1.0025
1.00249
1.00249
1.0025
1.0025
1.00249
1.00249
1.00249
1.0025
1.00204
1.00204
1.00204
1.00204
1.00204
1.00204
1.00204
1.00204
1.00203
1.00204
1.00204
1.00204
1.00203
1.00204
1.00204
1.00204
1.00158
1.00159
1.00159
1.00159
1.00158
1.00159
1.00159
1.00159
1.00158
1.00159
1.00159
1.00159
1.00158
1.00158
1.00159
1.00159
1.00113
1.00113
1.00113
1.00114
1.00113
1.00113
1.00113
1.00113
1.00113
1.00113
1.00113
1.00113
1.00113
1.00113
1.00113
1.00113
1.00068
1.00068
1.00068
1.00068
1.00068
1.00068
1.00068
1.00068
1.00068
1.00068
1.00068
1.00068
1.00068
1.00068
1.00068
1.00068
1.00023
1.00023
1.00023
1.00023
1.00023
1.00023
1.00023
1.00023
1.00023
1.00023
1.00023
1.00023
1.00023
1.00023
1.00023
1.00023
8.53296
8.56438
8.45863
8.45386
8.56236
8.58557
8.46831
8.41519
8.49735
8.48431
8.405
8.3398
8.54339
8.49108
8.40981
8.30698
7.60834
7.48676
7.59016
7.43848
7.52873
7.39814
7.55331
7.38618
7.57921
7.46864
7.43548
7.43068
7.45948
7.40765
7.51126
7.39139
6.04657
5.88579
6.05036
6.03182
6.02645
5.96929
5.95214
5.95425
5.91319
6.05557
6.04024
6.07752
6.19509
6.16176
6.04448
6.09209
4.24832
4.26278
4.35498
4.47743
4.1281
4.36039
4.39768
4.50421
4.26748
4.19966
4.41328
4.53022
4.30004
4.42587
4.41541
4.57295
2.59811
2.81
2.77744
2.91017
2.68854
2.72719
2.84705
2.92785
2.66851
2.74751
2.82211
2.92353
2.61992
2.71884
2.75353
2.96398
1.4727
1.46301
1.32519
1.29829
1.25151
1.31149
1.24864
1.3931
1.20307
1.25992
1.26582
1.26734
1.16151
1.20782
1.25061
1.30185
1.00855
1.03098
1.01517
1.00714
1.01643
1.01503
1.00878
0.995166
1.01066
1.01157
1.00981
1.00019
1.00992
1.00954
1.01136
1.00952
1.00463
1.00381
1.00449
1.0045
1.00518
1.00486
1.00565
1.00625
1.00514
1.00537
1.00564
1.00566
1.00521
1.00537
1.00559
1.00565
1.00768
1.00811
1.00807
1.00825
1.008
1.00821
1.00814
1.00824
1.00784
1.00807
1.00811
1.00813
1.0078
1.00794
1.0081
1.00822
1.00632
1.00645
1.00644
1.00652
1.00642
1.0065
1.00646
1.0065
1.00641
1.0065
1.00645
1.00648
1.00639
1.00645
1.00642
1.00647
1.00609
1.00617
1.00623
1.00635
1.00612
1.0062
1.00625
1.00636
1.00613
1.00621
1.00626
1.00638
1.00614
1.00622
1.00627
1.0064
1.00563
1.00567
1.00571
1.00575
1.00564
1.00569
1.00572
1.00576
1.00565
1.00569
1.00572
1.00576
1.00565
1.00569
1.00571
1.00576
1.00518
1.00522
1.00524
1.00528
1.00519
1.00522
1.00525
1.00529
1.00519
1.00523
1.00525
1.00529
1.00519
1.00523
1.00525
1.00529
1.00474
1.00476
1.00478
1.0048
1.00474
1.00476
1.00479
1.00481
1.00474
1.00477
1.00479
1.00481
1.00474
1.00477
1.00479
1.00481
1.00429
1.00431
1.00432
1.00434
1.00429
1.00431
1.00432
1.00434
1.00429
1.00431
1.00432
1.00434
1.00429
1.00431
1.00432
1.00434
1.00384
1.00385
1.00386
1.00387
1.00384
1.00385
1.00386
1.00387
1.00384
1.00385
1.00386
1.00388
1.00384
1.00385
1.00386
1.00388
1.00339
1.0034
1.00341
1.00341
1.00339
1.0034
1.00341
1.00341
1.00339
1.0034
1.00341
1.00341
1.00339
1.0034
1.00341
1.00341
1.00294
1.00294
1.00295
1.00295
1.00294
1.00294
1.00295
1.00296
1.00294
1.00294
1.00295
1.00296
1.00294
1.00294
1.00295
1.00296
1.00249
1.00249
1.00249
1.0025
1.00249
1.00249
1.0025
1.0025
1.00249
1.00249
1.0025
1.0025
1.00249
1.00249
1.0025
1.0025
1.00203
1.00204
1.00204
1.00204
1.00203
1.00204
1.00204
1.00204
1.00203
1.00204
1.00204
1.00204
1.00203
1.00204
1.00204
1.00204
1.00158
1.00158
1.00159
1.00159
1.00158
1.00158
1.00159
1.00159
1.00158
1.00158
1.00159
1.00159
1.00158
1.00158
1.00159
1.00159
1.00113
1.00113
1.00113
1.00113
1.00113
1.00113
1.00113
1.00113
1.00113
1.00113
1.00113
1.00113
1.00113
1.00113
1.00113
1.00113
1.00068
1.00068
1.00068
1.00068
1.00068
1.00068
1.00068
1.00068
1.00068
1.00068
1.00068
1.00068
1.00068
1.00068
1.00068
1.00068
1.00023
1.00023
1.00023
1.00023
1.00023
1.00023
1.00023
1.00023
1.00023
1.00023
1.00023
1.00023
1.00023
1.00023
1.00023
1.00023
8.46734
8.40925
8.32261
8.22643
8.52618
8.43925
8.38973
8.37685
8.54243
8.47181
8.43202
8.38497
8.45
8.46285
8.39163
8.35811
7.55595
7.55956
7.23169
7.1408
7.39552
7.30799
7.30117
7.28826
7.34149
7.32322
7.44788
7.39186
7.35516
7.46414
7.50075
7.46431
5.78357
5.62214
5.70661
5.55184
5.82652
5.76407
5.84023
5.67489
5.81899
5.72501
5.75124
5.71268
5.89594
5.90568
6.0101
6.06725
4.20863
4.24246
4.26856
4.36257
4.37424
4.36297
4.22845
4.31449
4.35245
4.3389
4.37056
4.35481
4.46934
4.28286
4.37136
4.4419
2.66156
2.74266
2.76582
3.11052
2.63001
2.74907
2.72305
2.76532
2.86169
2.83134
2.83831
2.98786
2.88818
2.89211
2.88844
2.86258
1.29033
1.23784
1.30858
1.37226
1.20226
1.28245
1.21702
1.28153
1.20842
1.32685
1.36098
1.43081
1.33846
1.46331
1.44672
1.49944
1.01371
1.01106
1.02136
1.01317
1.00934
1.00134
1.01323
1.01732
1.01522
1.01431
0.996423
1.01376
1.0047
1.00179
1.01368
1.0119
1.00585
1.00613
1.00673
1.0066
1.00588
1.00585
1.00625
1.00582
1.00588
1.00599
1.00546
1.00552
1.00631
1.00622
1.0062
1.00611
1.0082
1.00839
1.00905
1.0089
1.00785
1.00787
1.00852
1.0089
1.00786
1.0079
1.00755
1.0082
1.00788
1.00775
1.00798
1.0081
1.00671
1.00683
1.00707
1.00703
1.00658
1.00666
1.00688
1.00692
1.00658
1.00662
1.00661
1.00668
1.00647
1.00646
1.00648
1.00648
1.00637
1.00646
1.00656
1.00659
1.00634
1.00641
1.0065
1.00656
1.00635
1.00639
1.00642
1.00647
1.00635
1.00637
1.0064
1.00644
1.00582
1.00587
1.00592
1.00594
1.0058
1.00584
1.00588
1.0059
1.00579
1.00581
1.00583
1.00584
1.00576
1.00577
1.00577
1.00577
1.00532
1.00535
1.00538
1.00539
1.00531
1.00534
1.00536
1.00537
1.0053
1.00532
1.00533
1.00534
1.00529
1.0053
1.00531
1.00531
1.00483
1.00485
1.00487
1.00488
1.00483
1.00485
1.00486
1.00487
1.00482
1.00484
1.00484
1.00485
1.00481
1.00482
1.00482
1.00483
1.00436
1.00437
1.00438
1.00438
1.00435
1.00436
1.00437
1.00438
1.00435
1.00436
1.00436
1.00437
1.00434
1.00435
1.00435
1.00435
1.00389
1.0039
1.0039
1.0039
1.00389
1.00389
1.0039
1.0039
1.00388
1.00389
1.00389
1.00389
1.00388
1.00388
1.00388
1.00389
1.00342
1.00343
1.00343
1.00343
1.00342
1.00343
1.00343
1.00343
1.00342
1.00342
1.00343
1.00343
1.00342
1.00342
1.00342
1.00342
1.00296
1.00297
1.00297
1.00297
1.00296
1.00296
1.00297
1.00297
1.00296
1.00296
1.00296
1.00297
1.00296
1.00296
1.00296
1.00296
1.0025
1.00251
1.00251
1.00251
1.0025
1.00251
1.00251
1.00251
1.0025
1.0025
1.00251
1.00251
1.0025
1.0025
1.0025
1.0025
1.00205
1.00205
1.00205
1.00205
1.00205
1.00205
1.00205
1.00205
1.00205
1.00205
1.00205
1.00205
1.00205
1.00205
1.00205
1.00205
1.00159
1.00159
1.00159
1.00159
1.00159
1.00159
1.00159
1.00159
1.00159
1.00159
1.00159
1.00159
1.00159
1.00159
1.00159
1.00159
1.00114
1.00114
1.00114
1.00114
1.00114
1.00114
1.00114
1.00114
1.00114
1.00114
1.00114
1.00114
1.00114
1.00114
1.00114
1.00114
1.00068
1.00068
1.00068
1.00068
1.00068
1.00068
1.00068
1.00068
1.00068
1.00068
1.00068
1.00068
1.00068
1.00068
1.00068
1.00068
1.00023
1.00023
1.00023
1.00023
1.00023
1.00023
1.00023
1.00023
1.00023
1.00023
1.00023
1.00023
1.00023
1.00023
1.00023
1.00023
)
;

boundaryField
{
    inlet
    {
        type            zeroGradient;
    }
    outlet
    {
        type            fixedValue;
        value           uniform 1;
    }
    wall
    {
        type            zeroGradient;
    }
    procBoundary3to1
    {
        type            processor;
        value           nonuniform List<scalar> 
192
(
8.58868
8.54505
8.48686
8.47604
7.47109
7.55469
7.56706
7.64651
5.81669
5.77761
5.82085
5.95093
3.9638
4.07107
4.0595
3.96393
2.70598
2.59213
2.64406
2.58992
1.60971
1.46829
1.15848
1.2105
1.00875
1.00323
1.00548
1.01046
1.00451
1.00451
1.0052
1.00544
1.00737
1.00735
1.0077
1.00794
1.00617
1.00621
1.00637
1.00652
1.00603
1.00608
1.00616
1.00626
1.0056
1.00564
1.00569
1.00576
1.00517
1.0052
1.00524
1.00528
1.00473
1.00476
1.00478
1.00481
1.00429
1.0043
1.00432
1.00434
1.00384
1.00385
1.00386
1.00388
1.00339
1.0034
1.00341
1.00341
1.00294
1.00294
1.00295
1.00296
1.00249
1.00249
1.0025
1.0025
1.00204
1.00204
1.00204
1.00204
1.00158
1.00159
1.00159
1.00159
1.00113
1.00113
1.00113
1.00114
1.00068
1.00068
1.00068
1.00068
1.00023
1.00023
1.00023
1.00023
8.52291
8.4041
8.31293
8.26928
7.304
7.40038
7.34511
6.88656
5.74567
5.63244
5.43822
5.00272
4.25867
4.22023
4.04252
3.945
2.7479
2.82364
3.00589
3.44387
1.18028
1.15803
1.11289
1.24905
1.01262
1.01327
1.01526
1.02127
1.00618
1.00675
1.00765
1.00836
1.00821
1.00848
1.00895
1.00938
1.00671
1.00691
1.00713
1.00725
1.00637
1.00647
1.00657
1.00664
1.00582
1.00588
1.00593
1.00596
1.00532
1.00535
1.00538
1.0054
1.00483
1.00485
1.00487
1.00488
1.00435
1.00437
1.00438
1.00438
1.00389
1.00389
1.0039
1.0039
1.00342
1.00343
1.00343
1.00343
1.00296
1.00297
1.00297
1.00297
1.0025
1.00251
1.00251
1.00251
1.00205
1.00205
1.00205
1.00205
1.00159
1.00159
1.00159
1.00159
1.00114
1.00114
1.00114
1.00114
1.00068
1.00068
1.00068
1.00068
1.00023
1.00023
1.00023
1.00023
)
;
    }
    procBoundary3to2
    {
        type            processor;
        value           nonuniform List<scalar> 
192
(
8.61167
8.62055
8.54508
8.57661
7.26211
7.46874
7.69654
7.71083
5.91832
5.94936
6.01436
6.00526
4.37859
4.438
4.32336
4.42447
2.9096
2.85301
2.8343
2.80511
1.49154
1.44395
1.46692
1.31761
1.01161
1.00704
1.0117
1.00691
1.00465
1.00457
1.00463
1.00445
1.00769
1.00748
1.00762
1.00738
1.0062
1.00613
1.00619
1.00618
1.00602
1.006
1.00602
1.00602
1.00558
1.00557
1.00558
1.00558
1.00515
1.00515
1.00515
1.00515
1.00472
1.00472
1.00472
1.00472
1.00427
1.00427
1.00427
1.00427
1.00383
1.00383
1.00383
1.00383
1.00338
1.00338
1.00338
1.00338
1.00293
1.00293
1.00293
1.00293
1.00248
1.00248
1.00248
1.00248
1.00203
1.00203
1.00203
1.00203
1.00158
1.00158
1.00158
1.00158
1.00113
1.00113
1.00113
1.00113
1.00068
1.00068
1.00068
1.00068
1.00023
1.00023
1.00023
1.00023
8.57842
8.5722
8.53855
8.54036
7.31435
7.37952
7.57364
7.56015
5.90419
5.90717
5.89957
5.76489
4.52275
4.51774
4.2049
4.18734
2.87542
2.58818
2.63929
2.47848
1.25577
1.316
1.13245
1.15496
1.01012
1.00899
1.01396
1.01364
1.00468
1.00504
1.00535
1.00567
1.00762
1.00767
1.0078
1.00798
1.00626
1.0063
1.00637
1.0064
1.00605
1.00607
1.00609
1.00612
1.0056
1.00561
1.00562
1.00562
1.00516
1.00517
1.00517
1.00517
1.00472
1.00472
1.00472
1.00472
1.00428
1.00428
1.00428
1.00428
1.00383
1.00383
1.00383
1.00383
1.00338
1.00338
1.00338
1.00338
1.00293
1.00293
1.00293
1.00293
1.00248
1.00248
1.00248
1.00248
1.00203
1.00203
1.00203
1.00203
1.00158
1.00158
1.00158
1.00158
1.00113
1.00113
1.00113
1.00113
1.00068
1.00068
1.00068
1.00068
1.00023
1.00023
1.00023
1.00023
)
;
    }
}


// ************************************************************************* //
