/*--------------------------------*- C++ -*----------------------------------*\
| =========                 |                                                 |
| \\      /  F ield         | OpenFOAM: The Open Source CFD Toolbox           |
|  \\    /   O peration     | Version:  2506                                  |
|   \\  /    A nd           | Website:  www.openfoam.com                      |
|    \\/     M anipulation  |                                                 |
\*---------------------------------------------------------------------------*/
FoamFile
{
    version     2.0;
    format      ascii;
    arch        "LSB;label=32;scalar=64";
    class       surfaceScalarField;
    location    "0.02";
    object      phi;
}
// * * * * * * * * * * * * * * * * * * * * * * * * * * * * * * * * * * * * * //

dimensions      [0 3 -1 0 0 0 0];

oriented        oriented;

internalField   nonuniform List<scalar> 
3120
(
-4.81243e-09
-4.5554e-09
4.09867e-08
1.67971e-09
4.1942e-10
9.59474e-09
-8.95751e-10
-2.70318e-09
2.08521e-08
-6.40825e-10
1.09044e-08
2.62224e-09
-2.80003e-09
-6.3658e-09
2.73371e-08
-6.82883e-10
1.09337e-09
1.39815e-08
5.32997e-10
8.81501e-10
1.19699e-08
1.41335e-09
1.39286e-08
1.20605e-09
1.78365e-09
1.03053e-09
3.90118e-09
-1.05422e-09
-1.25874e-09
2.20315e-08
1.09405e-09
2.1297e-09
1.34865e-08
2.70093e-09
1.70289e-08
-7.10439e-10
8.92276e-12
1.60638e-08
1.81559e-09
2.16024e-09
1.33344e-08
3.36514e-11
3.37162e-10
1.9216e-08
1.55316e-09
1.72739e-08
1.09462e-09
1.43386e-09
2.09931e-09
-7.27187e-09
3.08123e-08
7.85924e-10
-2.66331e-12
1.10332e-08
5.17913e-09
3.66277e-10
1.7955e-08
-2.67061e-09
2.88746e-08
-3.61785e-09
3.98755e-09
2.25295e-09
8.21449e-09
6.96787e-10
1.16951e-09
1.61001e-08
3.45093e-10
-1.69511e-10
1.28574e-08
-1.77874e-10
1.06127e-08
1.16831e-09
-1.76426e-09
-5.91818e-10
1.05816e-08
-6.2448e-10
-7.11398e-10
2.27726e-08
4.3489e-10
1.46275e-09
1.07949e-08
1.82783e-09
1.26257e-08
2.83231e-09
-3.8294e-10
2.06177e-08
-1.75798e-09
1.65158e-09
9.77216e-09
8.16308e-10
1.62917e-09
2.38043e-08
-3.10312e-09
1.94404e-08
1.58206e-09
-2.91504e-10
3.04909e-09
2.33006e-09
1.0149e-08
4.92702e-10
-8.16532e-10
1.14286e-08
2.96332e-10
1.36863e-10
1.66528e-08
1.01304e-09
2.6404e-08
4.05425e-09
-6.45304e-10
6.29352e-10
1.0557e-08
1.94143e-09
-2.77473e-10
1.29743e-08
5.26616e-10
2.04386e-10
1.42047e-08
1.01986e-09
1.01984e-08
9.34059e-10
-1.86928e-09
-9.2284e-10
1.53694e-08
1.77147e-09
1.33002e-09
1.75244e-08
1.35262e-09
-1.13603e-09
1.25541e-08
-1.36891e-09
1.66501e-08
-2.82973e-10
4.83329e-10
2.01702e-08
-6.53403e-10
-8.3399e-10
1.12896e-08
1.12994e-09
3.83958e-09
1.81402e-08
-1.45519e-10
2.69057e-08
-4.09067e-09
-9.04004e-10
2.6985e-09
2.31817e-09
4.01353e-09
-4.47314e-09
-2.53715e-09
2.42346e-08
-4.97231e-09
1.03414e-09
1.47804e-08
2.74484e-09
1.22907e-08
3.19259e-09
-3.55304e-11
-6.58894e-10
1.61833e-08
1.78452e-09
1.10337e-10
8.50676e-09
-8.53736e-10
-1.60656e-09
1.94836e-08
6.12097e-10
1.33105e-08
-1.8331e-09
7.87155e-10
6.01053e-10
1.2853e-08
8.44786e-10
-3.12049e-10
1.78891e-08
1.95806e-09
-1.34741e-09
1.11817e-08
-4.01411e-09
2.68383e-08
-3.60398e-09
9.53353e-12
2.02872e-08
1.69177e-09
-1.35793e-10
9.43418e-09
1.68865e-09
-1.6438e-11
1.65942e-08
7.92551e-11
2.70935e-08
-2.41375e-09
-1.80456e-09
-4.09891e-09
1.60212e-09
1.82374e-08
-2.31045e-09
-1.11266e-09
2.57726e-08
5.86817e-10
2.03835e-11
1.18152e-08
-1.05182e-09
1.42285e-08
-7.14968e-10
5.43012e-10
-2.08645e-09
2.12934e-08
-8.69164e-10
-3.23395e-09
1.20402e-08
-1.86144e-10
-2.26382e-09
2.10848e-08
-3.15268e-09
1.45059e-08
7.19383e-10
-5.31925e-10
2.27543e-09
8.80375e-09
1.41116e-09
4.24762e-10
1.22873e-08
-1.20391e-10
5.48701e-10
9.90073e-09
-2.18431e-09
2.67902e-08
-1.04061e-09
-1.58053e-09
2.29545e-08
2.18105e-09
8.24784e-10
6.14927e-09
1.30437e-09
-2.09091e-09
2.01602e-08
-1.01681e-10
2.48412e-08
-1.26445e-09
-7.58501e-10
3.21308e-10
4.12162e-09
1.30126e-08
3.78688e-09
4.91565e-09
1.58177e-08
2.54139e-09
2.54752e-09
7.23265e-09
2.14397e-09
1.38527e-08
-6.28219e-10
4.84046e-09
2.1961e-09
1.76477e-08
1.61953e-09
3.20025e-10
1.98568e-08
1.16661e-09
-4.63748e-10
2.4549e-08
-1.54874e-09
2.05723e-08
-1.20713e-09
5.20755e-10
-1.82995e-09
1.31992e-08
6.18705e-10
6.37238e-10
1.18722e-08
5.91067e-10
-2.52426e-09
1.19889e-08
-2.29221e-09
2.72671e-08
8.5766e-10
5.57398e-09
9.96032e-09
1.94525e-09
-2.4055e-09
1.60121e-08
-1.24615e-09
-3.67215e-10
1.35457e-08
2.05198e-09
1.85363e-08
2.20092e-09
1.44457e-09
4.20347e-10
4.41279e-10
1.54076e-08
-2.21806e-09
-1.35794e-09
1.81273e-08
-4.90777e-09
8.1229e-09
1.53171e-08
-5.6754e-10
1.49981e-08
-5.32153e-09
-5.28693e-10
2.22491e-10
1.85124e-08
-4.22887e-09
-3.23721e-09
2.54363e-08
-2.83082e-10
3.95624e-09
2.47698e-08
-1.24864e-09
2.01323e-08
8.37956e-10
-2.46819e-09
5.89056e-10
1.50254e-08
-3.17668e-09
-5.49127e-09
1.48348e-08
9.31674e-10
-2.33474e-09
1.41716e-08
8.96349e-10
2.66909e-08
-6.37267e-10
2.39182e-09
6.87844e-09
-1.57999e-11
4.43875e-09
1.10443e-08
-2.57039e-09
1.75324e-09
1.47614e-08
-8.65072e-10
2.83763e-08
4.11556e-09
-1.13061e-08
-6.37086e-10
-1.70342e-09
2.10362e-08
-4.00415e-09
-1.59965e-09
2.36381e-08
-3.79786e-09
-1.89599e-10
1.72148e-08
-2.33934e-09
1.59543e-08
-1.70739e-09
-3.00255e-09
-2.36928e-09
2.18233e-08
-5.37547e-09
-1.21394e-09
2.74235e-08
-2.29912e-09
2.26081e-10
2.12778e-08
-3.50223e-09
1.76501e-08
1.34571e-09
-2.68531e-09
-1.3718e-09
1.64098e-08
-6.18917e-09
1.49706e-09
1.56276e-08
-9.34279e-09
2.57864e-09
1.49726e-08
-4.17187e-09
2.53818e-08
-7.36456e-09
-3.66356e-09
5.98578e-09
1.06729e-09
-8.35922e-09
8.84723e-09
8.38975e-09
-1.56151e-08
1.85469e-08
6.04904e-09
3.39035e-08
-3.47256e-09
-2.18419e-08
-1.02387e-09
-5.88196e-10
1.84477e-08
9.2954e-10
-1.10743e-09
1.90776e-08
7.11213e-10
-8.89485e-10
1.70037e-08
-2.42638e-09
1.72513e-08
8.24375e-11
-2.65493e-09
2.25877e-09
1.84664e-08
2.74807e-11
3.45151e-09
2.01822e-08
9.46694e-10
7.5357e-10
1.87156e-08
-4.25035e-09
1.85842e-08
1.83653e-09
-1.84525e-09
2.94158e-09
1.67888e-08
-2.98402e-09
3.20633e-09
1.70115e-08
-4.99393e-09
3.15765e-10
1.74203e-08
-4.13078e-09
2.12046e-08
-9.36372e-10
-4.04228e-09
1.43242e-08
-1.50316e-09
-7.76573e-09
1.55317e-08
2.45492e-10
-8.56194e-09
1.85258e-08
1.13316e-09
2.28544e-08
-7.27201e-10
-9.16445e-10
-1.95239e-10
-1.30487e-10
1.76635e-08
4.09921e-10
-3.3008e-10
1.79122e-08
1.05806e-10
-3.67708e-10
1.72808e-08
-6.90584e-10
1.73327e-08
4.76807e-12
-7.55905e-10
4.46563e-10
1.76183e-08
1.42402e-10
7.52067e-10
1.82017e-08
4.26745e-10
3.17273e-10
1.77461e-08
-5.90935e-10
1.78037e-08
1.1074e-09
-4.48199e-10
2.31291e-10
1.71104e-08
-5.22133e-10
4.43467e-10
1.73941e-08
-5.74963e-10
3.21381e-10
1.74689e-08
2.55073e-10
1.8537e-08
1.24651e-09
-6.87828e-10
1.6394e-08
-1.21324e-09
-8.41688e-10
1.68863e-08
-7.57321e-10
3.10249e-10
1.75432e-08
1.52037e-10
1.85404e-08
8.70877e-10
4.00835e-09
-4.47127e-11
-1.04707e-10
1.73402e-08
2.10989e-10
-2.16294e-10
1.74504e-08
1.4043e-10
-2.73652e-10
1.72729e-08
-3.72444e-10
1.7287e-08
9.35775e-11
-2.39005e-10
5.96055e-11
1.73333e-08
1.25805e-10
7.53372e-11
1.75452e-08
2.17322e-10
-3.44846e-11
1.74154e-08
-2.65904e-10
1.74507e-08
4.63717e-10
-1.8233e-10
-5.25443e-11
1.72231e-08
-7.97844e-11
-2.04115e-11
1.73872e-08
-4.62008e-12
-1.66986e-11
1.73759e-08
1.83474e-11
1.7646e-08
6.02011e-10
-1.55587e-10
1.70269e-08
-5.653e-10
-4.54751e-11
1.7234e-08
-4.78247e-10
3.62721e-10
1.73009e-08
-1.82556e-10
1.74007e-08
1.48206e-11
1.50607e-09
2.95967e-11
-8.33449e-11
1.7235e-08
1.35598e-10
-1.17524e-10
1.72763e-08
1.21809e-10
-1.12745e-10
1.72197e-08
-9.29334e-11
1.72113e-08
1.0139e-10
-1.04241e-11
-5.52249e-11
1.72424e-08
1.39787e-10
-3.59058e-11
1.73134e-08
1.93283e-10
-1.80403e-11
1.72672e-08
2.42038e-11
1.72534e-08
2.73362e-10
1.60484e-11
-9.53477e-11
1.72261e-08
1.36241e-10
-5.5854e-11
1.7287e-08
2.06072e-10
2.18947e-11
1.72662e-08
1.7144e-10
1.72853e-08
4.19571e-10
8.93402e-11
1.71865e-08
-2.8445e-10
2.75188e-10
1.72382e-08
-2.45786e-10
5.00923e-10
1.71934e-08
-9.62037e-11
1.71037e-08
3.68188e-11
9.32705e-10
6.03276e-11
-6.33702e-11
1.72035e-08
1.01151e-10
-7.08684e-11
1.72127e-08
9.90657e-11
-6.00263e-11
1.71896e-08
-3.36689e-11
1.71747e-08
8.71602e-11
5.22515e-11
-6.19633e-11
1.72127e-08
1.13916e-10
-4.92644e-11
1.72302e-08
1.40772e-10
-2.70188e-11
1.72074e-08
1.61151e-11
1.71828e-08
1.61709e-10
6.7608e-11
-7.93442e-11
1.72167e-08
1.28783e-10
-5.37294e-11
1.72303e-08
1.6812e-10
-8.65871e-12
1.72086e-08
6.39e-11
1.71786e-08
2.27109e-10
1.12055e-10
1.7213e-08
-1.44929e-10
2.09865e-10
1.7215e-08
-1.28311e-10
2.99332e-10
1.71649e-08
-6.95794e-11
1.70735e-08
-2.75378e-11
4.21044e-10
6.44504e-11
-4.4586e-11
1.71928e-08
7.95769e-11
-4.48086e-11
1.71904e-08
7.84908e-11
-3.54733e-11
1.71766e-08
-1.65309e-11
1.71611e-08
6.91392e-11
6.44611e-11
-4.73933e-11
1.72002e-08
8.95157e-11
-3.91766e-11
1.71995e-08
1.01051e-10
-2.33112e-11
1.71838e-08
3.76001e-12
1.71604e-08
1.0315e-10
7.36746e-11
-5.57123e-11
1.72063e-08
1.0314e-10
-4.1318e-11
1.7203e-08
1.20098e-10
-1.47233e-11
1.71831e-08
1.81789e-11
1.71499e-08
1.34492e-10
9.53745e-11
1.72086e-08
-7.89335e-11
1.42416e-10
1.71973e-08
-7.06061e-11
1.80733e-10
1.71583e-08
-4.63831e-11
1.70856e-08
-2.79474e-11
2.14793e-10
5.68516e-11
-3.06609e-11
1.71891e-08
6.20981e-11
-2.9522e-11
1.71834e-08
6.02341e-11
-2.34969e-11
1.71731e-08
-1.26007e-11
1.71591e-08
5.27733e-11
5.81486e-11
-3.32982e-11
1.71942e-08
6.82683e-11
-2.85623e-11
1.71885e-08
7.16953e-11
-1.93252e-11
1.71762e-08
-5.85966e-12
1.71569e-08
6.85341e-11
6.32349e-11
-3.75918e-11
1.71989e-08
7.70038e-11
-3.0414e-11
1.71912e-08
8.33942e-11
-1.70773e-11
1.71745e-08
-1.65575e-12
1.71456e-08
8.35604e-11
7.28741e-11
1.72004e-08
-4.59515e-11
9.44784e-11
1.71875e-08
-4.215e-11
1.0984e-10
1.71582e-08
-3.22968e-11
1.71016e-08
-2.38823e-11
1.16194e-10
4.59445e-11
-2.12074e-11
1.71879e-08
4.74455e-11
-2.02141e-11
1.71819e-08
4.51829e-11
-1.66951e-11
1.71737e-08
-1.08094e-11
1.71616e-08
3.92946e-11
4.70031e-11
-2.29821e-11
1.71913e-08
5.09686e-11
-2.05322e-11
1.7185e-08
5.10393e-11
-1.5624e-11
1.71752e-08
-8.82251e-12
1.71593e-08
4.68113e-11
4.9567e-11
-2.51805e-11
1.71943e-08
5.57808e-11
-2.19925e-11
1.71865e-08
5.75363e-11
-1.58294e-11
1.71731e-08
-8.33569e-12
1.71487e-08
5.4122e-11
5.35423e-11
1.71939e-08
-2.81058e-11
6.32397e-11
1.71826e-08
-2.67307e-11
6.86924e-11
1.716e-08
-2.29296e-11
1.71134e-08
-1.88861e-11
6.75087e-11
3.54781e-11
-1.47965e-11
1.71875e-08
3.55739e-11
-1.4202e-11
1.71823e-08
3.33724e-11
-1.22738e-11
1.71757e-08
-9.1727e-12
1.71653e-08
2.88562e-11
3.60978e-11
-1.58743e-11
1.71898e-08
3.747e-11
-1.47549e-11
1.71843e-08
3.63848e-11
-1.23439e-11
1.71765e-08
-8.96088e-12
1.71631e-08
3.25505e-11
3.72379e-11
-1.69367e-11
1.71916e-08
3.98544e-11
-1.5693e-11
1.71849e-08
3.96765e-11
-1.30946e-11
1.71741e-08
-9.75893e-12
1.71532e-08
3.61567e-11
3.86642e-11
1.71897e-08
-1.78254e-11
4.29138e-11
1.71804e-08
-1.76149e-11
4.43272e-11
1.71619e-08
-1.63883e-11
1.71212e-08
-1.46202e-11
4.14877e-11
2.66992e-11
-1.03318e-11
1.71875e-08
2.62753e-11
-1.00789e-11
1.71833e-08
2.43758e-11
-9.08701e-12
1.7178e-08
-7.47801e-12
1.71689e-08
2.09984e-11
2.69619e-11
-1.09861e-11
1.71891e-08
2.72392e-11
-1.05805e-11
1.71846e-08
2.59043e-11
-9.48257e-12
1.71784e-08
-7.92466e-12
1.71667e-08
2.28661e-11
2.73544e-11
-1.14595e-11
1.719e-08
2.832e-11
-1.113e-11
1.71846e-08
2.74896e-11
-1.01436e-11
1.71758e-08
-8.84966e-12
1.71572e-08
2.46494e-11
2.76911e-11
1.71871e-08
-1.15886e-11
2.94628e-11
1.71794e-08
-1.18669e-11
2.9385e-11
1.71636e-08
-1.16939e-11
1.71263e-08
-1.10473e-11
2.66372e-11
1.9688e-11
-7.20107e-12
1.71878e-08
1.91331e-11
-7.14714e-12
1.71844e-08
1.76104e-11
-6.66935e-12
1.71801e-08
-5.83746e-12
1.71721e-08
1.51336e-11
1.97441e-11
-7.59595e-12
1.71889e-08
1.95924e-11
-7.53399e-12
1.71852e-08
1.83757e-11
-7.08841e-12
1.71802e-08
-6.39477e-12
1.71698e-08
1.60986e-11
1.9784e-11
-7.77565e-12
1.71891e-08
2.00233e-11
-7.82906e-12
1.71848e-08
1.90947e-11
-7.54768e-12
1.71774e-08
-7.13876e-12
1.71603e-08
1.69774e-11
1.96905e-11
1.71856e-08
-7.64069e-12
2.03509e-11
1.71791e-08
-8.06728e-12
1.98108e-11
1.7165e-08
-8.27895e-12
1.71297e-08
-8.13528e-12
1.76123e-11
1.41669e-11
-5.00986e-12
1.71881e-08
1.36676e-11
-5.02774e-12
1.71854e-08
1.25196e-11
-4.80759e-12
1.71818e-08
-4.37345e-12
1.71745e-08
1.07457e-11
1.41475e-11
-5.22451e-12
1.71888e-08
1.3876e-11
-5.29477e-12
1.71859e-08
1.28975e-11
-5.14858e-12
1.71817e-08
-4.86214e-12
1.71721e-08
1.1256e-11
1.40568e-11
-5.25855e-12
1.71887e-08
1.401e-11
-5.43795e-12
1.71852e-08
1.32008e-11
-5.43798e-12
1.71787e-08
-5.387e-12
1.71626e-08
1.16852e-11
1.38326e-11
1.71847e-08
-5.05769e-12
1.40186e-11
1.71791e-08
-5.47362e-12
1.34243e-11
1.71661e-08
-5.77773e-12
1.7132e-08
-5.82981e-12
1.17997e-11
9.83222e-12
-3.43607e-12
1.71883e-08
9.45798e-12
-3.45961e-12
1.71862e-08
8.64438e-12
-3.35732e-12
1.71831e-08
-3.13104e-12
1.71763e-08
7.41989e-12
9.80752e-12
-3.53092e-12
1.71888e-08
9.55257e-12
-3.62609e-12
1.71865e-08
8.83087e-12
-3.60066e-12
1.71828e-08
-3.49632e-12
1.71738e-08
7.69377e-12
9.69691e-12
-3.49791e-12
1.71885e-08
9.56895e-12
-3.6837e-12
1.71855e-08
8.94608e-12
-3.77074e-12
1.71796e-08
-3.84005e-12
1.71642e-08
7.90104e-12
9.47446e-12
1.71842e-08
-3.30698e-12
9.47925e-12
1.71792e-08
-3.6465e-12
8.98002e-12
1.71669e-08
-3.92336e-12
1.71335e-08
-4.02843e-12
7.84162e-12
6.41485e-12
-2.21764e-12
1.71885e-08
6.16867e-12
-2.23059e-12
1.71867e-08
5.63536e-12
-2.18213e-12
1.7184e-08
-2.06638e-12
1.71775e-08
4.83957e-12
6.40153e-12
-2.24909e-12
1.71889e-08
6.21211e-12
-2.3266e-12
1.71869e-08
5.72568e-12
-2.34026e-12
1.71836e-08
-2.31143e-12
1.7175e-08
4.98415e-12
6.31395e-12
-2.19869e-12
1.71883e-08
6.19241e-12
-2.34344e-12
1.71857e-08
5.76114e-12
-2.43521e-12
1.71803e-08
-2.52328e-12
1.71652e-08
5.08087e-12
6.14358e-12
1.71839e-08
-2.05267e-12
6.09598e-12
1.71793e-08
-2.2952e-12
5.73512e-12
1.71674e-08
-2.50424e-12
1.71344e-08
-2.60109e-12
4.98796e-12
3.73329e-12
-1.08897e-12
1.71886e-08
3.59226e-12
-1.09963e-12
1.7187e-08
3.28298e-12
-1.08454e-12
1.71845e-08
-1.03765e-12
1.71782e-08
2.81972e-12
3.72293e-12
-1.10501e-12
1.71889e-08
3.60479e-12
-1.16233e-12
1.71871e-08
3.31542e-12
-1.18728e-12
1.7184e-08
-1.19191e-12
1.71756e-08
2.88033e-12
3.66493e-12
-1.0864e-12
1.71883e-08
3.57709e-12
-1.18253e-12
1.71859e-08
3.31497e-12
-1.25337e-12
1.71807e-08
-1.32489e-12
1.71659e-08
2.91373e-12
3.55363e-12
1.71837e-08
-1.01901e-12
3.50267e-12
1.71793e-08
-1.17043e-12
3.27705e-12
1.71677e-08
-1.30509e-12
1.7135e-08
-1.37729e-12
2.83864e-12
1.98788e-12
1.82986e-13
1.91482e-12
1.53459e-13
1.75109e-12
1.26537e-13
1.04514e-13
1.50428e-12
1.96037e-12
1.17004e-13
1.88803e-12
6.55123e-14
1.72465e-12
1.76552e-14
-3.14255e-14
1.4829e-12
1.90541e-12
5.18566e-14
1.83838e-12
-2.30113e-14
1.68056e-12
-9.49586e-14
-1.74666e-13
1.44457e-12
1.82494e-12
-1.39717e-14
1.76396e-12
-1.14331e-13
1.61333e-12
-2.16787e-13
-3.04121e-13
1.36092e-12
-9.93446e-10
-1.40253e-09
2.347e-08
5.32974e-09
-5.99894e-10
1.02785e-08
-2.33999e-10
-1.80772e-09
2.26403e-08
1.94517e-09
9.23931e-09
-1.45761e-10
-3.01246e-10
3.26385e-09
1.57688e-08
2.58917e-09
3.01414e-09
1.1769e-08
9.67992e-10
3.93803e-09
1.17438e-08
6.36019e-09
9.55009e-09
-8.5669e-10
4.53297e-10
-2.19031e-09
2.88298e-08
1.94887e-09
-2.03479e-10
2.27979e-08
1.71075e-09
-2.37912e-10
2.26455e-08
3.73834e-09
1.99293e-08
-1.30885e-09
3.67878e-10
2.20995e-08
1.68263e-09
2.1673e-08
2.65699e-09
1.91451e-08
2.36743e-08
-9.2766e-10
1.72196e-09
2.24258e-09
1.40826e-08
-1.72729e-09
1.61298e-09
1.29311e-08
3.0288e-09
1.35288e-09
1.34282e-08
1.28689e-09
1.15556e-08
1.00772e-09
2.16095e-09
-1.60078e-09
1.54223e-08
-1.34961e-09
-2.28435e-09
1.91769e-08
6.00225e-10
3.46498e-09
7.68183e-09
-1.83581e-09
1.36775e-08
-4.04447e-10
1.83064e-09
5.04637e-09
2.01664e-08
6.4137e-10
2.76978e-09
1.8933e-08
6.62939e-11
-2.86932e-09
2.95549e-08
2.93794e-09
1.60439e-08
-8.22033e-10
1.22455e-09
2.79525e-08
-1.44885e-09
2.72378e-08
1.75886e-09
1.3099e-08
2.93359e-08
-9.19555e-10
1.89467e-09
1.77173e-10
7.88535e-09
-2.16112e-09
-2.19546e-09
2.03123e-08
1.22895e-09
1.89162e-09
8.00097e-09
-7.81426e-10
6.98872e-09
2.48656e-09
5.60881e-10
1.12525e-09
1.16252e-08
3.12817e-10
-1.81992e-09
1.90494e-08
7.72226e-11
-3.52776e-09
1.33368e-08
-5.97915e-09
1.83906e-08
5.61807e-10
-1.05219e-09
-4.70381e-09
2.68565e-08
6.44793e-11
-2.39666e-09
1.83931e-08
-5.84879e-10
-5.65181e-10
2.72417e-08
-1.1663e-09
1.02519e-08
3.94284e-10
2.59841e-10
2.01349e-08
1.04293e-09
2.40867e-08
-7.18402e-10
1.44408e-08
2.7284e-08
3.08887e-10
-3.77804e-10
1.51605e-09
1.29618e-08
-1.35362e-09
-2.02619e-09
2.50029e-08
-8.18013e-10
-4.84029e-10
8.02866e-09
-1.00365e-09
4.67881e-09
8.17929e-11
-2.55652e-09
-3.88036e-09
2.38373e-08
-4.91506e-10
3.6003e-09
1.13579e-08
-1.22764e-09
-2.1581e-10
1.38047e-08
-1.36536e-09
1.55564e-08
1.96825e-09
1.08155e-09
-1.16408e-09
2.19919e-08
-2.87278e-09
-5.68623e-09
3.1634e-08
-1.05224e-09
-1.83946e-11
2.52237e-08
-1.79295e-09
8.77079e-09
8.56432e-10
-1.32159e-09
1.84742e-08
-1.45904e-10
1.73001e-08
-1.80338e-09
1.60557e-08
2.27653e-08
9.20287e-10
-5.13479e-09
-2.58834e-09
2.73156e-08
5.77271e-10
2.72779e-09
1.78674e-08
-6.8924e-10
-1.20711e-09
1.04006e-08
-5.04069e-10
2.73182e-09
4.97376e-10
-6.46094e-10
5.24589e-10
1.95463e-08
-9.99769e-10
-3.09155e-10
1.47485e-08
-6.59502e-10
1.08398e-09
1.11733e-08
1.92055e-10
1.34253e-08
7.75559e-10
-1.37578e-09
5.08493e-10
2.28128e-08
-1.64461e-09
1.23381e-09
3.03598e-08
-1.07503e-09
2.6668e-09
2.30713e-08
-1.49464e-09
9.16416e-09
2.18297e-10
-9.3641e-10
1.86019e-08
-3.72978e-10
1.79199e-08
-2.13666e-09
2.05875e-08
1.84439e-08
7.17842e-10
-4.95282e-11
8.93817e-09
1.36749e-08
1.63638e-09
3.3916e-09
1.15438e-08
-1.70032e-10
2.43797e-09
1.1821e-08
-1.07144e-09
6.24309e-09
-4.0898e-10
-6.68539e-10
1.11248e-09
2.90883e-08
4.74399e-10
1.84438e-09
1.51528e-08
-1.84563e-09
-3.24967e-10
1.62563e-08
4.20554e-09
6.82271e-09
-5.20093e-10
-1.07853e-09
1.65509e-09
2.19087e-08
4.92604e-10
1.50518e-09
2.91279e-08
5.62142e-10
-6.47086e-10
2.33239e-08
-1.05153e-09
1.59244e-08
-9.41009e-10
-7.68598e-10
2.08132e-08
-5.75535e-10
1.93561e-08
-4.58366e-10
2.0258e-08
1.87249e-08
-1.53732e-09
1.84388e-09
-8.25261e-10
1.41208e-08
2.54051e-09
1.10133e-09
7.17542e-09
-2.96504e-09
5.79839e-10
1.58816e-08
-3.65788e-09
1.227e-08
-1.21881e-09
-1.0548e-09
1.83609e-09
2.78427e-08
-2.70496e-09
-4.82268e-09
2.27271e-08
-4.39667e-09
-2.03089e-09
2.05586e-08
-1.3906e-08
1.36193e-08
-9.45283e-10
-3.36123e-11
4.59532e-10
2.39109e-08
2.29973e-09
-4.91549e-09
2.68875e-08
1.84549e-09
2.68871e-10
2.14784e-08
-4.04974e-09
1.07725e-08
-2.85913e-09
-2.04682e-09
2.42099e-08
-2.25627e-09
1.9796e-08
-3.43289e-10
2.02378e-08
1.56944e-08
-1.65384e-10
-2.40362e-09
1.07366e-09
1.50458e-08
-8.56932e-09
5.32692e-09
1.64039e-08
-7.42231e-09
3.50714e-09
1.72764e-08
-1.00604e-08
1.57398e-08
-4.30398e-09
-1.73413e-09
1.98182e-09
2.60047e-08
-2.85468e-09
3.09426e-09
2.60805e-08
-1.90457e-09
2.04314e-09
2.10722e-08
-9.98267e-09
1.25703e-08
-9.33081e-10
1.17957e-09
8.76085e-10
2.42787e-08
2.59186e-09
2.36674e-09
2.6203e-08
3.98644e-09
1.7099e-09
2.0417e-08
-6.88244e-09
1.07602e-08
8.98222e-10
3.00421e-09
2.42441e-08
4e-09
2.11672e-08
6.4481e-09
1.94994e-08
1.29551e-08
2.30501e-09
-3.54975e-09
-2.37318e-09
1.85024e-08
-5.01111e-09
-9.34181e-11
1.82044e-08
-3.46478e-09
1.07854e-09
1.57848e-08
-8.44526e-10
1.15761e-08
8.16621e-10
-2.46078e-09
9.23153e-10
2.33106e-08
-1.80019e-09
2.15495e-09
2.31717e-08
2.44997e-10
1.95053e-09
1.81551e-08
-1.17983e-09
1.13801e-08
1.77057e-09
-7.02817e-10
1.06624e-09
2.45914e-08
3.50769e-10
2.75686e-09
2.45477e-08
2.08937e-09
1.61669e-09
1.90122e-08
-1.69778e-09
1.13253e-08
2.04234e-09
7.16877e-10
2.53806e-08
9.45087e-10
2.3696e-08
2.80202e-09
1.92592e-08
1.19599e-08
2.09937e-09
-2.01561e-10
-1.29081e-09
1.84431e-08
3.8801e-10
-6.79231e-10
1.75367e-08
1.02992e-09
5.58336e-10
1.47367e-08
1.49895e-09
1.07167e-08
1.26145e-09
2.1296e-10
-7.45332e-11
2.14909e-08
1.55258e-09
5.57461e-10
2.05953e-08
2.2344e-09
1.21646e-09
1.68152e-08
1.5242e-09
1.1968e-08
1.6215e-09
7.97768e-10
4.40339e-10
2.34704e-08
2.27778e-09
1.15238e-09
2.24728e-08
2.94389e-09
1.30473e-09
1.82579e-08
1.03083e-09
1.29817e-08
1.7809e-09
1.26296e-09
2.51646e-08
2.34659e-09
2.37648e-08
3.17987e-09
1.97308e-08
1.44353e-08
1.7352e-09
1.18496e-11
-5.6051e-10
1.83218e-08
3.53992e-10
-4.18353e-10
1.71347e-08
5.36404e-10
8.87759e-11
1.42831e-08
4.16669e-10
1.02603e-08
5.91348e-10
1.40401e-10
-2.02012e-10
2.09225e-08
6.76058e-10
-4.21653e-11
1.96835e-08
8.39106e-10
3.42676e-10
1.63983e-08
5.23892e-10
1.20283e-08
6.71858e-10
3.18713e-10
-6.29519e-11
2.31281e-08
8.73201e-10
8.61545e-11
2.17901e-08
1.01859e-09
2.28405e-10
1.82269e-08
1.98678e-10
1.36363e-08
6.89392e-10
4.40024e-10
2.48988e-08
8.78296e-10
2.34127e-08
1.09055e-09
1.97471e-08
1.50655e-08
6.59071e-10
1.81813e-10
-2.8599e-10
1.81973e-08
4.14523e-10
-2.25917e-10
1.68821e-08
4.6954e-10
1.2367e-11
1.41197e-08
2.06796e-10
1.02154e-08
3.44797e-10
2.43378e-10
-1.55762e-10
2.06389e-08
5.43997e-10
-8.40108e-11
1.92411e-08
5.85749e-10
1.39954e-10
1.6229e-08
2.94495e-10
1.21438e-08
3.82801e-10
2.98362e-10
-3.29286e-11
2.28513e-08
6.11553e-10
2.4658e-11
2.13684e-08
6.46082e-10
1.79968e-10
1.81525e-08
2.49745e-10
1.39336e-08
3.9359e-10
3.38527e-10
2.47084e-08
6.09792e-10
2.31662e-08
6.76346e-10
1.98607e-08
1.5613e-08
3.78638e-10
1.53858e-10
-1.48384e-10
1.81283e-08
2.54233e-10
-1.18993e-10
1.67725e-08
2.53495e-10
-1.53891e-11
1.40663e-08
5.20665e-11
1.02121e-08
1.77479e-10
1.7993e-10
-1.00444e-10
2.05097e-08
3.03437e-10
-7.00765e-11
1.90687e-08
2.92695e-10
3.51717e-11
1.61892e-08
9.23234e-11
1.2206e-08
1.90386e-10
1.95167e-10
-4.03602e-11
2.27114e-08
3.2539e-10
-2.3923e-11
2.11921e-08
3.08537e-10
4.35766e-11
1.8161e-08
5.97563e-11
1.40828e-08
1.92091e-10
2.02531e-10
2.45876e-08
3.20392e-10
2.30245e-08
3.15744e-10
1.9909e-08
1.58051e-08
1.83401e-10
1.1488e-10
-8.12817e-11
1.8089e-08
1.57546e-10
-6.54996e-11
1.67248e-08
1.47366e-10
-1.99662e-11
1.40501e-08
9.97108e-12
1.02244e-08
9.72176e-11
1.25637e-10
-6.18129e-11
2.04447e-08
1.77563e-10
-4.59919e-11
1.89973e-08
1.62986e-10
3.72673e-12
1.61801e-08
3.31221e-11
1.22443e-08
1.01721e-10
1.28623e-10
-3.07488e-11
2.26359e-08
1.84693e-10
-2.30191e-11
2.11132e-08
1.66605e-10
1.30125e-11
1.81699e-08
2.74986e-11
1.41534e-08
1.01676e-10
1.28245e-10
2.45119e-08
1.82108e-10
2.29477e-08
1.68821e-10
1.99353e-08
1.59042e-08
9.73538e-11
8.19624e-11
-4.71766e-11
1.80668e-08
9.9125e-11
-3.85955e-11
1.67041e-08
8.85738e-11
-1.82281e-11
1.40467e-08
-2.90669e-12
1.02355e-08
5.6617e-11
8.59917e-11
-3.79708e-11
2.041e-08
1.06847e-10
-2.89926e-11
1.8967e-08
9.40049e-11
-5.71659e-12
1.61805e-08
1.00905e-11
1.22676e-08
5.77975e-11
8.51616e-11
-2.05885e-11
2.25934e-08
1.08192e-10
-1.6008e-11
2.10773e-08
9.36029e-11
1.58476e-12
1.81773e-08
9.95722e-12
1.41905e-08
5.67727e-11
8.28662e-11
2.44659e-08
1.05794e-10
2.29088e-08
9.31376e-11
1.99496e-08
1.5953e-08
5.42988e-11
5.76031e-11
-2.84339e-11
1.80541e-08
6.39733e-11
-2.38358e-11
1.6695e-08
5.53555e-11
-1.4546e-11
1.40471e-08
-6.59197e-12
1.02434e-08
3.52357e-11
5.87372e-11
-2.3461e-11
2.03907e-08
6.66389e-11
-1.82021e-11
1.89535e-08
5.69852e-11
-7.04098e-12
1.61829e-08
1.80433e-12
1.22813e-08
3.50706e-11
5.69891e-11
-1.32702e-11
2.25691e-08
6.5886e-11
-1.02266e-11
2.10605e-08
5.54816e-11
-1.69355e-12
1.81825e-08
3.57936e-12
1.42106e-08
3.37492e-11
5.45651e-11
2.44385e-08
6.37611e-11
2.28894e-08
5.42223e-11
1.99575e-08
1.59788e-08
3.21356e-11
4.03243e-11
-1.76555e-11
1.80468e-08
4.22631e-11
-1.52547e-11
1.66908e-08
3.58001e-11
-1.09811e-11
1.40482e-08
-6.9055e-12
1.02484e-08
2.30443e-11
4.02538e-11
-1.4624e-11
2.03798e-08
4.28632e-11
-1.15597e-11
1.89474e-08
3.59756e-11
-6.09631e-12
1.6185e-08
-1.21486e-12
1.22892e-08
2.24272e-11
3.85042e-11
-8.44243e-12
2.2555e-08
4.15358e-11
-6.45069e-12
2.10525e-08
3.43693e-11
-2.22257e-12
1.81859e-08
1.00164e-12
1.42217e-08
2.11717e-11
3.64632e-11
2.44222e-08
3.97424e-11
2.28798e-08
3.30046e-11
1.99621e-08
1.59928e-08
2.00646e-11
2.82356e-11
-1.12113e-11
1.80425e-08
2.8456e-11
-1.00162e-11
1.66889e-08
2.37822e-11
-8.05062e-12
1.40494e-08
-6.00142e-12
1.02516e-08
1.55507e-11
2.7734e-11
-9.21522e-12
2.03735e-08
2.82701e-11
-7.46484e-12
1.89445e-08
2.34599e-11
-4.71641e-12
1.61867e-08
-2.03088e-12
1.2294e-08
1.48824e-11
2.62469e-11
-5.34265e-12
2.25468e-08
2.69541e-11
-4.08812e-12
2.10485e-08
2.20461e-11
-1.9172e-12
1.81882e-08
-3.72859e-14
1.42281e-08
1.38417e-11
2.46643e-11
2.44125e-08
2.5519e-11
2.28749e-08
2.0873e-11
1.99649e-08
1.60007e-08
1.30342e-11
1.97472e-11
-7.22642e-12
1.804e-08
1.93742e-11
-6.65962e-12
1.6688e-08
1.60576e-11
-5.77214e-12
1.40503e-08
-4.75804e-12
1.02536e-08
1.06576e-11
1.9161e-11
-5.86306e-12
2.03698e-08
1.8951e-11
-4.87092e-12
1.8943e-08
1.56227e-11
-3.45274e-12
1.6188e-08
-1.97596e-12
1.22969e-08
1.0087e-11
1.79845e-11
-3.3816e-12
2.25419e-08
1.78435e-11
-2.61032e-12
2.10465e-08
1.44878e-11
-1.45311e-12
1.81897e-08
-3.67946e-13
1.42319e-08
9.28016e-12
1.68063e-11
2.44068e-08
1.67441e-11
2.28724e-08
1.35611e-11
1.99667e-08
1.60054e-08
8.68197e-12
1.37062e-11
-4.68439e-12
1.80386e-08
1.32028e-11
-4.43195e-12
1.66876e-08
1.08893e-11
-4.0494e-12
1.4051e-08
-3.55452e-12
1.0255e-08
7.31041e-12
1.3181e-11
-3.74499e-12
2.03676e-08
1.27692e-11
-3.18281e-12
1.89424e-08
1.04896e-11
-2.43525e-12
1.61889e-08
-1.6169e-12
1.22987e-08
6.87305e-12
1.22948e-11
-2.13837e-12
2.25391e-08
1.19103e-11
-1.67101e-12
2.10455e-08
9.62857e-12
-1.03327e-12
1.81908e-08
-4.017e-13
1.42342e-08
6.27568e-12
1.1442e-11
2.44035e-08
1.10972e-11
2.28712e-08
8.92966e-12
1.99679e-08
1.60082e-08
5.83838e-12
9.30964e-12
-3.00796e-12
1.80377e-08
8.85827e-12
-2.90417e-12
1.66875e-08
7.28579e-12
-2.75439e-12
1.40516e-08
-2.51986e-12
1.02558e-08
4.92703e-12
8.89682e-12
-2.37048e-12
2.03664e-08
8.49783e-12
-2.05066e-12
1.8942e-08
6.96898e-12
-1.65268e-12
1.61895e-08
-1.20146e-12
1.22998e-08
4.6141e-12
8.26129e-12
-1.34007e-12
2.25374e-08
7.87238e-12
-1.05795e-12
2.1045e-08
6.34768e-12
-6.99171e-13
1.81915e-08
-3.34959e-13
1.42356e-08
4.19385e-12
7.6641e-12
2.44015e-08
7.29489e-12
2.28706e-08
5.84462e-12
1.99687e-08
1.60099e-08
3.88252e-12
6.00081e-12
-1.83928e-12
1.80372e-08
5.66171e-12
-1.80242e-12
1.66874e-08
4.64631e-12
-1.75604e-12
1.40519e-08
-1.65191e-12
1.02563e-08
3.15152e-12
5.71043e-12
-1.43073e-12
2.03656e-08
5.4002e-12
-1.25354e-12
1.89419e-08
4.42262e-12
-1.04524e-12
1.61899e-08
-8.05268e-13
1.23005e-08
2.94456e-12
5.28574e-12
-7.97529e-13
2.25364e-08
4.97862e-12
-6.36625e-13
2.10448e-08
4.00527e-12
-4.369e-13
1.81919e-08
-2.35643e-13
1.42365e-08
2.66878e-12
4.89279e-12
2.44004e-08
4.59478e-12
2.28703e-08
3.6678e-12
1.99692e-08
1.6011e-08
2.4616e-12
3.43789e-12
-9.04503e-13
1.8037e-08
3.20632e-12
-8.99281e-13
1.66875e-08
2.61047e-12
-8.97988e-13
1.40521e-08
-8.61859e-13
1.02567e-08
1.75088e-12
3.26096e-12
-6.98117e-13
2.03653e-08
3.04608e-12
-6.10676e-13
1.89419e-08
2.47715e-12
-5.14053e-13
1.61901e-08
-4.01853e-13
1.23009e-08
1.633e-12
3.01066e-12
-3.82495e-13
2.2536e-08
2.79819e-12
-2.99094e-13
2.10447e-08
2.23332e-12
-1.96995e-13
1.81922e-08
-9.78983e-14
1.4237e-08
1.47741e-12
2.77899e-12
2.43999e-08
2.57247e-12
2.28702e-08
2.03461e-12
1.99696e-08
1.60116e-08
1.35782e-12
1.67836e-12
-1.54521e-14
1.47178e-12
-3.8246e-14
1.12099e-12
-7.26241e-14
-9.87115e-14
6.9087e-13
1.58002e-12
-2.14471e-14
1.3864e-12
2.69291e-16
1.05472e-12
1.41451e-14
3.75014e-14
6.42627e-13
1.44995e-12
-2.46483e-14
1.26527e-12
7.32955e-15
9.41781e-13
3.78336e-14
6.11529e-14
5.76785e-13
1.31395e-12
1.13694e-12
8.35361e-13
5.14863e-13
4.30144e-09
-2.57976e-09
2.03804e-08
4.80307e-09
-1.54249e-09
2.06291e-08
4.16116e-09
-1.24286e-09
2.39555e-08
-3.35992e-09
3.34316e-08
3.80657e-09
-2.00234e-10
1.12441e-08
2.52842e-09
-1.27734e-09
1.95457e-08
4.8218e-10
-9.87183e-10
2.26165e-08
-1.51352e-10
2.04067e-08
1.8576e-09
3.285e-09
7.46902e-09
2.28088e-09
1.43798e-10
1.39219e-08
3.61854e-09
1.08213e-09
1.47386e-08
7.42378e-10
2.30774e-08
-1.68727e-09
1.63772e-08
4.78342e-09
5.05922e-09
3.48521e-09
1.53632e-08
1.96981e-08
-1.82599e-10
1.72507e-09
1.23161e-08
8.93965e-09
1.86878e-09
8.95861e-09
4.29526e-09
-1.55097e-09
3.21439e-08
-2.3945e-09
3.69429e-08
7.16352e-10
5.32693e-10
1.28884e-08
-9.32826e-11
-7.78045e-12
2.22319e-08
2.20231e-10
-1.67834e-09
2.24304e-08
-1.06537e-09
1.94167e-08
2.95217e-10
-6.07423e-11
1.05996e-08
-1.7178e-09
-1.71377e-10
1.60985e-08
9.61995e-10
-2.98945e-10
1.06794e-08
-9.31122e-10
2.39669e-08
-1.55824e-09
1.85909e-08
-5.00434e-10
3.42559e-09
1.94883e-09
1.1793e-08
1.98129e-08
1.63574e-09
-6.31361e-10
1.4812e-08
-1.33783e-09
-1.96781e-09
1.42767e-08
4.38441e-09
-1.48068e-09
2.50106e-08
-1.36836e-09
3.10585e-08
2.14086e-09
8.97158e-11
1.09606e-08
-2.65952e-09
9.30882e-10
2.41336e-08
3.17733e-09
8.95452e-10
1.42174e-08
-3.63901e-10
2.16488e-08
2.71942e-09
-2.23689e-09
9.92377e-09
-5.76652e-10
-1.93551e-09
2.2261e-08
1.21492e-09
-1.93223e-09
1.17156e-08
-3.67523e-09
2.84806e-08
9.67543e-10
1.69691e-08
-1.79955e-09
4.81899e-09
-1.72515e-09
1.01806e-08
1.46661e-08
-6.34352e-10
-1.74378e-09
2.13442e-08
-8.87416e-10
-1.98785e-09
1.63356e-08
-4.51355e-09
6.09612e-10
2.5727e-08
7.96005e-10
2.73136e-08
2.4978e-10
5.35026e-10
6.59887e-09
2.62376e-09
4.59458e-10
1.93123e-08
-2.49548e-09
-1.09132e-09
2.10376e-08
-8.49961e-10
2.08414e-08
4.06736e-10
-1.17221e-09
7.6203e-09
-1.11514e-09
5.32392e-10
2.371e-08
5.3072e-10
4.13093e-11
8.93707e-09
-1.17837e-09
2.94313e-08
2.80274e-09
1.12713e-08
-1.11735e-09
1.12397e-08
-1.76801e-09
1.1729e-08
1.26237e-08
-1.37815e-09
7.3776e-10
2.30453e-08
-2.97133e-10
2.1591e-10
1.61893e-08
-7.53316e-09
8.63003e-10
3.60631e-08
2.19482e-09
2.40587e-08
-1.73063e-09
-8.71979e-10
1.06586e-08
9.34053e-10
-1.29016e-09
1.81537e-08
-8.98339e-10
-1.15127e-09
2.48842e-08
-2.08949e-09
2.41267e-08
9.69744e-10
-2.87537e-10
5.02551e-09
1.27479e-10
-1.3377e-09
2.45998e-08
-3.48634e-09
-2.50427e-10
1.165e-08
1.17278e-09
2.26352e-08
5.33151e-10
1.01895e-08
6.15075e-10
1.05957e-08
9.84002e-10
1.1328e-08
1.54904e-08
1.38518e-09
2.04221e-09
1.70262e-08
-3.27835e-09
-6.55425e-10
2.05082e-08
-3.02565e-09