/*--------------------------------*- C++ -*----------------------------------*\
| =========                 |                                                 |
| \\      /  F ield         | OpenFOAM: The Open Source CFD Toolbox           |
|  \\    /   O peration     | Version:  2506                                  |
|   \\  /    A nd           | Website:  www.openfoam.com                      |
|    \\/     M anipulation  |                                                 |
\*---------------------------------------------------------------------------*/
FoamFile
{
    version     2.0;
    format      ascii;
    arch        "LSB;label=32;scalar=64";
    class       volVectorField;
    location    "0.02";
    object      stored_U;
}
// * * * * * * * * * * * * * * * * * * * * * * * * * * * * * * * * * * * * * //

dimensions      [0 1 -1 0 0 0 0];

internalField   nonuniform List<vector> 
1152
(
(0.00100467 0.00190372 0.0164516)
(-0.000200521 0.000245552 0.00525397)
(0.000114633 -0.00104316 0.00837761)
(2.0431e-05 -0.000344196 0.00351054)
(0.00124071 -0.00335796 0.0156649)
(-0.000527754 0.000409522 0.0070207)
(-0.000172734 -0.000382379 0.00732286)
(0.000583637 0.000220319 0.00719189)
(-1.839e-05 -0.000110483 0.00314713)
(0.000429303 0.000169657 0.0076888)
(-8.08699e-05 0.00130175 0.00852695)
(9.61297e-05 0.00121019 0.00920313)
(-6.41527e-05 0.000955226 0.00559507)
(0.000646653 -0.000182591 0.00805804)
(0.000399255 0.000747791 0.00460773)
(0.0004911 0.00148685 0.0118875)
(-0.00366096 -0.00487403 0.0241274)
(0.00034291 9.22744e-05 0.0065295)
(0.00211664 0.000806831 0.0183871)
(-0.000191223 0.00102366 0.0118232)
(-0.000460049 0.000594887 0.00790776)
(0.00164562 0.0002729 0.0103138)
(0.000221455 8.70242e-05 0.00665388)
(0.000629379 -0.00076489 0.0102019)
(1.64438e-05 3.07214e-05 0.000742299)
(-0.000590873 0.000306853 0.020505)
(6.96766e-05 0.000173103 0.00661761)
(0.00106182 0.000551408 0.00965492)
(0.00108616 -0.000744791 0.0166238)
(1.55665e-05 0.000183087 0.00578513)
(0.00174726 -0.00045597 0.0230623)
(2.45368e-06 8.62401e-05 0.00047346)
(-0.000409775 -0.000119131 0.0127098)
(0.00116293 -0.000675056 0.0126584)
(0.000132837 3.92952e-05 0.003591)
(0.00172107 0.00126093 0.0281487)
(-5.00148e-06 0.000285202 0.00225017)
(0.000153949 -0.000204794 0.0143481)
(0.000779923 0.000304465 0.0147465)
(0.000284047 0.000454506 0.00635406)
(-0.000202622 3.83927e-05 0.0146507)
(4.53473e-06 0.000443043 0.0100841)
(0.00110753 -0.000287379 0.0105381)
(0.000373222 0.000415853 0.00981418)
(0.000279787 -0.000529647 0.0126175)
(-0.000209582 0.000752417 0.00973339)
(0.000323638 -0.000352518 0.00754999)
(0.001204 -0.00236198 0.0239359)
(0.000695795 -0.000194306 0.00497381)
(0.00052806 -4.17229e-05 0.00555111)
(-0.0042395 0.000187188 0.0203921)
(-8.41929e-05 -0.000648446 0.00903262)
(0.000742554 0.000684412 0.0151705)
(0.000440687 -0.000934309 0.00751706)
(0.000285228 -9.05046e-05 0.00762475)
(-0.00112302 0.00129612 0.0108882)
(9.02477e-05 2.89796e-05 0.0103136)
(0.000502121 5.27925e-05 0.0160591)
(0.000670581 -0.000818243 0.0103603)
(-0.000621282 -0.000759367 0.0155071)
(0.000666787 0.000997485 0.0189706)
(3.2934e-05 0.000357255 0.00911612)
(7.34024e-05 -0.000462449 0.0196796)
(-0.000872467 -0.00186349 0.0153913)
(-1.28198e-05 9.11265e-05 0.000725635)
(-0.00575752 0.000759241 0.0262509)
(0.00015534 -4.93338e-05 0.00266226)
(0.000197581 -0.000303716 0.0101659)
(0.00087265 -0.00276098 0.0108881)
(4.95155e-07 -0.00067039 0.00743761)
(-0.000563314 -0.00103702 0.0226852)
(0.000397881 -0.0009043 0.012297)
(-0.000229227 -0.000116432 0.010772)
(0.000264543 -0.0011254 0.0142074)
(0.000353933 -0.00022862 0.00863608)
(-0.000571954 -0.00178425 0.0251451)
(-0.000162839 0.00138403 0.0114104)
(-5.24081e-06 0.000288046 0.00757956)
(0.000148546 6.66305e-05 0.00622453)
(-0.00132071 -0.00105968 0.0232617)
(-0.000664103 0.00122491 0.009438)
(0.00176638 0.000669922 0.00943867)
(0.00174855 -0.000425279 0.00945543)
(0.000511763 0.000416725 0.00868809)
(0.00149619 0.00286071 0.0154138)
(0.00153815 0.0014237 0.00816751)
(0.000511618 0.000210493 0.00526126)
(3.22504e-05 -0.000171601 0.00641621)
(0.000273612 0.000152617 0.00279547)
(0.000408862 0.000309024 0.0038608)
(0.00032712 -0.00050494 0.00492268)
(0.000430833 -0.0014 0.00712595)
(0.000502685 -0.000532314 0.0165133)
(0.000225729 -6.46164e-05 0.00222701)
(-0.00149649 -0.000182754 0.0154717)
(-0.000463691 0.000574736 0.0086463)
(0.000739919 0.000214399 0.00528175)
(-0.000326621 -0.000577205 0.00765786)
(-0.0020525 0.00167182 0.00265198)
(-0.000405857 0.000158737 0.00658927)
(0.000162663 0.000333492 0.00672464)
(-0.000696654 2.54425e-05 0.0103424)
(-0.00180792 0.000441298 0.0123433)
(0.00039233 -0.000309801 0.0105017)
(0.000514697 0.000512403 0.00695438)
(-0.0022384 -0.00308326 0.00662551)
(-0.00040248 -0.000179088 0.00566827)
(0.000955903 -0.000539323 0.0139582)
(-0.000313315 -6.4297e-05 0.00136129)
(0.000934217 -0.0016923 0.00830404)
(0.0014894 -0.00148314 0.00465995)
(0.000422064 7.4416e-05 0.0103455)
(0.00021639 -4.32226e-05 0.0148365)
(-0.00030441 -0.000212784 0.0166813)
(-0.00102195 0.00050931 0.0108539)
(-0.000695327 8.2887e-05 0.0104199)
(-0.000315586 -0.000475246 0.0152886)
(-0.00090627 -0.000295379 0.0193366)
(-0.0010705 -0.000437441 0.0141929)
(-6.40671e-06 -0.000997797 0.0106632)
(-2.63138e-05 -0.000597694 0.0116064)
(-0.000994858 -0.000252059 0.0103311)
(-0.00222261 0.000136392 0.00932863)
(-0.00193182 -0.00136502 0.0163882)
(-0.000487561 -0.000194632 0.00329597)
(-0.0014056 0.000845661 0.00563541)
(-0.00355081 0.00088816 0.0127757)
(-0.00385669 -0.00119723 0.0244539)
(-0.000431142 -0.000559241 0.00317116)
(6.51798e-05 -0.000776236 0.00336901)
(0.000410749 -0.000191661 0.00250653)
(9.60317e-05 -0.000428119 0.00287149)
(-0.000882211 0.000264811 0.00320477)
(-0.000201602 0.000331803 0.00388591)
(0.000308543 -2.94552e-05 0.00340963)
(0.000312243 -0.000921248 0.00352585)
(-0.000295381 0.00102833 0.00264096)
(-0.00045741 0.00122221 0.00265695)
(-0.00111086 0.000244288 0.00286057)
(-0.000904042 -0.00118482 0.00464018)
(-0.000195716 0.000197078 0.00190524)
(-0.00150558 0.000412737 0.00218776)
(-0.00253994 8.44225e-05 0.00334559)
(-0.00113425 -0.000608488 0.00533837)
(-0.000111423 -0.000129657 0.00694116)
(7.15974e-05 -0.000187654 0.00710815)
(0.00015551 -7.66597e-05 0.00672513)
(2.1051e-05 -0.000157007 0.00668287)
(-0.000259064 5.36001e-05 0.0069293)
(-1.97791e-05 6.31421e-05 0.00728608)
(0.000141508 -2.61657e-05 0.0069754)
(0.000193608 -0.0002188 0.00695395)
(-8.62711e-05 0.000216675 0.00659938)
(-5.40805e-05 0.000292089 0.00676641)
(-0.000172614 0.000151251 0.00679442)
(2.39788e-05 -3.0563e-05 0.00743292)
(-2.2957e-05 -0.000121854 0.00605183)
(-0.000194667 -5.39331e-05 0.00635184)
(-0.000230375 4.82067e-05 0.00690398)
(0.000566901 0.000204348 0.00767276)
(-2.976e-05 -5.63996e-05 0.00557136)
(4.59996e-05 -8.53055e-05 0.00562049)
(8.78299e-05 -7.71676e-05 0.00551162)
(4.40567e-05 -0.000103133 0.00552013)
(-8.0483e-05 -1.88764e-06 0.00556428)
(1.19169e-05 -1.53768e-05 0.00566765)
(7.94976e-05 -4.64115e-05 0.00558004)
(9.53822e-05 -0.000104148 0.0055819)
(-3.99851e-05 4.77917e-05 0.00550343)
(-4.08686e-06 6.03196e-05 0.00555716)
(-2.54603e-06 2.94199e-05 0.00553234)
(6.10242e-05 -6.63856e-06 0.00566999)
(-5.58333e-06 -7.46489e-05 0.00539596)
(-1.86464e-05 -6.49402e-05 0.00547149)
(2.4096e-05 -3.35845e-05 0.00549689)
(0.000252832 1.31873e-05 0.00553949)
(8.67219e-06 -2.86267e-05 0.00572206)
(3.67562e-05 -3.87667e-05 0.00574254)
(5.53831e-05 -3.74773e-05 0.00570624)
(4.27687e-05 -3.52849e-05 0.00570114)
(-5.02132e-06 -1.55849e-05 0.00572317)
(3.00235e-05 -1.86274e-05 0.00576268)
(6.20747e-05 -2.12298e-05 0.00573371)
(7.19821e-05 -2.12498e-05 0.00573054)
(7.30388e-06 -5.02462e-06 0.00571065)
(3.12585e-05 5.68878e-06 0.00574306)
(5.56102e-05 1.5962e-05 0.00573196)
(8.82849e-05 3.63926e-05 0.00576632)
(2.71627e-05 -4.72474e-05 0.00567684)
(5.14824e-05 -3.69394e-05 0.00571371)
(0.00010332 -7.34668e-06 0.00570852)
(0.000200555 3.5318e-05 0.00570932)
(1.97365e-05 -1.73341e-05 0.00569145)
(3.10526e-05 -2.06855e-05 0.00569657)
(3.85051e-05 -1.93888e-05 0.00568223)
(3.44738e-05 -1.44357e-05 0.00567426)
(1.63497e-05 -1.4888e-05 0.00569436)
(3.08166e-05 -1.47566e-05 0.00570456)
(4.44525e-05 -1.25588e-05 0.00569085)
(4.84008e-05 -6.95243e-06 0.00567926)
(2.06195e-05 -1.37378e-05 0.00569424)
(3.37379e-05 -7.58962e-06 0.00570221)
(4.78998e-05 1.97981e-06 0.00569053)
(5.94462e-05 1.60156e-05 0.00568145)
(2.98446e-05 -2.81266e-05 0.00568759)
(4.7244e-05 -2.24249e-05 0.00569161)
(7.28286e-05 -8.22207e-06 0.00567012)
(0.000104525 8.49324e-06 0.0056338)
(2.07354e-05 -1.12048e-05 0.00568265)
(2.54864e-05 -1.20773e-05 0.00568162)
(2.82188e-05 -1.07194e-05 0.00567409)
(2.61601e-05 -7.09606e-06 0.00566666)
(1.99729e-05 -1.12479e-05 0.00568541)
(2.65028e-05 -1.03776e-05 0.00568558)
(3.20102e-05 -7.86158e-06 0.00567748)
(3.28179e-05 -3.42651e-06 0.00566706)
(2.18028e-05 -1.1884e-05 0.00568743)
(2.90141e-05 -8.5471e-06 0.00568658)
(3.58217e-05 -2.71237e-06 0.00567763)
(3.92648e-05 5.38352e-06 0.00566473)
(2.58266e-05 -1.70057e-05 0.00568733)
(3.5866e-05 -1.39516e-05 0.00568328)
(4.77919e-05 -7.28344e-06 0.00566689)
(5.83922e-05 4.65655e-07 0.00563857)
(1.81153e-05 -7.48556e-06 0.00567971)
(2.01096e-05 -7.58993e-06 0.00567696)
(2.08991e-05 -6.5515e-06 0.0056718)
(1.92972e-05 -4.35136e-06 0.00566551)
(1.7984e-05 -7.9955e-06 0.00568176)
(2.1022e-05 -7.26491e-06 0.00567916)
(2.30872e-05 -5.52396e-06 0.00567329)
(2.25153e-05 -2.82972e-06 0.00566495)
(1.88041e-05 -8.71948e-06 0.00568358)
(2.26226e-05 -7.05422e-06 0.00568024)
(2.55867e-05 -4.04895e-06 0.00567298)
(2.58738e-05 -3.00769e-08 0.00566154)
(2.04098e-05 -1.06437e-05 0.00568423)
(2.56844e-05 -9.18946e-06 0.00567883)
(3.08087e-05 -6.24907e-06 0.00566668)
(3.3838e-05 -2.81415e-06 0.00564483)
(1.46004e-05 -5.11244e-06 0.00567864)
(1.54185e-05 -5.04802e-06 0.00567578)
(1.54236e-05 -4.38494e-06 0.00567187)
(1.4075e-05 -3.14322e-06 0.00566671)
(1.45804e-05 -5.57487e-06 0.00568007)
(1.59885e-05 -5.15447e-06 0.00567711)
(1.66046e-05 -4.15946e-06 0.00567261)
(1.56155e-05 -2.69252e-06 0.00566602)
(1.48994e-05 -6.08583e-06 0.00568135)
(1.68413e-05 -5.34254e-06 0.00567784)
(1.79794e-05 -3.92441e-06 0.00567209)
(1.73051e-05 -2.045e-06 0.00566267)
(1.54396e-05 -6.83416e-06 0.00568158)
(1.80971e-05 -6.2343e-06 0.00567673)
(2.01695e-05 -5.01478e-06 0.00566762)
(2.06118e-05 -3.56744e-06 0.00565036)
(1.12671e-05 -3.55485e-06 0.00567821)
(1.15872e-05 -3.48791e-06 0.00567574)
(1.13134e-05 -3.10063e-06 0.0056727)
(1.02059e-05 -2.41352e-06 0.00566845)
(1.12442e-05 -3.86721e-06 0.00567918)
(1.18868e-05 -3.68356e-06 0.00567658)
(1.19272e-05 -3.17873e-06 0.00567311)
(1.09406e-05 -2.42654e-06 0.00566779)
(1.13181e-05 -4.18169e-06 0.00567999)
(1.2273e-05 -3.90912e-06 0.005677)
(1.26014e-05 -3.29568e-06 0.0056725)
(1.17507e-05 -2.47275e-06 0.00566467)
(1.14122e-05 -4.46741e-06 0.00567969)
(1.27221e-05 -4.28531e-06 0.00567574)
(1.3472e-05 -3.83473e-06 0.00566862)
(1.31148e-05 -3.2907e-06 0.00565408)
(8.45875e-06 -2.51125e-06 0.00567811)
(8.5671e-06 -2.463e-06 0.0056761)
(8.23475e-06 -2.2419e-06 0.00567372)
(7.36411e-06 -1.861e-06 0.00567016)
(8.43148e-06 -2.69694e-06 0.00567875)
(8.71456e-06 -2.63564e-06 0.00567665)
(8.54758e-06 -2.39634e-06 0.00567395)
(7.70998e-06 -2.02321e-06 0.00566952)
(8.40553e-06 -2.87334e-06 0.0056792)
(8.86312e-06 -2.81202e-06 0.00567682)
(8.85382e-06 -2.57652e-06 0.00567325)
(8.08e-06 -2.24287e-06 0.00566653)
(8.33467e-06 -2.96123e-06 0.0056785)
(8.97252e-06 -2.96259e-06 0.00567534)
(9.16524e-06 -2.84227e-06 0.00566947)
(8.62701e-06 -2.69025e-06 0.00565653)
(6.21586e-06 -1.79272e-06 0.00567815)
(6.23333e-06 -1.75822e-06 0.00567656)
(5.93179e-06 -1.63012e-06 0.00567467)
(5.27219e-06 -1.41545e-06 0.00567162)
(6.19344e-06 -1.89816e-06 0.00567857)
(6.30697e-06 -1.88609e-06 0.00567691)
(6.09108e-06 -1.77889e-06 0.00567477)
(5.43102e-06 -1.59895e-06 0.00567095)
(6.13829e-06 -1.98543e-06 0.00567878)
(6.34842e-06 -2.00579e-06 0.00567689)
(6.21669e-06 -1.93776e-06 0.00567398)
(5.58827e-06 -1.82352e-06 0.00566799)
(6.02267e-06 -1.98437e-06 0.00567779)
(6.32678e-06 -2.0536e-06 0.00567521)
(6.29742e-06 -2.06426e-06 0.00567014)
(5.79261e-06 -2.06813e-06 0.00565815)
(4.46667e-06 -1.27507e-06 0.00567822)
(4.44397e-06 -1.25326e-06 0.00567697)
(4.20166e-06 -1.17992e-06 0.00567546)
(3.71857e-06 -1.05771e-06 0.00567277)
(4.44804e-06 -1.33576e-06 0.00567851)
(4.47945e-06 -1.34353e-06 0.0056772)
(4.28109e-06 -1.30102e-06 0.00567546)
(3.7883e-06 -1.21745e-06 0.00567206)
(4.3894e-06 -1.37211e-06 0.00567856)
(4.47545e-06 -1.41874e-06 0.00567704)
(4.32304e-06 -1.41897e-06 0.00567458)
(3.84745e-06 -1.39632e-06 0.00566907)
(4.27571e-06 -1.33908e-06 0.00567739)
(4.41325e-06 -1.42132e-06 0.00567521)
(4.31679e-06 -1.47302e-06 0.00567066)
(3.91312e-06 -1.52622e-06 0.00565923)
(3.10564e-06 -8.84084e-07 0.00567826)
(3.06627e-06 -8.73819e-07 0.00567727)
(2.88678e-06 -8.34406e-07 0.00567604)
(2.54729e-06 -7.65118e-07 0.00567361)
(3.08852e-06 -9.21939e-07 0.00567847)
(3.08083e-06 -9.3768e-07 0.00567743)
(2.92464e-06 -9.2584e-07 0.00567597)
(2.57574e-06 -8.8909e-07 0.00567286)
(3.03529e-06 -9.33728e-07 0.00567842)
(3.06005e-06 -9.82852e-07 0.00567718)
(2.93078e-06 -1.00562e-06 0.00567503)
(2.5932e-06 -1.01556e-06 0.00566984)
(2.94099e-06 -8.98272e-07 0.00567713)
(2.99593e-06 -9.69248e-07 0.00567525)
(2.89983e-06 -1.02316e-06 0.00567103)
(2.60757e-06 -1.08001e-06 0.00565997)
(2.03488e-06 -5.70042e-07 0.00567827)
(1.99449e-06 -5.68437e-07 0.00567747)
(1.87185e-06 -5.50543e-07 0.00567643)
(1.64818e-06 -5.13217e-07 0.00567418)
(2.01828e-06 -5.95479e-07 0.00567843)
(1.99773e-06 -6.12435e-07 0.00567758)
(1.88795e-06 -6.13684e-07 0.00567632)
(1.65764e-06 -5.99392e-07 0.00567341)
(1.97498e-06 -5.98177e-07 0.00567832)
(1.97477e-06 -6.38965e-07 0.00567728)
(1.88138e-06 -6.64055e-07 0.00567534)
(1.65953e-06 -6.80893e-07 0.00567035)
(1.90557e-06 -5.71271e-07 0.00567696)
(1.92357e-06 -6.23953e-07 0.00567528)
(1.85077e-06 -6.66018e-07 0.00567129)
(1.6577e-06 -7.1038e-07 0.00566044)
(1.18287e-06 -2.76495e-07 0.00567827)
(1.15383e-06 -2.80182e-07 0.00567759)
(1.0796e-06 -2.76224e-07 0.00567667)
(9.4886e-07 -2.6081e-07 0.00567453)
(1.16817e-06 -2.94074e-07 0.0056784)
(1.1499e-06 -3.09427e-07 0.00567767)
(1.0828e-06 -3.15939e-07 0.00567654)
(9.48251e-07 -3.13775e-07 0.00567374)
(1.13745e-06 -2.98652e-07 0.00567825)
(1.13114e-06 -3.27544e-07 0.00567734)
(1.07322e-06 -3.47546e-07 0.00567552)
(9.442e-07 -3.62604e-07 0.00567066)
(1.09281e-06 -2.8724e-07 0.00567685)
(1.09631e-06 -3.22188e-07 0.0056753)
(1.05039e-06 -3.50249e-07 0.00567144)
(9.37684e-07 -3.79659e-07 0.00566073)
(5.77934e-07 5.79046e-08 0.00567829)
(5.66363e-07 5.01749e-08 0.00567767)
(5.29628e-07 4.35628e-08 0.00567681)
(4.65443e-07 3.96367e-08 0.00567474)
(5.66523e-07 4.00697e-08 0.0056784)
(5.56089e-07 2.53293e-08 0.00567774)
(5.20981e-07 1.29531e-08 0.00567668)
(4.54094e-07 2.47138e-09 0.00567395)
(5.47277e-07 1.97307e-08 0.00567825)
(5.38969e-07 -7.41659e-10 0.0056774)
(5.06398e-07 -1.91875e-08 0.00567566)
(4.4022e-07 -3.78728e-08 0.00567087)
(5.21237e-07 1.33908e-09 0.00567684)
(5.14952e-07 -2.16623e-08 0.00567535)
(4.85068e-07 -4.38882e-08 0.00567157)
(4.24307e-07 -6.88344e-08 0.00566092)
(-2.84517e-05 0.000333449 0.0119498)
(0.000630336 -0.000192237 0.00645965)
(0.0021035 8.9847e-06 0.0143327)
(5.4524e-05 0.000924664 0.00576031)
(-9.59792e-05 0.000269452 0.00460152)
(0.000414645 0.000331037 0.00400012)
(0.00207063 0.000365362 0.00920323)
(0.000766598 0.00195845 0.00805844)
(0.000489906 0.000314333 0.0115167)
(0.000647136 0.000807057 0.00739298)
(0.00131577 0.000448791 0.00894716)
(0.00135291 0.00239182 0.0106303)
(6.94324e-06 -3.45682e-05 0.00119594)
(0.000417502 -0.000158078 0.00480091)
(0.00133885 -0.000602771 0.00875335)
(0.000763856 0.000482445 0.00914977)
(-0.00115766 5.88742e-05 0.012823)
(9.92953e-05 0.000744064 0.00688241)
(-4.14484e-05 -0.000240084 0.0126872)
(0.00179195 -0.000256811 0.0149054)
(-0.00020243 0.000102653 0.0144872)
(-8.03604e-05 0.000270103 0.0108107)
(9.37501e-06 0.000352139 0.00205191)
(0.000269538 0.000127685 0.00638601)
(0.000301654 0.000221065 0.0107648)
(0.000764373 -0.000168008 0.0155997)
(0.000180797 0.000435895 0.0158472)
(-0.00028202 0.000448532 0.0155913)
(0.00109712 0.00127372 0.0201539)
(-0.000315094 0.000690549 0.0151857)
(-0.000269094 -0.000348139 0.00763806)
(0.000801054 0.000463337 0.0180475)
(2.39967e-05 -8.23507e-05 0.00611317)
(-2.3469e-05 2.1613e-06 0.0141545)
(-0.000373825 0.000517167 0.0103435)
(5.23627e-05 -0.000102936 0.00062339)
(-0.000141024 0.000154456 0.00311709)
(0.000186868 -0.00129492 0.0164998)
(-4.58467e-05 6.35042e-07 0.0108655)
(-0.000423673 -0.00135501 0.021276)
(-0.000624919 -0.00078624 0.0110624)
(-0.000342747 -0.000415778 0.00560579)
(-0.00063852 -0.00110462 0.0225933)
(-0.000610228 -0.000992236 0.0102262)
(-0.000850436 -0.000971291 0.00715935)
(0.000394905 -0.000905052 0.015398)
(-4.55352e-05 -5.17036e-05 0.00882707)
(-0.000406026 -0.000135098 0.0219358)
(0.000629535 0.000633421 0.00702454)
(-0.000768884 7.59912e-05 0.0173694)
(-0.000444039 7.1905e-05 0.00670866)
(-0.000563796 -0.00064041 0.0106217)
(0.00054439 8.89438e-05 0.011683)
(-0.000890591 0.000517498 0.0100792)
(-0.000662879 -0.000151244 0.0123184)
(1.40399e-05 -0.00156535 0.0163622)
(-0.000133297 -0.0014166 0.020491)
(-0.000879329 -0.000251225 0.0156333)
(-0.00134895 0.000306034 0.0131995)
(-0.000440105 -0.000656503 0.0091428)
(-0.000902102 -0.000157908 0.013945)
(-0.000585298 -0.000857128 0.0102064)
(-0.000477236 0.000211745 0.0107652)
(-0.000710518 -0.000364154 0.0172885)
(0.000409068 0.000324189 0.0115185)
(-0.00149522 0.00162905 0.0205606)
(-0.000392842 -0.000274765 0.010588)
(-0.000178701 -0.000196798 0.00411912)
(-0.00104255 -0.000602014 0.0204913)
(-0.0002786 0.000335093 0.00672895)
(-0.000772676 -2.42132e-05 0.0118951)
(-0.000349372 -4.34226e-05 0.0158579)
(-6.06744e-05 6.37441e-05 0.000899327)
(-0.00106635 0.000443472 0.0234887)
(-0.000593023 0.00134572 0.0216722)
(-0.00032903 -0.000245171 0.00868514)
(-0.000540539 0.000194798 0.00800642)
(-0.000433489 0.00025253 0.0109734)
(-0.000546091 0.000650127 0.0106592)
(-0.000829724 -0.000231385 0.0179485)
(-0.0027399 0.00407058 0.01857)
(0.000640677 -9.56859e-07 0.00513068)
(0.0011793 0.000198006 0.00712751)
(-0.000366036 0.000332542 0.00343928)
(1.55453e-05 0.000141778 0.00125064)
(0.000164875 0.00148457 0.00948041)
(-0.000118934 0.000394577 0.00495453)
(-0.000851967 0.000459753 0.00960455)
(-0.000598753 0.000936137 0.0120838)
(-0.000184792 0.00064337 0.00718215)
(0.000639737 -6.01179e-05 0.00610831)
(-0.000131917 0.000537028 0.00596455)
(-0.000213235 0.00034874 0.00760411)
(-0.000442774 0.000464323 0.00688355)
(-0.000306028 0.000376742 0.00977498)
(-0.000646873 9.31817e-05 0.00676272)
(0.000330996 -0.000144788 0.00273522)
(0.00166885 0.000633611 0.00639835)
(0.00044828 0.000250899 0.00812007)
(0.00018252 0.00100843 0.00919186)
(-1.52983e-05 -0.000104327 0.0105347)
(-0.000782674 -0.00129634 0.00636115)
(-0.000995558 -0.000386226 0.00736237)
(-0.00505484 -0.00375971 0.00405374)
(-0.000110077 0.00027008 0.00854981)
(6.89097e-05 -0.0014727 0.0116111)
(0.00158421 6.59814e-06 0.0106594)
(-0.000431394 0.000363382 0.00950131)
(5.10986e-05 8.82102e-05 0.00690638)
(-0.0017437 -0.0011332 0.00681478)
(-0.000341419 0.000500398 0.00818955)
(-0.000470167 -0.000284664 0.00964312)
(-0.000485933 0.000581016 0.00931964)
(-0.000875092 0.00279481 0.0120997)
(-0.00252616 0.00219051 0.014297)
(-0.00235129 -0.000451292 0.0188285)
(-0.000679784 0.000388581 0.0148687)
(-0.000395806 0.000994422 0.0159445)
(-0.000463106 0.000829369 0.0150306)
(-0.00105165 -0.00201333 0.0121164)
(0.000243622 0.000310477 0.0119308)
(0.000655032 0.00051851 0.0138958)
(0.00106157 6.27171e-05 0.0130265)
(0.0009419 -0.00283224 0.00978304)
(0.000903816 -1.33452e-05 0.0106566)
(0.000875681 -6.38342e-05 0.00979247)
(0.00132732 -0.000441757 0.0111107)
(0.00235156 -0.00255145 0.0107168)
(-0.00039574 -0.00067854 0.0032022)
(-0.00127237 -4.69246e-05 0.00337423)
(-0.0016707 0.000547793 0.00357891)
(-0.00042151 5.987e-05 0.0036944)
(-0.000550147 -4.72535e-05 0.00389665)
(-0.000619087 0.000213423 0.0043212)
(-0.000329243 0.000440905 0.00342154)
(0.000533161 -0.000421804 0.00185233)
(-9.45615e-05 0.000306173 0.00347972)
(-2.5517e-05 0.000603263 0.00387208)
(0.000469139 0.00028821 0.00278773)
(0.00095964 -0.000900402 0.000826702)
(0.000356127 7.91998e-05 0.00316212)
(0.000134065 0.000257989 0.00295349)
(0.000491735 -6.75941e-05 0.00226351)
(0.00117663 -0.0010902 0.000562582)
(-6.93328e-05 -0.000381371 0.00666664)
(-3.99464e-05 -0.000246415 0.00694392)
(0.000195928 6.41316e-05 0.00710527)
(0.00088256 0.000204807 0.00724026)
(-4.83631e-05 -0.000100103 0.00697466)
(0.000204946 -3.50973e-05 0.0073316)
(0.000671755 6.88466e-05 0.00708589)
(0.00122002 -3.03718e-05 0.00667334)
(0.000127236 7.39231e-05 0.00677211)
(0.000409667 0.000142342 0.00710506)
(0.000904639 -2.04289e-05 0.00676592)
(0.00128121 -0.000406742 0.00616412)
(0.000296977 2.74815e-05 0.00651554)
(0.000436389 9.55243e-06 0.006658)
(0.000821346 -0.000256821 0.00645333)
(0.00117621 -0.000763557 0.00592398)
(-1.36147e-05 -0.000161902 0.00561331)
(2.62947e-05 -0.000135732 0.00566962)
(0.00013606 -2.48628e-05 0.00554176)
(0.000370231 9.34531e-06 0.0053491)
(6.36387e-06 -6.38128e-05 0.0056915)
(9.83649e-05 -5.19678e-05 0.00574511)
(0.000271081 3.15938e-06 0.00545287)
(0.000460484 -3.08748e-05 0.00505756)
(6.05677e-05 -1.57798e-05 0.00560743)
(0.000151952 -8.27804e-06 0.00562695)
(0.000323185 -4.19438e-05 0.00526257)
(0.000447424 -0.000161754 0.00477399)
(0.000109895 -1.05268e-05 0.00542918)
(0.000156408 -3.20205e-05 0.005392)
(0.000294743 -0.000119389 0.00505025)
(0.000401976 -0.00028335 0.00456805)
(3.17579e-05 -7.71416e-05 0.00574647)
(7.48913e-05 -7.01377e-05 0.00577865)
(0.00014952 -2.70981e-05 0.00573179)
(0.000239578 -3.38461e-06 0.0056729)
(4.44286e-05 -4.33572e-05 0.00575654)
(0.000102992 -4.50341e-05 0.00578745)
(0.000196995 -2.32578e-05 0.00568566)
(0.000270148 -2.77903e-05 0.00557113)
(6.24606e-05 -1.64213e-05 0.00569917)
(0.000120856 -2.45183e-05 0.00571872)
(0.000214213 -3.86316e-05 0.00558523)
(0.000264513 -8.0431e-05 0.00544357)
(7.76759e-05 -7.30168e-06 0.00557627)
(0.000121476 -2.92843e-05 0.00558554)
(0.000198805 -7.70191e-05 0.0054525)
(0.000234319 -0.000146599 0.00531353)
(3.37176e-05 -3.80252e-05 0.00570942)
(5.65785e-05 -3.55311e-05 0.00570864)
(8.81623e-05 -1.92011e-05 0.00566587)
(0.000118623 -1.25295e-05 0.00560079)
(3.97949e-05 -2.65521e-05 0.00570262)
(6.7196e-05 -2.88834e-05 0.00569605)
(0.000103844 -2.0134e-05 0.00562384)
(0.000126117 -2.36814e-05 0.00553082)
(4.5478e-05 -1.47151e-05 0.00564934)
(7.20985e-05 -2.31182e-05 0.00563587)
(0.000106995 -2.86715e-05 0.00554235)
(0.00011874 -4.70608e-05 0.00543285)
(4.86817e-05 -7.00342e-06 0.00552957)
(7.08662e-05 -2.17786e-05 0.00551284)
(9.94986e-05 -4.30602e-05 0.00541522)
(0.000105086 -7.15992e-05 0.00530716)
(2.78916e-05 -2.04342e-05 0.00569231)
(3.99303e-05 -1.95363e-05 0.00568467)
(5.36503e-05 -1.34994e-05 0.00565715)
(6.3574e-05 -1.02203e-05 0.00561333)
(3.03255e-05 -1.61817e-05 0.00567812)
(4.40025e-05 -1.80282e-05 0.00566488)
(5.9124e-05 -1.52781e-05 0.00562085)
(6.51169e-05 -1.57822e-05 0.00556136)
(3.17107e-05 -1.05623e-05 0.00562479)
(4.50466e-05 -1.62144e-05 0.00560647)
(5.92326e-05 -1.93561e-05 0.00554919)
(6.06885e-05 -2.60012e-05 0.00548054)
(3.17489e-05 -5.26843e-06 0.00550888)
(4.38995e-05 -1.43817e-05 0.00549037)
(5.56079e-05 -2.52814e-05 0.00543116)
(5.38024e-05 -3.67749e-05 0.00536699)
(2.12605e-05 -1.18819e-05 0.005683)
(2.74249e-05 -1.17189e-05 0.00567458)
(3.31457e-05 -9.61824e-06 0.00565479)
(3.56904e-05 -8.02019e-06 0.00562072)
(2.20077e-05 -1.00321e-05 0.00566545)
(2.88515e-05 -1.13789e-05 0.00565203)
(3.47865e-05 -1.08435e-05 0.00562081)
(3.53593e-05 -1.07536e-05 0.0055749)
(2.19433e-05 -7.08696e-06 0.00561129)
(2.86934e-05 -1.0616e-05 0.0055933)
(3.40464e-05 -1.27841e-05 0.0055524)
(3.24373e-05 -1.51951e-05 0.00549948)
(2.1214e-05 -3.64683e-06 0.00549614)
(2.76401e-05 -9.14535e-06 0.00547821)
(3.1906e-05 -1.51079e-05 0.00543664)
(2.86315e-05 -1.99238e-05 0.00538861)
(1.56577e-05 -7.28472e-06 0.00567781)
(1.87621e-05 -7.45566e-06 0.00567037)
(2.10562e-05 -6.86248e-06 0.00565507)
(2.12156e-05 -6.09897e-06 0.00562673)
(1.57055e-05 -6.32735e-06 0.00565859)
(1.91404e-05 -7.32591e-06 0.00564667)
(2.1355e-05 -7.54406e-06 0.00562219)
(2.04649e-05 -7.39741e-06 0.00558376)
(1.52322e-05 -4.65477e-06 0.00560369)
(1.86582e-05 -6.88032e-06 0.00558748)
(2.05003e-05 -8.4324e-06 0.00555502)
(1.8514e-05 -9.34072e-06 0.00551061)
(1.44329e-05 -2.45659e-06 0.00548849)
(1.77836e-05 -5.83419e-06 0.0054723)
(1.9112e-05 -9.28843e-06 0.0054401)
(1.62359e-05 -1.14445e-05 0.00540105)
(1.13554e-05 -4.61541e-06 0.00567474)
(1.28977e-05 -4.91228e-06 0.00566848)
(1.37455e-05 -4.89202e-06 0.00565583)
(1.3246e-05 -4.57895e-06 0.00563069)
(1.11567e-05 -4.04729e-06 0.00565463)
(1.28664e-05 -4.80963e-06 0.00564427)
(1.35927e-05 -5.23019e-06 0.00562342)
(1.2514e-05 -5.18777e-06 0.00558897)
(1.06339e-05 -3.04378e-06 0.00559921)
(1.23529e-05 -4.50155e-06 0.00558474)
(1.28372e-05 -5.61976e-06 0.00555671)
(1.11755e-05 -6.0438e-06 0.00551681)
(9.95269e-06 -1.64364e-06 0.00548385)
(1.16587e-05 -3.77738e-06 0.00546936)
(1.18763e-05 -5.87498e-06 0.00544207)
(9.7343e-06 -6.97015e-06 0.00540779)
(8.18002e-06 -2.98297e-06 0.00567292)
(8.94042e-06 -3.30405e-06 0.00566763)
(9.1865e-06 -3.48175e-06 0.00565655)
(8.59221e-06 -3.39689e-06 0.00563323)
(7.92038e-06 -2.61419e-06 0.00565232)
(8.76324e-06 -3.2062e-06 0.00564315)
(8.91158e-06 -3.63549e-06 0.00562436)
(7.99421e-06 -3.68577e-06 0.0055921)
(7.46308e-06 -1.99114e-06 0.00559655)
(8.30987e-06 -2.98274e-06 0.00558342)
(8.30145e-06 -3.78767e-06 0.00555783)
(7.0711e-06 -4.04888e-06 0.00552039)
(6.92976e-06 -1.09914e-06 0.00548106)
(7.77401e-06 -2.48666e-06 0.00546789)
(7.6212e-06 -3.81092e-06 0.00544328)
(6.12472e-06 -4.4408e-06 0.00541164)
(5.85112e-06 -1.95352e-06 0.00567186)
(6.22225e-06 -2.24582e-06 0.00566725)
(6.2298e-06 -2.46453e-06 0.00565713)
(5.71443e-06 -2.47929e-06 0.00563486)
(5.60649e-06 -1.70175e-06 0.00565095)
(6.01664e-06 -2.15708e-06 0.00564263)
(5.95832e-06 -2.52569e-06 0.00562503)
(5.26155e-06 -2.61636e-06 0.00559402)
(5.24107e-06 -1.30548e-06 0.00559496)
(5.64892e-06 -1.9952e-06 0.00558276)
(5.49082e-06 -2.57201e-06 0.00555857)
(4.62084e-06 -2.76336e-06 0.00552253)
(4.84101e-06 -7.36005e-07 0.00547938)
(5.24482e-06 -1.65779e-06 0.00546716)
(5.0042e-06 -2.51726e-06 0.00544405)
(3.98279e-06 -2.91857e-06 0.0054139)
(4.12517e-06 -1.2936e-06 0.00567124)
(4.30165e-06 -1.52907e-06 0.0056671)
(4.23283e-06 -1.72434e-06 0.00565758)
(3.83801e-06 -1.7735e-06 0.00563593)
(3.92568e-06 -1.11812e-06 0.00565015)
(4.12095e-06 -1.45489e-06 0.00564239)
(4.00897e-06 -1.74208e-06 0.00562551)
(3.51053e-06 -1.83735e-06 0.00559523)
(3.651e-06 -8.59254e-07 0.00559402)
(3.8416e-06 -1.3381e-06 0.00558244)
(3.66591e-06 -1.74513e-06 0.00555907)
(3.06826e-06 -1.8906e-06 0.00552385)
(3.36128e-06 -4.92495e-07 0.00547839)
(3.54581e-06 -1.10945e-06 0.0054668)
(3.32038e-06 -1.67504e-06 0.00544456)
(2.63359e-06 -1.94474e-06 0.00541528)
(2.82535e-06 -8.56107e-07 0.00567086)
(2.90512e-06 -1.02697e-06 0.00566705)
(2.82889e-06 -1.17671e-06 0.0056579)
(2.55024e-06 -1.22948e-06 0.00563663)
(2.67847e-06 -7.33783e-07 0.00564966)
(2.76834e-06 -9.6944e-07 0.00564228)
(2.66299e-06 -1.17598e-06 0.00562585)
(2.32352e-06 -1.2579e-06 0.00559601)
(2.48382e-06 -5.61653e-07 0.00559345)
(2.56934e-06 -8.86641e-07 0.00558229)
(2.42306e-06 -1.16465e-06 0.00555942)
(2.02483e-06 -1.27158e-06 0.00552469)
(2.28263e-06 -3.25016e-07 0.0054778)
(2.36155e-06 -7.33489e-07 0.00546662)
(2.18435e-06 -1.10322e-06 0.00544491)
(1.73201e-06 -1.28514e-06 0.00541614)
(1.82558e-06 -5.40326e-07 0.00567062)
(1.85973e-06 -6.53807e-07 0.00566703)
(1.80042e-06 -7.56286e-07 0.00565812)
(1.61894e-06 -7.99974e-07 0.00563709)
(1.72729e-06 -4.607e-07 0.00564937)
(1.76684e-06 -6.14448e-07 0.00564223)
(1.68823e-06 -7.51126e-07 0.00562608)
(1.47106e-06 -8.12832e-07 0.0055965)
(1.59947e-06 -3.51172e-07 0.00559311)
(1.63551e-06 -5.59848e-07 0.00558221)
(1.53128e-06 -7.38545e-07 0.00555965)
(1.27929e-06 -8.12027e-07 0.00552521)
(1.46901e-06 -2.04585e-07 0.00547745)
(1.49906e-06 -4.62871e-07 0.00546654)
(1.3755e-06 -6.94153e-07 0.00544514)
(1.09097e-06 -8.11558e-07 0.00541668)
(1.0441e-06 -2.75512e-07 0.00567048)
(1.05614e-06 -3.42837e-07 0.00566702)
(1.0183e-06 -4.0463e-07 0.00565825)
(9.12552e-07 -4.3467e-07 0.00563735)
(9.86046e-07 -2.38612e-07 0.00564919)
(9.996e-07 -3.27205e-07 0.00564221)
(9.50259e-07 -4.06536e-07 0.00562621)
(8.25166e-07 -4.44805e-07 0.00559679)
(9.11524e-07 -1.84954e-07 0.00559292)
(9.22572e-07 -3.0251e-07 0.00558218)
(8.58295e-07 -4.02913e-07 0.00555978)
(7.14243e-07 -4.44546e-07 0.00552551)
(8.36296e-07 -1.11287e-07 0.00547725)
(8.42333e-07 -2.55264e-07 0.00546649)
(7.66246e-07 -3.82388e-07 0.00544528)
(6.04411e-07 -4.45894e-07 0.00541699)
(4.9357e-07 -1.92386e-08 0.00567045)
(4.88045e-07 -5.37182e-08 0.00566707)
(4.5989e-07 -8.70008e-08 0.00565838)
(4.04127e-07 -1.10299e-07 0.00563755)
(4.62217e-07 -3.2603e-08 0.00564915)
(4.54601e-07 -7.4269e-08 0.00564225)
(4.19576e-07 -1.10715e-07 0.00562634)
(3.54916e-07 -1.29867e-07 0.00559699)
(4.23596e-07 -4.08878e-08 0.00559287)
(4.11874e-07 -9.37263e-08 0.00558221)
(3.67207e-07 -1.35448e-07 0.00555991)
(2.93225e-07 -1.48854e-07 0.00552572)
(3.83457e-07 -3.77481e-08 0.0054772)
(3.65509e-07 -9.92376e-08 0.00546653)
(3.14017e-07 -1.47009e-07 0.00544542)
(2.32901e-07 -1.62249e-07 0.00541722)
(0.00198279 0.000200064 0.0115437)
(0.00221596 -2.80184e-05 0.0109796)
(0.00107153 -0.000146581 0.0054823)
(0.0010769 -0.000343734 0.00898139)
(0.000994025 -0.000304363 0.00694249)
(0.00191967 -0.000164828 0.0113967)
(0.000555816 -0.000351141 0.00678267)
(0.000165134 -0.000693054 0.00744586)
(-3.1109e-05 0.000502779 0.00290188)
(0.00128877 0.000288201 0.00931414)
(0.00106792 0.000621366 0.00932551)
(0.000440386 0.000672099 0.00984764)