/*--------------------------------*- C++ -*----------------------------------*\
| =========                 |                                                 |
| \\      /  F ield         | OpenFOAM: The Open Source CFD Toolbox           |
|  \\    /   O peration     | Version:  2506                                  |
|   \\  /    A nd           | Website:  www.openfoam.com                      |
|    \\/     M anipulation  |                                                 |
\*---------------------------------------------------------------------------*/
FoamFile
{
    version     2.0;
    format      ascii;
    arch        "LSB;label=32;scalar=64";
    class       volScalarField;
    location    "0.03";
    object      Ksl;
}
// * * * * * * * * * * * * * * * * * * * * * * * * * * * * * * * * * * * * * //

dimensions      [1 -3 -1 0 0 0 0];

internalField   nonuniform List<scalar> 
4608
(
177028
210302
209098
137746
217813
132054
206340
190138
195294
135064
161338
206566
119621
235652
184120
208455
205892
264345
247169
201427
179018
170119
226582
125453
238836
86514.3
197835
104506
205634
268665
268371
543447
155573
337105
342860
166945
187614
154268
127827
152258
221728
185074
181949
287867
146384
247728
211432
179178
121685
230691
162620
306027
126600
218962
201045
182842
248857
234551
244456
173267
239354
246294
197268
107558
232414
152008
280935
324019
331870
193678
250538
261859
199984
279665
196240
277456
293286
188933
233805
275068
213886
178049
375235
304487
359138
304731
232000
245219
221972
231895
263424
208474
254370
375418
168892
196666
315319
229891
163290
194098
208343
198660
251726
322187
320657
284157
208596
233415
365350
232396
234198
229161
259943
211460
194839
242589
284949
272573
175144
265611
280029
246213
185273
389719
202527
118008
212867
410604
215977
208948
262680
245997
199860
226000
243796
223816
238653
300507
250244
291403
273009
200607
254799
303561
272860
148633
283720
145456
296946
182448
219090
243291
184930
388545
315191
146705
225070
299771
251160
244642
490091
162594
257229
244185
259355
314771
186678
142084
261856
268011
279264
523871
137797
266069
215984
228565
212043
217971
323327
250923
419664
226638
240090
233970
208473
208951
232842
232832
218246
187869
278204
231677
127497
193284
169309
174816
311186
207405
298297
222763
302377
230070
198401
234005
188378
224484
212680
175410
179106
288809
290872
244377
259899
242320
369090
227004
235473
244075
322301
470949
205379
201895
210337
289006
152367
219389
171846
231037
252416
320646
251033
206776
211504
255506
243039
284243
183866
249264
406607
284489
284540
280630
248856
176348
353544
194908
276628
295480
186880
199567
273157
677906
192770
219391
214595
211917
197664
310296
253040
176540
283988
324322
208436
261605
163788
249416
155607
124115
486691
303269
222097
200610
217523
234961
297218
262889
197535
208778
159851
220134
274975
261541
454973
236622
365743
140552
284775
142718
303969
204102
155651
239721
138710
464652
201490
285348
223233
332205
242759
195770
239331
314116
211325
234548
112718
315464
183545
264205
250779
271133
334458
243678
191490
386070
276914
200328
292428
245029
162806
269441
260860
241757
210362
277849
185087
196858
290857
251829
176523
258337
183320
289673
212282
288778
260456
208910
209421
253916
262707
174718
228370
164544
272517
336333
377903
176622
191663
131404
318081
228455
331361
184189
159510
359132
323730
221493
281754
118340
253500
344507
237975
261780
327259
358292
164928
230497
227982
168628
111230
315854
203505
200867
247750
211125
217404
194965
204504
205813
287910
560047
104966
210768
319323
305780
17958.8
38418
36190.8
43366.3
42382.9
53973
82719.5
37091.3
53333.6
29485.7
106581
57578.5
153300
131415
90994
61751.7
40911.6
57125
68456.3
88874.2
79948.7
67931.4
155979
82320.5
24946.7
18532.2
56899.2
82319.6
157405
92104.7
121969
30793.5
40283.4
65473.6
40207.1
70637.2
36005
85379.5
46045.7
23306
49020.4
38731.9
52786.8
65254.2
72283.2
84853.8
39149.4
15238.4
12175.6
25964.5
93735
45474
38944
39983
33563.8
23715.3
39512.6
38221
88230.4
21920.2
49204.3
31701
22088.6
37177.8
0
0
0
0
0
0
0
0
0
0
0
0
0
0
0
0
0
0
0
0
0
0
0
0
0
0
0
0
0
546.133
611.435
0
0
0
0
0
0
0
0
0
0
0
0
0
0
0
0
0
0
0
0
0
0
0
0
0
0
0
0
0
0
0
0
0
0
0
0
0
0
0
0
0
0
0
0
0
0
0
0
0
0
0
0
0
0
0
0
0
0
0
0
0
0
0
0
0
0
0
0
0
0
0
0
0
0
0
0
0
0
0
0
0
0
0
0
0
0
0
0
0
0
0
0
0
0
0
0
0
0
0
0
0
0
0
0
0
0
0
0
0
0
0
0
0
0
0
0
0
0
0
0
0
0
0
0
0
0
0
0
0
0
0
0
0
0
0
0
0
0
0
0
0
0
0
0
0
0
0
0
0
0
0
0
0
0
0
0
0
0
0
0
0
0
0
0
0
0
0
0
0
0
0
0
0
0
0
0
0
0
0
0
0
0
0
0
0
0
0
0
0
0
0
0
0
0
0
0
0
0
0
0
0
0
0
0
0
0
0
0
0
0
0
0
0
0
0
0
0
0
0
0
0
0
0
0
0
0
0
0
0
0
0
0
0
0
0
0
0
0
0
0
0
0
0
0
0
0
0
0
0
0
0
0
0
0
0
0
0
0
0
0
0
0
0
0
0
0
0
0
0
0
0
0
0
0
0
0
0
0
0
0
0
0
0
0
0
0
0
0
0
0
0
0
0
0
0
0
0
0
0
0
0
0
0
0
0
0
0
0
0
0
0
0
0
0
0
0
0
0
0
0
0
0
0
0
0
0
0
0
0
0
0
0
0
0
0
0
0
0
0
0
0
0
0
0
0
0
0
0
0
0
0
0
0
0
0
0
0
0
0
0
0
0
0
0
0
0
0
0
0
0
0
0
0
0
0
0
0
0
0
0
0
0
0
0
0
0
0
0
0
0
0
0
0
0
0
0
0
0
0
0
0
0
0
0
0
0
0
0
0
0
0
0
0
0
0
0
0
0
0
0
0
0
0
0
0
0
0
0
0
0
0
0
0
0
0
0
0
0
0
0
0
0
0
0
0
0
0
0
0
0
0
0
0
0
0
0
0
0
0
0
0
0
0
0
0
0
0
0
0
0
0
0
0
0
0
0
0
0
0
0
0
0
0
0
0
0
0
0
0
0
0
0
0
0
0
0
0
0
0
0
0
0
0
0
0
0
0
0
0
0
0
0
0
0
0
0
0
0
0
0
0
0
0
0
0
0
0
0
0
0
0
0
0
0
0
0
0
0
0
0
0
0
0
0
0
0
0
0
0
0
0
0
0
0
0
0
0
0
0
0
0
0
0
0
0
0
0
0
0
0
0
0
0
0
0
0
0
0
0
0
0
0
0
0
0
0
0
0
0
0
0
0
0
0
0
0
0
0
0
0
0
0
0
0
0
0
0
0
0
0
0
0
0
0
0
0
0
0
0
0
0
0
0
0
0
0
0
0
0
0
0
0
0
0
0
0
0
0
0
0
0
0
0
0
0
0
0
0
0
0
0
0
0
0
0
0
0
0
0
0
0
0
0
0
0
0
0
0
0
0
0
0
0
0
0
0
0
0
0
0
0
0
0
0
0
0
0
0
0
0
0
0
0
0
0
0
0
0
0
0
0
0
0
0
0
0
0
0
0
0
0
0
0
0
0
0
0
0
0
0
0
0
0
0
0
0
0
0
0
0
0
0
0
0
0
0
0
0
0
0
0
0
0
0
0
0
0
0
0
0
0
0
0
0
0
0
0
0
0
0
0
0
0
0
0
0
0
0
0
0
0
0
0
0
0
0
0
0
0
0
0
0
0
0
0
0
0
0
0
0
0
0
0
0
0
0
0
0
0
0
0
0
0
0
0
0
0
0
0
0
0
0
0
0
0
0
0
0
0
0
0
0
0
0
0
0
0
0
0
0
0
0
0
0
0
0
0
0
0
0
0
0
0
0
0
0
0
0
0
0
0
0
0
0
0
0
0
0
0
0
0
0
0
0
0
0
0
0
0
0
0
0
0
0
0
0
0
0
0
0
0
0
0
0
0
0
0
0
0
0
0
0
0
0
0
0
0
0
0
0
0
0
0
0
0
0
0
0
0
0
0
0
0
0
0
0
0
0
0
0
0
0
0
0
0
0
0
0
0
0
0
0
0
0
0
0
0
0
0
0
0
0
0
0
0
0
0
0
0
0
0
0
0
0
0
0
0
0
0
0
0
0
0
0
0
0
0
0
0
0
0
0
0
0
0
0
0
0
0
0
0
0
0
0
0
0
0
0
0
0
0
0
0
0
0
0
0
0
0
0
0
0
0
0
0
0
0
0
0
0
0
0
0
0
0
0
0
0
0
0
0
0
0
0
0
0
0
0
0
0
0
0
0
0
0
0
0
0
0
0
0
0
0
0
0
0
0
0
0
0
0
0
0
0
0
0
0
179634
367088
188325
123220
186329
178881
181272
189701
248547
153003
160942
223643
204551
247873
177965
185856
139525
174167
154033
174634
282130
247271
183581
207232
235919
168171
189605
140105
233041
180306
141792
204332
294763
93422.2
298582
340216
210957
245319
184900
257498
302859
313326
198276
319303
221498
178529
278510
328668
287665
189189
186709
193459
206274
236672
177189
303707
182159
296871
185989
279598
233295
272751
309063
146006
259618
325658
258556
152901
304760
254943
179756
102704
196678
330294
217677
256997
186243
265723
286658
278617
174404
197012
204862
279797
276831
145456
237299
299643
220110
258709
209598
250332
175891
220400
193514
175643
131980
281510
143991
281468
202404
260335
263958
304259
531611
183999
307219
272311
344705
168652
218155
294497
211567
295251
207056
93792
282515
239196
142049
185191
259455
203765
275115
156469
250398
213552
164933
214069
233058
169265
232217
315294
232384
256120
150047
349636
225571
159522
211268
307227
205675
306566
323602
219404
336214
259249
211199
282339
216747
178837
212666
351246
206150
308168
241697
210338
251955
218067
219538
90768.7
76045.2
309671
124099
334233
167894
236990
164527
261766
221138
294541
220781
221961
304470
196344
130246
136084
271931
158154
294853
308901
122495
272002
162826
270273
279556
248293
128084
153231
360018
232056
201713
176626
66731.7
27643.7
53963.3
59412.8
24139.2
33567.2
36609.4
39534.8
81935.5
58869.6
82160.5
65516.7
49904
23444.5
18481.3
29884.8
63714.1
25107.4
37666.1
46336.2
29087.4
62012
58889.3
54629.6
47672.3
49826
79403.1
123781
44899.2
46342.2
93871.4
49582.3
0
0
0
0
0
0
0
0
0
0
0
0
0
0
0
0
0
0
0
0
0
0
0
0
0
0
0
0
0
0
0
0
0
0
0
0
0
0
0
0
0
0
0
0
0
0
0
0
0
0
0
0
0
0
0
0
0
0
0
0
0
0
0
0
0
0
0
0
0
0
0
0
0
0
0
0
0
0
0
0
0
0
0
0
0
0
0
0
0
0
0
0
0
0
0
0
0
0
0
0
0
0
0
0
0
0
0
0
0
0
0
0
0
0
0
0
0
0
0
0
0
0
0
0
0
0
0
0
0
0
0
0
0
0
0
0
0
0
0
0
0
0
0
0
0
0
0
0
0
0
0
0
0
0
0
0
0
0
0
0
0
0
0
0
0
0
0
0
0
0
0
0
0
0
0
0
0
0
0
0
0
0
0
0
0
0
0
0
0
0
0
0
0
0
0
0
0
0
0
0
0
0
0
0
0
0
0
0
0
0
0
0
0
0
0
0
0
0
0
0
0
0
0
0
0
0
0
0
0
0
0
0
0
0
0
0
0
0
0
0
0
0
0
0
0
0
0
0
0
0
0
0
0
0
0
0
0
0
0
0
0
0
0
0
0
0
0
0
0
0
0
0
0
0
0
0
0
0
0
0
0
0
0
0
0
0
0
0
0
0
0
0
0
0
0
0
0
0
0
0
0
0
0
0
0
0
0
0
0
0
0
0
0
0
0
0
0
0
0
0
0
0
0
0
0
0
0
0
0
0
0
0
0
0
0
0
0
0
0
0
0
0
0
0
0
0
0
0
0
0
0
0
0
0
0
0
0
0
0
0
0
0
0
0
0
0
0
0
0
0
0
0
0
0
0
0
0
0
0
0
0
0
0
0
0
0
0
0
0
0
0
0
0
0
0
0
0
0
0
0
0
0
0
0
0
0
0
0
0
0
0
0
0
0
0
0
0
0
0
0
0
0
0
0
0
0
0
0
0
0
0
0
0
0
0
0
0
0
0
0
0
0
0
0
0
0
0
0
0
0
0
0
0
0
0
0
0
0
0
0
0
0
0
0
0
0
0
0
0
0
0
0
0
0
0
0
0
0
0
0
0
0
0
0
0
0
0
0
0
0
0
0
0
0
0
0
0
0
0
0
0
0
0
0
0
0
0
0
0
0
0
0
0
0
0
0
0
0
0
0
0
0
0
0
0
0
0
0
0
0
0
0
0
0
0
0
0
0
0
0
0
0
0
0
245289
147732
154084
245922
185695
229710
192093
305133
198906
189818
128555
219422
165102
222885
291377
155558
226493
136128
144419
225885
156110
197990
187646
247018
243069
139735
143888
169796
143549
197967
133731
237138
183890
215055
233930
113975
209606
122368
230256
287851
192725
293131
293388
350526
142796
244005
347338
241620
211525
258247
133376
363595
284002
240946
120409
273271
123832
136209
334195
219936
123956
271416
146779
239690
221155
225617
237106
218776
178261
388090
177221
209226
257492
150572
261142
208693
316517
170472
180206
163816
203884
192672
220329
267281
178590
186854
295389
269446
203111
219454
217755
236597
306146
273738
291130
175674
243577
236478
160915
274363
219377
164181
278659
169951
237213
210260
216477
352501
296283
417136
267217
223602
157259
101149
205020
298441
178808
303871
217852
306543
246191
214555
251298
206349
182844
247307
219188
414404
189285
177895
177923
292025
237339
144910
438545
188106
176272
314648
214229
384568
150297
253165
234701
343649
194949
204463
200096
218313
239336
179379
222543
281741
248383
202341
258152
248381
140192
441220
159104
372721
70543.6
201451
304350
140712
231406
282894
262227
277372
203909
176594
209077
208006
205293
190680
267850
139075
259521
204040
219135
252739
223664
298022
207443
238576
232588
199233
380709
333310
270704
187605
263861
471648
53365.7
61358.8
25539.1
26204.3
101539
64427.3
84088.9
37928.8
131990
62549.1
67454.4
64135.1
78211.4
120479
68968.4
56473.6
65005.3
51968.4
39141.6
73357.1
87398.2
45299.4
28713.9
39954.4
99774.2
27978.3
48083.9
40061.7
73046
113454
32908.6
50718.3
0
0
0
0
0
0
0
0
0
0
0
0
0
0
0
0
0
0
0
0
0
0
0
0
0
0
0
0
0
0
0
0
0
0
0
0
0
0
0
0
0
0
0
0
0
0
0
0
0
0
0
0
0
0
0
0
0
0
0
0
0
0
0
0
0
0
0
0
0
0
0
0
0
0
0
0
0
0
0
0
0
0
0
0
0
0
0
0
0
0
0
0
0
0
0
0
0
0
0
0
0
0
0
0
0
0
0
0
0
0
0
0
0
0
0
0
0
0
0
0
0
0
0
0
0
0
0
0
0
0
0
0
0
0
0
0
0
0
0
0
0
0
0
0
0
0
0
0
0
0
0
0
0
0
0
0
0
0
0
0
0
0
0
0
0
0
0
0
0
0
0
0
0
0
0
0
0
0
0
0
0
0
0
0
0
0
0
0
0
0
0
0
0
0
0
0
0
0
0
0
0
0
0
0
0
0
0
0
0
0
0
0
0
0
0
0
0
0
0
0
0
0
0
0
0
0
0
0
0
0
0
0
0
0
0
0
0
0
0
0
0
0
0
0
0
0
0
0
0
0
0
0
0
0
0
0
0
0
0
0
0
0
0
0
0
0
0
0
0
0
0
0
0
0
0
0
0
0
0
0
0
0
0
0
0
0
0
0
0
0
0
0
0
0
0
0
0
0
0
0
0
0
0
0
0
0
0
0
0
0
0
0
0
0
0
0
0
0
0
0
0
0
0
0
0
0
0
0
0
0
0
0
0
0
0
0
0
0
0
0
0
0
0
0
0
0
0
0
0
0
0
0
0
0
0
0
0
0
0
0
0
0
0
0
0
0
0
0
0
0
0
0
0
0
0
0
0
0
0
0
0
0
0
0
0
0
0
0
0
0
0
0
0
0
0
0
0
0
0
0
0
0
0
0
0
0
0
0
0
0
0
0
0
0
0
0
0
0
0
0
0
0
0
0
0
0
0
0
0
0
0
0
0
0
0
0
0
0
0
0
0
0
0
0
0
0
0
0
0
0
0
0
0
0
0
0
0
0
0
0
0
0
0
0
0
0
0
0
0
0
0
0
0
0
0
0
0
0
0
0
0
0
0
0
0
0
0
0
0
0
0
0
0
0
0
0
0
0
0
0
0
0
0
0
0
0
0
0
0
0
0
0
0
0
0
0
0
0
0
0
0
0
0
0
0
0
0
0
0
0
0
0
0
0
0
0
0
0
0
0
0
0
0
0
159291
179191
248147
224561
175761
223826
151176
202257
143303
147234
173547
188426
212744
254174
209701
205635
186779
320382
171668
226425
146718
184905
182168
185880
153413
246653
135456
297270
144702
205409
186280
236091
177079
236020
229136
237276
205087
207811
154774
225827
246746
214689
203361
247652
262095
166517
310477
250599
208553
272647
244390
224822
184531
223267
202120
107012
217031
389426
172126
231697
258293
250741
316245
235624
201260
160270
246901
200762
209011
211717
213642
153742
282057
180743
189026
225695
203616
221596
215587
244572
194374
171435
264473
185441
287786
224733
147442
341745
333804
244564
248210
262694
294706
271967
200759
281866
150391
253197
231386
259186
194967
197778
218394
152295
225272
156676
273438
151305
282909
285540
259971
289104
216180
320470
309572
252772
167661
152900
267803
167579
274259
215184
181720
179150
387177
282053
242485
236807
197391
209410
225555
212444
170708
254196
153683
184188
256527
235254
138804
271193
247093
356903
174965
330595
156751
194780
265959
402880
174079
197800
189664
407233
211940
299166
283882
264856
238992
174200
303219
188393
181218
243149
239263
207809
203712
174632
240269
191772
359223
246978
208344
227203
225624
254715
211005
194869
121384
320517
239663
252132
234054
258195
449371
200633
287116
189338
172020
292666
98333.7
206634
180455
245736
34962.7
36481.8
55066.1
44947
52259.8
46155.1
47071.5
136359
64919.8
32414
28534.5
27566
50844.5
50117.1
74014.6
80353
67478.1
25166.9
42348.7
34084
40496.4
19706.7
27848.2
71832.2
44692.2
19959.9
35967.2
40853
42476.7
68094.4
17513.6
35298.4
0
0
0
0
0
0
0
0
0
0
0
0
0
0
0
0
0
0
0
0
0
0
0
0
0
0
0
0
0
0
0
0
0
0
0
0
0
0
0
0
0
0
0
0
0
0
0
0
0
0
0
0
0
0
0
0
0
0
0
0
0
0
0
0
0
0
0
0
0
0
0
0
0
0
0
0
0
0
0
0
0
0
0
0
0
0
0
0
0
0
0
0
0
0
0
0
0
0
0
0
0
0
0
0
0
0
0
0
0
0
0
0
0
0
0
0
0
0
0
0
0
0
0
0
0
0
0
0
0
0
0
0
0
0
0
0
0
0
0
0
0
0
0
0
0
0
0
0
0
0
0
0
0
0
0
0
0
0
0
0
0
0
0
0
0
0
0
0
0
0
0
0
0
0
0
0
0
0
0
0
0
0
0
0
0
0
0
0
0
0
0
0
0
0
0
0
0
0
0
0
0
0
0
0
0
0
0
0
0
0
0
0
0
0
0
0
0
0
0
0
0
0
0
0
0
0
0
0
0
0
0
0
0
0
0
0
0
0
0
0
0
0
0
0
0
0
0
0
0
0
0
0
0
0
0
0
0
0
0
0
0
0
0
0
0
0
0
0
0
0
0
0
0
0
0
0
0
0
0
0
0
0
0
0
0
0
0
0
0
0
0
0
0
0
0
0
0
0
0
0
0
0
0
0
0
0
0
0
0
0
0
0
0
0
0
0
0
0
0
0
0
0
0
0
0
0
0
0
0
0
0
0
0
0
0
0
0
0
0
0
0
0
0
0
0
0
0
0
0
0
0
0
0
0
0
0
0
0
0
0
0
0
0
0
0
0
0
0
0
0
0
0
0
0
0
0
0
0
0
0
0
0
0
0
0
0
0
0
0
0
0
0
0
0
0
0
0
0
0
0
0
0
0
0
0
0
0
0
0
0
0
0
0
0
0
0
0
0
0
0
0
0
0
0
0
0
0
0
0
0
0
0
0
0
0
0
0
0
0
0
0
0
0
0
0
0
0
0
0
0
0
0
0
0
0
0
0
0
0
0
0
0
0
0
0
0
0
0
0
0
0
0
0
0
0
0
0
0
0
0
0
0
0
0
0
0
0
0
0
0
0
0
0
0
0
0
0
0
0
0
0
0
0
0
0
0
0
0
0
0
0
0
0
0
0
0
0
0
0
0
0
0
0
0
0
0
0
0
0
0
0
0
0
0
0
0
0
0
0
0
0
0
0
0
221775
200006
169373
212187
186881
181565
204683
146879
283909
193009
162938
179312
145815
290604
120584
138327
217956
153582
274804
248227
187416
229689
175434
153545
138264
209129
153491
269509
335153
142968
323723
189720
174409
184396
338123
125570
232360
315016
307851
193509
247533
226035
326526
249379
209484
252274
232016
182248
270974
186842
144342
264660
186062
241258
220671
172144
389012
218275
117221
276567
210424
257853
200405
183379
390914
230055
273481
281189
199265
236540
148003
217525
215598
183596
214537
204669
186591
188835
289803
306976
362167
326000
237931
165885
202309
250363
211842
281223
154734
317689
148592
196484
222124
150216
268251
163462
258547
264881
265934
156802
211931
249433
190838
274596
244304
232606
261829
168002
225081
295105
159446
302106
306479
280968
206185
246653
265871
207579
200598
233522
175979
244382
225967
150425
181384
205168
256425
162503
215676
383546
213395
131098
220942
311844
205099
200282
254402
196082
250141
250457
246339
200304
195775
196798
295961
209027
262086
178201
274083
296722
218195
223966
191707
350824
202885
191822
179524
214693
270152
193769
131022
296949
259828
201125
105510
230968
187146
212425
254812
276072
215470
172560
241527
253777
273229
325370
208537
192389
186403
197047
193243
262559
161743
175191
143305
363280
164672
307479
342115
213235
223665
200652
71893
97494.9
77006.5
49195.3
54033
34803.1
64433.6
104245
22168.5
23073
30195
156216
55003
23577.4
63321.1
42875.9
38143.9
30290.6
40823.2
39347.6
24739.5
44704.2
22503.2
26111.5
41978.9
22065.1
33106
33908.1
11191.4
89367.9
39941.5
43137
0
0
0
0
0
0
0
0
0
0
0
319.606
0
0
0
0
0
0
0
0
0
0
0
0
0
0
0
0
0
0
0
0
0
0
0
0
0
0
0
0
0
0
0
0
0
0
0
0
0
0
0
0
0
0
0
0
0
0
0
0
0
0
0
0
0
0
0
0
0
0
0
0
0
0
0
0
0
0
0
0
0
0
0
0
0
0
0
0
0
0
0
0
0
0
0
0
0
0
0
0
0
0
0
0
0
0
0
0
0
0
0
0
0
0
0
0
0
0
0
0
0
0
0
0
0
0
0
0
0
0
0
0
0
0
0
0
0
0
0
0
0
0
0
0
0
0
0
0
0
0
0
0
0
0
0
0
0
0
0
0
0
0
0
0
0
0
0
0
0
0
0
0
0
0
0
0
0
0
0
0
0
0
0
0
0
0
0
0
0
0
0
0
0
0
0
0
0
0
0
0
0
0
0
0
0
0
0
0
0
0
0
0
0
0
0
0
0
0
0
0
0
0
0
0
0
0
0
0
0
0
0
0
0
0
0
0
0
0
0
0
0
0
0
0
0
0
0
0
0
0
0
0
0
0
0
0
0
0
0
0
0
0
0
0
0
0
0
0
0
0
0
0
0
0
0
0
0
0
0
0
0
0
0
0
0
0
0
0
0
0
0
0
0
0
0
0
0
0
0
0
0
0
0
0
0
0
0
0
0
0
0
0
0
0
0
0
0
0
0
0
0
0
0
0
0
0
0
0
0
0
0
0
0
0
0
0
0
0
0
0
0
0
0
0
0
0
0
0
0
0
0
0
0
0
0
0
0
0
0
0
0
0
0
0
0
0
0
0
0
0
0
0
0
0
0
0
0
0
0
0
0
0
0
0
0
0
0
0
0
0
0
0
0
0
0
0
0
0
0
0
0
0
0
0
0
0
0
0
0
0
0
0
0
0
0
0
0
0
0
0
0
0
0
0
0
0
0
0
0
0
0
0
0
0
0
0
0
0
0
0
0
0
0
0
0
0
0
0
0
0
0
0
0
0
0
0
0
0
0
0
0
0
0
0
0
0
0
0
0
0
0
0
0
0
0
0
0
0
0
0
0
0
0
0
0
0
0
0
0
0
0
0
0
0
0
0
0
0
0
0
0
0
0
0
0
0
0
0
0
0
0
0
0
0
0
0
0
0
0
0
0
0
0
0
0
0
0
0
0
0
0
0
0
0
0
0
0
0
0
0
0
0
0
0
)
;

boundaryField
{
    inlet
    {
        type            zeroGradient;
    }
    outlet
    {
        type            zeroGradient;
    }
    wall
    {
        type            zeroGradient;
    }
}


// ************************************************************************* //
