# Probe 0 (0 0 0.0001)
# Probe 1 (0 0 0.0026)
# Probe 2 (0 0 0.0051)
# Probe 3 (0 0 0.0076)
# Probe 4 (0 0 0.0101)
# Probe 5 (0 0 0.0126)
# Probe 6 (0 0 0.0151)
# Probe 7 (0 0 0.0176)
# Probe 8 (0 0 0.0201)
# Probe 9 (0 0 0.0226)
# Probe 10 (0 0 0.0251)
# Probe 11 (0 0 0.0276)
# Probe 12 (0 0 0.0301)
# Probe 13 (0 0 0.0326)
# Probe 14 (0 0 0.0351)
# Probe 15 (0 0 0.0375)
# Probe 16 (0 0 0.0401)
# Probe 17 (0 0 0.0426)
# Probe 18 (0 0 0.0451)
# Probe 19 (0 0 0.0476)
# Probe 20 (0 0 0.0529)
# Time        0             1             2             3             4             5             6             7             8             9             10            11            12            13            14            15            16            17            18            19            20           
0.001         1             1             1             1             1             1             1             1             1             1             1             1             1             1             1             1             1             1             1             1             1            
0.002         0.53653       0.420663      0.45753       0.312696      0.399596      0.502297      0.623431      1             1             1             1             1             1             1             1             1             1             1             1             1             1            
0.003         0.53653       0.420663      0.45753       0.312696      0.399596      0.502297      0.623431      1             1             1             1             1             1             1             1             1             1             1             1             1             1            
0.004         0.53653       0.420663      0.45753       0.312696      0.399596      0.502297      0.623431      1             1             1             1             1             1             1             1             1             1             1             1             1             1            
0.005         0.53653       0.420663      0.460163      0.310062      0.399596      0.502297      0.623431      1             1             1             1             1             1             1             1             1             1             1             1             1             1            
0.006         0.53653       0.420663      0.460163      0.310062      0.399596      0.502297      0.623431      1             1             1             1             1             1             1             1             1             1             1             1             1             1            
0.007         0.53653       0.420663      0.460163      0.310062      0.399596      0.502297      0.623431      1             1             1             1             1             1             1             1             1             1             1             1             1             1            
0.008         0.53653       0.420663      0.460163      0.310062      0.399596      0.502297      0.623431      1             1             1             1             1             1             1             1             1             1             1             1             1             1            
0.009         0.53653       0.420663      0.460163      0.310062      0.399596      0.502297      0.623431      1             1             1             1             1             1             1             1             1             1             1             1             1             1            
0.01          0.53653       0.420663      0.460163      0.310062      0.399596      0.502297      0.623431      1             1             1             1             1             1             1             1             1             1             1             1             1             1            
0.011         0.53653       0.420663      0.460163      0.310062      0.399596      0.502297      0.623431      1             1             1             1             1             1             1             1             1             1             1             1             1             1            
0.012         0.53653       0.420663      0.460163      0.310062      0.399596      0.502297      0.623431      1             1             1             1             1             1             1             1             1             1             1             1             1             1            
0.013         0.53653       0.420663      0.460163      0.310062      0.399596      0.502297      0.623431      1             1             1             1             1             1             1             1             1             1             1             1             1             1            
0.014         0.53653       0.420663      0.460163      0.310062      0.399596      0.502297      0.623431      1             1             1             1             1             1             1             1             1             1             1             1             1             1            
0.015         0.53653       0.420663      0.460163      0.310062      0.399596      0.502297      0.623431      1             1             1             1             1             1             1             1             1             1             1             1             1             1            
0.016         0.53653       0.420663      0.460163      0.310062      0.399596      0.502297      0.623431      1             1             1             1             1             1             1             1             1             1             1             1             1             1            
0.017         0.53653       0.420663      0.460163      0.310062      0.399596      0.502297      0.623431      1             1             1             1             1             1             1             1             1             1             1             1             1             1            
0.018         0.53653       0.420663      0.470697      0.299529      0.399596      0.502297      0.623431      1             1             1             1             1             1             1             1             1             1             1             1             1             1            
0.019         0.53653       0.420663      0.470697      0.304796      0.39433       0.502297      0.623431      1             1             1             1             1             1             1             1             1             1             1             1             1             1            
0.02          0.53653       0.420663      0.470697      0.304796      0.39433       0.502297      0.623431      1             1             1             1             1             1             1             1             1             1             1             1             1             1            
0.021         0.53653       0.420663      0.470697      0.304796      0.39433       0.502297      0.623431      1             1             1             1             1             1             1             1             1             1             1             1             1             1            
0.022         0.53653       0.420663      0.470697      0.304796      0.39433       0.502297      0.623431      1             1             1             1             1             1             1             1             1             1             1             1             1             1            
0.023         0.53653       0.420663      0.470697      0.304796      0.39433       0.502297      0.623431      1             1             1             1             1             1             1             1             1             1             1             1             1             1            
0.024         0.53653       0.420663      0.470697      0.304796      0.39433       0.502297      0.623431      1             1             1             1             1             1             1             1             1             1             1             1             1             1            
0.025         0.53653       0.420663      0.470697      0.304796      0.39433       0.502297      0.623431      1             1             1             1             1             1             1             1             1             1             1             1             1             1            
0.026         0.53653       0.420663      0.470697      0.304796      0.39433       0.502297      0.623431      1             1             1             1             1             1             1             1             1             1             1             1             1             1            
0.027         0.53653       0.420663      0.470697      0.304796      0.39433       0.502297      0.623431      1             1             1             1             1             1             1             1             1             1             1             1             1             1            
0.028         0.53653       0.420663      0.470697      0.304796      0.39433       0.502297      0.623431      1             1             1             1             1             1             1             1             1             1             1             1             1             1            
0.029         0.53653       0.420663      0.470697      0.304796      0.39433       0.502297      0.623431      1             1             1             1             1             1             1             1             1             1             1             1             1             1            
0.03          0.53653       0.420663      0.470697      0.304796      0.39433       0.502297      0.623431      1             1             1             1             1             1             1             1             1             1             1             1             1             1            
0.031         0.53653       0.420663      0.470697      0.304796      0.39433       0.502297      0.628698      1             1             1             1             1             1             1             1             1             1             1             1             1             1            
0.032         0.53653       0.420663      0.470697      0.304796      0.389063      0.446997      0.628698      1             1             1             1             1             1             1             1             1             1             1             1             1             1            
0.033         0.53653       0.420663      0.47333       0.302162      0.389063      0.446997      0.628698      1             1             1             1             1             1             1             1             1             1             1             1             1             1            
0.034         0.53653       0.420663      0.47333       0.302162      0.391696      0.444363      0.628698      1             1             1             1             1             1             1             1             1             1             1             1             1             1            
0.035         0.53653       0.420663      0.47333       0.302162      0.391696      0.444363      0.628698      1             1             1             1             1             1             1             1             1             1             1             1             1             1            
0.036         0.53653       0.420663      0.47333       0.302162      0.391696      0.444363      0.628698      1             1             1             1             1             1             1             1             1             1             1             1             1             1            
0.037         0.53653       0.420663      0.47333       0.302162      0.391696      0.444363      0.628698      1             1             1             1             1             1             1             1             1             1             1             1             1             1            
0.038         0.53653       0.420663      0.47333       0.302162      0.391696      0.444363      0.628698      1             1             1             1             1             1             1             1             1             1             1             1             1             1            
0.039         0.53653       0.420663      0.47333       0.302162      0.391696      0.444363      0.628698      1             1             1             1             1             1             1             1             1             1             1             1             1             1            
0.04          0.53653       0.420663      0.47333       0.302162      0.391696      0.444363      0.628698      1             1             1             1             1             1             1             1             1             1             1             1             1             1            
0.041         0.53653       0.420663      0.47333       0.302162      0.391696      0.444363      0.628698      1             1             1             1             1             1             1             1             1             1             1             1             1             1            
0.042         0.53653       0.420663      0.47333       0.302162      0.391696      0.444363      0.628698      1             1             1             1             1             1             1             1             1             1             1             1             1             1            
0.043         0.53653       0.420663      0.47333       0.302162      0.391696      0.444363      0.628698      1             1             1             1             1             1             1             1             1             1             1             1             1             1            
0.044         0.53653       0.420663      0.47333       0.302162      0.391696      0.444363      0.628698      1             1             1             1             1             1             1             1             1             1             1             1             1             1            
0.045         0.53653       0.420663      0.47333       0.302162      0.40223       0.43383       0.628698      1             1             1             1             1             1             1             1             1             1             1             1             1             1            
0.046         0.53653       0.420663      0.47333       0.302162      0.40223       0.43383       0.628698      1             1             1             1             1             1             1             1             1             1             1             1             1             1            
0.047         0.53653       0.420663      0.47333       0.302162      0.40223       0.43383       0.628698      1             1             1             1             1             1             1             1             1             1             1             1             1             1            
0.048         0.53653       0.420663      0.47333       0.302162      0.40223       0.43383       0.628698      1             1             1             1             1             1             1             1             1             1             1             1             1             1            
0.049         0.53653       0.420663      0.47333       0.302162      0.40223       0.43383       0.628698      1             1             1             1             1             1             1             1             1             1             1             1             1             1            
0.05          0.53653       0.420663      0.47333       0.302162      0.404863      0.491764      0.628698      1             1             1             1             1             1             1             1             1             1             1             1             1             1            
