/*--------------------------------*- C++ -*----------------------------------*\
| =========                 |                                                 |
| \\      /  F ield         | OpenFOAM: The Open Source CFD Toolbox           |
|  \\    /   O peration     | Version:  2506                                  |
|   \\  /    A nd           | Website:  www.openfoam.com                      |
|    \\/     M anipulation  |                                                 |
\*---------------------------------------------------------------------------*/
FoamFile
{
    version     2.0;
    format      ascii;
    arch        "LSB;label=32;scalar=64";
    class       volScalarField;
    location    "0.04";
    object      p;
}
// * * * * * * * * * * * * * * * * * * * * * * * * * * * * * * * * * * * * * //

dimensions      [0 2 -2 0 0 0 0];

internalField   nonuniform List<scalar> 
1152
(
13.4443
13.3432
13.3273
13.5038
13.3888
13.3337
13.4632
13.4692
13.4124
13.3214
13.2913
13.3372
13.361
13.2837
13.2914
13.2647
11.6165
11.687
11.7392
11.6804
11.7169
11.7692
11.5683
11.583
11.7932
11.7616
11.803
11.5753
11.7833
11.9425
11.8813
11.7766
9.03482
9.12982
9.49512
8.70508
8.85476
9.32764
9.15864
9.11646
9.19166
9.36615
9.37061
8.93205
9.3067
9.12141
9.32272
9.03444
6.49227
6.54188
6.54312
6.60598
6.40803
6.40947
6.58732
6.52759
6.38709
6.49387
6.62156
6.49773
6.1804
6.68862
6.73238
6.83097
3.92781
3.83861
3.67813
3.90003
3.98686
3.82619
4.02349
4.04168
3.66216
3.81863
4.1881
4.32313
3.7142
4.0896
4.14317
4.64745
1.31498
1.46257
1.51909
1.61988
1.30087
1.50889
1.67018
1.76599
1.37768
1.53938
1.59014
1.72177
1.40236
1.61641
1.78739
1.79998
1.0123
1.01935
1.01688
1.0163
1.01601
1.01755
1.01409
1.00955
1.01589
1.01881
1.00867
1.02867
1.02117
1.01309
1.00128
1.01002
1.0055
1.00547
1.00535
1.00538
1.00578
1.00543
1.00509
1.0049
1.00565
1.00525
1.0044
1.00487
1.00584
1.00483
1.0036
1.002
1.00946
1.00974
1.00939
1.00945
1.00952
1.00952
1.00904
1.00896
1.00948
1.00953
1.00876
1.00946
1.00951
1.00912
1.00837
1.00892
1.00722
1.00722
1.00703
1.00699
1.00725
1.00713
1.00688
1.00678
1.00723
1.0071
1.00674
1.00674
1.00714
1.00693
1.00654
1.00648
1.00689
1.00683
1.00672
1.00666
1.00685
1.00677
1.00662
1.00655
1.00681
1.00672
1.00654
1.00648
1.00672
1.0066
1.00642
1.00635
1.00621
1.00616
1.00609
1.00603
1.00618
1.00611
1.00603
1.00597
1.00614
1.00607
1.00597
1.0059
1.00606
1.00598
1.00588
1.00581
1.00562
1.00558
1.00553
1.00548
1.00559
1.00554
1.00549
1.00544
1.00556
1.0055
1.00544
1.00538
1.0055
1.00544
1.00537
1.00531
1.00506
1.00503
1.005
1.00496
1.00504
1.00501
1.00497
1.00493
1.00501
1.00497
1.00493
1.00488
1.00497
1.00492
1.00488
1.00483
1.00453
1.00451
1.00448
1.00446
1.00451
1.00449
1.00446
1.00443
1.00449
1.00446
1.00443
1.0044
1.00446
1.00442
1.00439
1.00436
1.00402
1.00401
1.00399
1.00397
1.00401
1.00399
1.00397
1.00394
1.00399
1.00397
1.00394
1.00392
1.00396
1.00394
1.00391
1.00389
1.00352
1.00351
1.0035
1.00348
1.00351
1.0035
1.00348
1.00347
1.0035
1.00348
1.00347
1.00345
1.00348
1.00346
1.00344
1.00343
1.00304
1.00303
1.00302
1.00301
1.00303
1.00302
1.00301
1.003
1.00302
1.00301
1.00299
1.00298
1.003
1.00299
1.00298
1.00297
1.00256
1.00255
1.00255
1.00254
1.00255
1.00255
1.00254
1.00253
1.00254
1.00254
1.00253
1.00252
1.00253
1.00253
1.00252
1.00251
1.00209
1.00208
1.00208
1.00207
1.00208
1.00208
1.00207
1.00207
1.00208
1.00207
1.00207
1.00206
1.00207
1.00206
1.00206
1.00205
1.00162
1.00162
1.00161
1.00161
1.00162
1.00161
1.00161
1.0016
1.00161
1.00161
1.0016
1.0016
1.00161
1.0016
1.0016
1.00159
1.00116
1.00115
1.00115
1.00115
1.00115
1.00115
1.00115
1.00115
1.00115
1.00115
1.00114
1.00114
1.00115
1.00114
1.00114
1.00114
1.00069
1.00069
1.00069
1.00069
1.00069
1.00069
1.00069
1.00069
1.00069
1.00069
1.00069
1.00068
1.00069
1.00069
1.00068
1.00068
1.00023
1.00023
1.00023
1.00023
1.00023
1.00023
1.00023
1.00023
1.00023
1.00023
1.00023
1.00023
1.00023
1.00023
1.00023
1.00023
13.1644
13.2289
13.2861
13.3545
13.466
13.3028
13.3259
13.3349
13.3959
13.3512
13.3966
13.4207
13.5171
13.4251
13.3581
13.3461
11.3931
11.4916
11.6614
11.6111
11.2501
11.4953
11.6591
11.6056
11.5386
11.7307
11.635
11.7465
11.5384
11.6418
11.8594
11.7249
9.1588
9.12455
9.03792
9.03108
8.99887
8.93993
8.97702
8.93539
8.82125
8.79144
8.82252
8.97662
8.61922
9.10713
9.1312
9.09584
6.39224
6.56562
6.42638
6.6537
6.69322
6.49958
6.47353
6.52489
6.16739
6.32949
6.3014
6.27095
6.17404
6.14342
6.11249
6.42185
3.9493
3.93296
3.82664
3.60833
3.8123
4.00786
3.76647
3.81865
3.84499
3.76425
3.82567
3.73457
3.76303
3.56081
3.56735
3.69383
1.5926
1.33757
1.29958
1.28305
1.52811
1.30897
1.19996
1.23257
1.3034
1.1602
1.20786
1.28306
1.47931
1.29249
1.18797
1.28323
1.01725
1.01241
1.01517
1.0153
1.01181
1.01515
1.01643
1.01572
1.01774
1.0175
1.01508
1.01261
1.01298
1.01313
1.01256
1.01433
1.00563
1.00554
1.00578
1.00578
1.00539
1.00589
1.00611
1.00605
1.00666
1.00708
1.00628
1.006
1.00606
1.00595
1.00635
1.00588
1.00998
1.00977
1.00974
1.00968
1.00948
1.00956
1.00962
1.00958
1.01009
1.00994
1.00961
1.00946
1.00934
1.00933
1.0093
1.00929
1.00732
1.00733
1.00731
1.00728
1.00728
1.00736
1.00737
1.00732
1.00759
1.00762
1.00748
1.00734
1.00724
1.00729
1.00727
1.0072
1.00707
1.00704
1.00701
1.00697
1.007
1.00698
1.00696
1.00692
1.0071
1.00707
1.00699
1.00691
1.00691
1.00688
1.00685
1.00679
1.00629
1.00629
1.00627
1.00625
1.00629
1.00628
1.00626
1.00623
1.00633
1.00631
1.00627
1.00621
1.00622
1.00621
1.00618
1.00613
1.0057
1.00569
1.00568
1.00565
1.00569
1.00568
1.00566
1.00563
1.0057
1.00568
1.00565
1.00561
1.00562
1.00561
1.00559
1.00555
1.00512
1.00511
1.0051
1.00509
1.00511
1.00511
1.00509
1.00507
1.00511
1.0051
1.00508
1.00505
1.00506
1.00505
1.00503
1.005
1.00457
1.00457
1.00456
1.00455
1.00457
1.00456
1.00455
1.00454
1.00456
1.00455
1.00454
1.00452
1.00453
1.00452
1.00451
1.00448
1.00405
1.00405
1.00404
1.00403
1.00405
1.00404
1.00404
1.00402
1.00404
1.00403
1.00402
1.00401
1.00402
1.00401
1.004
1.00398
1.00355
1.00354
1.00354
1.00353
1.00354
1.00354
1.00353
1.00352
1.00353
1.00353
1.00352
1.00351
1.00352
1.00351
1.00351
1.00349
1.00305
1.00305
1.00305
1.00305
1.00305
1.00305
1.00304
1.00304
1.00304
1.00304
1.00304
1.00303
1.00303
1.00303
1.00302
1.00301
1.00257
1.00257
1.00257
1.00257
1.00257
1.00257
1.00256
1.00256
1.00256
1.00256
1.00256
1.00255
1.00255
1.00255
1.00255
1.00254
1.0021
1.0021
1.00209
1.00209
1.00209
1.00209
1.00209
1.00209
1.00209
1.00209
1.00209
1.00208
1.00208
1.00208
1.00208
1.00207
1.00163
1.00163
1.00162
1.00162
1.00162
1.00162
1.00162
1.00162
1.00162
1.00162
1.00162
1.00162
1.00162
1.00162
1.00161
1.00161
1.00116
1.00116
1.00116
1.00116
1.00116
1.00116
1.00116
1.00115
1.00116
1.00116
1.00115
1.00115
1.00115
1.00115
1.00115
1.00115
1.00069
1.00069
1.00069
1.00069
1.00069
1.00069
1.00069
1.00069
1.00069
1.00069
1.00069
1.00069
1.00069
1.00069
1.00069
1.00069
1.00023
1.00023
1.00023
1.00023
1.00023
1.00023
1.00023
1.00023
1.00023
1.00023
1.00023
1.00023
1.00023
1.00023
1.00023
1.00023
13.1736
13.3196
13.3601
13.3979
13.2826
13.273
13.3103
13.2988
13.3353
13.3225
13.2952
13.2796
13.3413
13.3912
13.3808
13.3743
11.5847
11.4792
11.6192
11.3512
11.5879
11.4002
11.5317
11.4911
11.2976
11.5199
11.5758
11.7395
11.5243
11.5058
11.5995
11.4306
9.01902
9.01931
8.95674
8.79654
9.01255
8.8947
9.06837
9.06027
9.03281
9.01578
9.224
8.96811
9.06354
9.17849
9.12555
9.04283
6.43383
6.43237
6.4177
6.3258
6.52175
6.52904
6.49975
6.41964
6.74354
6.4636
6.5374
6.42638
6.56297
6.57562
6.49006
6.59739
4.01461
3.85866
3.87479
3.86599
3.87157
3.95922
3.93525
3.89348
3.92826
3.92155
3.90305
3.79134
4.00853
3.80656
3.786
3.67573
1.80707
1.76997
1.67856
1.75011
1.62709
1.85485
1.66989
1.56732
1.52212
1.66903
1.38914
1.29594
1.30636
1.41147
1.48184
1.48915
1.01201
1.01759
1.01151
1.01413
1.01699
1.01513
1.01208
1.00992
1.01633
1.01759
1.01542
1.01558
1.01545
1.01859
1.01488
1.0148
1.00482
1.0048
1.00446
1.00301
1.00504
1.00478
1.00468
1.00424
1.00513
1.00466
1.00511
1.00528
1.00538
1.00546
1.00523
1.00526
1.0096
1.00991
1.00905
1.00954
1.00965
1.0097
1.00905
1.00912
1.00965
1.00973
1.00932
1.00938
1.00961
1.00976
1.00938
1.00935
1.00707
1.0071
1.00672
1.00669
1.00715
1.00713
1.00683
1.00676
1.00716
1.00716
1.00696
1.00694
1.00717
1.00718
1.00701
1.00697
1.00697
1.00692
1.00672
1.00676
1.00694
1.00689
1.00671
1.0067
1.00694
1.00688
1.00674
1.00671
1.00692
1.00686
1.00674
1.00669
1.00623
1.00622
1.00612
1.00613
1.00624
1.00622
1.00613
1.00612
1.00623
1.00621
1.00613
1.0061
1.00622
1.00618
1.00611
1.00607
1.00567
1.00565
1.00558
1.00558
1.00566
1.00564
1.00558
1.00556
1.00565
1.00563
1.00557
1.00555
1.00564
1.00561
1.00556
1.00552
1.0051
1.00509
1.00505
1.00504
1.0051
1.00508
1.00505
1.00503
1.00509
1.00507
1.00504
1.00501
1.00508
1.00506
1.00502
1.00499
1.00457
1.00456
1.00453
1.00452
1.00456
1.00455
1.00453
1.00451
1.00456
1.00454
1.00452
1.0045
1.00455
1.00453
1.0045
1.00448
1.00405
1.00404
1.00403
1.00401
1.00405
1.00404
1.00402
1.00401
1.00404
1.00403
1.00401
1.004
1.00403
1.00402
1.004
1.00398
1.00355
1.00354
1.00353
1.00352
1.00354
1.00354
1.00353
1.00351
1.00354
1.00353
1.00352
1.00351
1.00353
1.00352
1.00351
1.0035
1.00305
1.00305
1.00304
1.00303
1.00305
1.00305
1.00304
1.00303
1.00305
1.00304
1.00304
1.00303
1.00305
1.00304
1.00303
1.00302
1.00257
1.00257
1.00256
1.00256
1.00257
1.00257
1.00256
1.00256
1.00257
1.00257
1.00256
1.00255
1.00257
1.00256
1.00255
1.00255
1.0021
1.0021
1.00209
1.00209
1.0021
1.00209
1.00209
1.00209
1.00209
1.00209
1.00209
1.00208
1.00209
1.00209
1.00208
1.00208
1.00163
1.00163
1.00162
1.00162
1.00163
1.00162
1.00162
1.00162
1.00162
1.00162
1.00162
1.00162
1.00162
1.00162
1.00162
1.00161
1.00116
1.00116
1.00116
1.00116
1.00116
1.00116
1.00116
1.00115
1.00116
1.00116
1.00116
1.00115
1.00116
1.00116
1.00115
1.00115
1.00069
1.00069
1.00069
1.00069
1.00069
1.00069
1.00069
1.00069
1.00069
1.00069
1.00069
1.00069
1.00069
1.00069
1.00069
1.00069
1.00023
1.00023
1.00023
1.00023
1.00023
1.00023
1.00023
1.00023
1.00023
1.00023
1.00023
1.00023
1.00023
1.00023
1.00023
1.00023
)
;

boundaryField
{
    inlet
    {
        type            zeroGradient;
    }
    outlet
    {
        type            fixedValue;
        value           uniform 1;
    }
    wall
    {
        type            zeroGradient;
    }
    procBoundary0to1
    {
        type            processor;
        value           nonuniform List<scalar> 
192
(
13.2636
13.3228
13.2636
13.207
11.8912
11.8617
11.8055
11.7828
9.25878
9.26966
9.19079
9.55387
6.83318
6.43367
6.63675
6.98551
3.89603
3.82713
4.35043
4.51273
1.38114
1.62963
1.59538
2.13102
1.0194
1.02368
1.00609
0.96242
1.00539
1.0051
1.00321
0.997658
1.00945
1.00919
1.00832
1.0088
1.00692
1.00672
1.00639
1.00632
1.00657
1.00646
1.00634
1.00625
1.00596
1.00589
1.00581
1.00573
1.00543
1.00538
1.00532
1.00525
1.00492
1.00488
1.00484
1.00479
1.00443
1.0044
1.00436
1.00432
1.00394
1.00392
1.00389
1.00386
1.00347
1.00345
1.00343
1.00341
1.003
1.00298
1.00297
1.00295
1.00253
1.00252
1.00251
1.0025
1.00207
1.00206
1.00205
1.00204
1.00161
1.0016
1.00159
1.00159
1.00115
1.00114
1.00114
1.00113
1.00069
1.00068
1.00068
1.00068
1.00023
1.00023
1.00023
1.00023
13.27
13.3235
13.2815
13.2708
12.0813
11.8028
11.7707
11.8118
9.40611
9.24663
8.98358
9.18219
6.25758
6.24052
6.32007
6.39096
3.69955
3.54307
3.8709
3.78795
1.50483
1.43186
1.32297
1.19634
1.00272
1.01601
1.01333
1.01498
1.00202
1.00416
1.00509
1.0058
1.0092
1.00912
1.00914
1.00924
1.00663
1.00676
1.00683
1.0069
1.00663
1.00661
1.00661
1.00661
1.00605
1.00604
1.00603
1.006
1.00551
1.0055
1.00549
1.00547
1.00499
1.00498
1.00497
1.00495
1.00448
1.00448
1.00447
1.00445
1.00399
1.00398
1.00397
1.00396
1.0035
1.0035
1.00349
1.00348
1.00302
1.00302
1.00301
1.00301
1.00255
1.00255
1.00254
1.00254
1.00208
1.00208
1.00208
1.00207
1.00162
1.00161
1.00161
1.00161
1.00115
1.00115
1.00115
1.00115
1.00069
1.00069
1.00069
1.00069
1.00023
1.00023
1.00023
1.00023
)
;
    }
    procBoundary0to2
    {
        type            processor;
        value           nonuniform List<scalar> 
192
(
13.3867
13.4406
13.3031
12.9421
11.6753
11.6502
11.6366
10.8244
9.16674
9.31619
9.62955
10.0374
6.55904
6.61389
6.74155
6.97461
3.66426
4.00182
4.2102
4.28856
1.52098
1.59073
1.71029
1.82905
1.01622
1.01448
1.01407
1.01561
1.00551
1.00498
1.00411
1.00315
1.00929
1.00902
1.0087
1.00887
1.00703
1.00681
1.00653
1.00637
1.00665
1.0065
1.00634
1.00622
1.006
1.0059
1.00579
1.00571
1.00544
1.00537
1.0053
1.00524
1.00492
1.00487
1.00482
1.00477
1.00442
1.00439
1.00435
1.00431
1.00393
1.00391
1.00388
1.00386
1.00346
1.00344
1.00342
1.0034
1.00299
1.00298
1.00296
1.00295
1.00252
1.00251
1.0025
1.0025
1.00206
1.00205
1.00205
1.00204
1.0016
1.0016
1.00159
1.00159
1.00114
1.00114
1.00114
1.00113
1.00069
1.00068
1.00068
1.00068
1.00023
1.00023
1.00023
1.00023
13.3114
13.2255
13.4207
13.3635
11.3872
11.2512
11.5032
11.5993
8.78501
8.82914
8.86419
8.96711
6.32841
6.6366
6.51388
6.53538
3.6291
3.52566
3.76018
3.75204
1.33339
1.25709
1.22252
1.30659
1.01523
1.01633
1.01089
1.0198
1.0066
1.00722
1.00598
1.00636
1.00979
1.00985
1.00935
1.00953
1.00743
1.00749
1.00731
1.00724
1.00698
1.00695
1.00685
1.00677
1.00624
1.00623
1.00617
1.0061
1.00562
1.0056
1.00556
1.00551
1.00504
1.00503
1.005
1.00496
1.0045
1.00449
1.00447
1.00445
1.00399
1.00398
1.00397
1.00396
1.0035
1.00349
1.00349
1.00347
1.00302
1.00301
1.00301
1.003
1.00254
1.00254
1.00254
1.00253
1.00208
1.00207
1.00207
1.00207
1.00161
1.00161
1.00161
1.0016
1.00115
1.00115
1.00115
1.00115
1.00069
1.00069
1.00069
1.00069
1.00023
1.00023
1.00023
1.00023
)
;
    }
}


// ************************************************************************* //
