/*--------------------------------*- C++ -*----------------------------------*\
| =========                 |                                                 |
| \\      /  F ield         | OpenFOAM: The Open Source CFD Toolbox           |
|  \\    /   O peration     | Version:  2506                                  |
|   \\  /    A nd           | Website:  www.openfoam.com                      |
|    \\/     M anipulation  |                                                 |
\*---------------------------------------------------------------------------*/
FoamFile
{
    version     2.0;
    format      ascii;
    arch        "LSB;label=32;scalar=64";
    class       surfaceScalarField;
    location    "0.04";
    object      phi;
}
// * * * * * * * * * * * * * * * * * * * * * * * * * * * * * * * * * * * * * //

dimensions      [0 3 -1 0 0 0 0];

oriented        oriented;

internalField   nonuniform List<scalar> 
3120
(
2.73472e-09
1.26797e-09
1.66913e-08
3.30228e-09
3.68955e-09
4.96984e-10
6.01004e-10
3.1071e-08
-1.82695e-09
-4.93346e-09
-4.39762e-09
3.96917e-08
-2.24333e-09
9.60547e-10
5.90416e-09
7.28189e-10
1.7948e-09
-6.53465e-10
2.50041e-08
2.74729e-09
-4.44896e-09
6.54546e-10
3.38541e-08
-2.92007e-10
6.09586e-09
1.30774e-08
4.61045e-09
1.99062e-08
3.3856e-09
1.82616e-09
2.29404e-08
-8.53856e-10
1.48466e-09
2.15836e-09
2.80686e-08
-1.85966e-09
3.21549e-10
3.65939e-08
3.34734e-09
2.40776e-08
5.62258e-09
2.41157e-08
3.48757e-10
1.46037e-10
4.48675e-08
1.41313e-09
2.74098e-08
2.09924e-08
-1.49668e-09
-1.97879e-09
1.70798e-08
2.19467e-10
2.86754e-09
-1.48524e-09
-2.29397e-09
2.98024e-08
3.55116e-09
1.63802e-09
4.68453e-09
2.89089e-08
2.97502e-09
1.61817e-09
4.25192e-09
3.24631e-09
-1.29863e-09
-1.32837e-09
2.34968e-08
2.15553e-09
3.50115e-09
2.18767e-10
2.65416e-08
-3.02813e-10
-3.56463e-09
2.51305e-08
1.20151e-09
2.48989e-08
8.89782e-10
3.96912e-10
1.98342e-08
4.91127e-10
-8.79612e-10
-3.55132e-09
3.36081e-08
4.84632e-09
-2.23759e-09
2.95409e-08
-5.67771e-10
3.33399e-08
-2.57927e-09
2.29843e-08
1.4186e-09
1.01032e-09
3.53436e-08
1.88482e-09
1.94761e-08
1.3233e-08
-1.10506e-09
1.20313e-09
1.69898e-08
3.35481e-10
-3.4362e-10
-3.38727e-09
-2.00105e-09
3.59768e-08
-1.89118e-09
2.76298e-09
6.70238e-09
1.20307e-08
4.02552e-09
5.72035e-09
3.49367e-08
-2.01701e-08
-3.01848e-09
-3.31689e-09
3.33897e-08
-2.35443e-09
3.60242e-09
-7.84281e-11
1.79981e-08
1.31327e-09
-3.31362e-09
3.74357e-08
5.55585e-09
2.83288e-08
-2.6518e-09
-1.11889e-09
1.83089e-08
1.97911e-09
-1.47218e-10
6.50552e-09
2.45196e-08
9.14892e-09
3.57971e-10
1.65732e-08
-1.11661e-09
5.53731e-08
4.05505e-09
1.30402e-08
3.14071e-09
-4.12289e-09
5.40351e-08
9.27115e-10
1.82784e-08
4.14867e-08
-1.23408e-09
2.63506e-09
1.8669e-08
-1.13234e-09
-1.94777e-09
-1.17784e-10
3.42694e-09
3.30225e-08
-1.58896e-09
-1.19947e-09
-4.20853e-10
1.31462e-08
3.87067e-10
2.59595e-09
3.51361e-08
-3.65225e-10
1.00049e-10
7.0041e-10
3.85589e-08
-3.33456e-09
-2.80565e-09
-9.42178e-10
2.52729e-08
1.05242e-09
-3.25848e-10
3.34826e-08
8.59412e-09
2.18865e-08
-1.0719e-09
1.25059e-09
1.74696e-08
1.36099e-09
-1.72047e-09
-5.19456e-09
2.94205e-08
1.96018e-09
-1.54331e-09
1.411e-08
2.86612e-10
6.90352e-08
-1.15646e-08
3.40737e-08
-2.92475e-09
-1.00672e-09
3.62449e-08
-2.65527e-09
1.83678e-08
4.77172e-08
7.61521e-10
-4.77521e-10
1.69741e-08
3.32178e-09
-1.91094e-09
1.13819e-09
3.60154e-10
3.15284e-08
7.57332e-10
-2.59168e-09
-5.44696e-09
2.4096e-08
-1.77299e-09
-1.51386e-09
3.00777e-08
3.85241e-09
2.3625e-09
4.74223e-09
2.72827e-08
3.69388e-09
-4.6413e-09
2.19967e-10
3.24169e-08
-1.99326e-10
-2.20013e-09
2.57938e-08
-9.25272e-09
2.56824e-08
-3.21739e-09
-1.09473e-09
2.75618e-08
-1.03777e-09
-5.01061e-09
-3.80513e-09
3.52388e-08
-3.57877e-09
4.56467e-10
1.00216e-08
-4.95521e-09
6.18148e-08
-8.70533e-09
3.92486e-08
8.14024e-10
-1.07523e-10
2.28311e-08
1.59081e-11
1.96717e-08
3.21326e-08
-3.78707e-09
2.67606e-10
1.91129e-08
1.57937e-09
-1.98697e-10
-2.04725e-09
-1.51068e-09
3.01719e-08
1.12733e-09
-2.82636e-09
-2.99259e-09
2.70993e-08
7.68441e-10
-3.92586e-09
2.35777e-08
4.08064e-09
-5.26743e-09
-1.73514e-09
3.29287e-08
1.62418e-09
-3.19189e-09
-8.34932e-10
2.96656e-08
-1.81802e-09
8.80571e-10
2.05468e-08
1.19283e-09
1.38223e-08
-4.57828e-09
-3.63024e-10
2.86182e-08
2.14975e-09
-1.0918e-09
-1.98816e-09
3.29056e-08
-1.93151e-09
-2.73889e-09
1.44807e-08
-2.00539e-09
6.11731e-08
-4.59438e-09
4.43736e-08
2.35313e-09
-4.11422e-09
1.98562e-08
-4.98668e-10
1.20324e-08
3.507e-08
-1.4834e-09
-1.29017e-09
2.36588e-08
-9.88053e-10
-7.84291e-10
2.34161e-10
5.82399e-12
3.16669e-08
-3.21832e-09
3.43444e-11
1.26278e-10
2.68361e-08
3.36768e-10
2.83673e-10
2.35192e-08
1.73822e-10
-5.3013e-10
-1.80578e-10
3.20355e-08
3.13734e-10
2.69422e-10
-3.45591e-10
2.92176e-08
7.85578e-11
1.96529e-10
2.06674e-08
-2.92754e-09
1.87209e-08
-7.38685e-10
-1.08783e-09
2.90545e-08
1.20964e-09
1.26029e-09
7.41915e-10
2.98192e-08
-2.57481e-09
-1.80416e-10
1.86928e-08
3.20921e-09
5.03188e-08
1.58938e-09
3.77004e-08
2.61251e-09
1.1188e-09
2.10592e-08
5.4665e-10
1.37936e-08
3.48786e-08
2.12748e-09
-4.71408e-09
2.5288e-08
-4.20756e-09
5.16495e-09
1.37411e-09
-1.63623e-09
3.13016e-08
2.75486e-09
-2.84456e-10
5.91899e-11
2.71716e-08
1.26394e-09
-1.26666e-11
2.49799e-08
-3.15273e-11
4.29615e-09
-2.07509e-09
2.93685e-08
-4.26811e-09
3.25613e-09
-8.64046e-10
2.94859e-08
1.1933e-09
6.6693e-10
2.21227e-08
-7.54271e-10
2.12319e-08
3.792e-09
-1.41288e-09
2.87125e-08
-4.11202e-09
3.49534e-09
4.86994e-10
2.87651e-08
6.4546e-10
7.32455e-10
2.14771e-08
4.63025e-09
4.24357e-08
5.76408e-09
3.14913e-08
-2.33793e-09
4.75719e-09
2.22848e-08
3.75868e-09
1.62862e-08
3.80357e-08
-7.08486e-11
-9.40196e-10
2.7823e-08
-1.48446e-09
-3.95279e-11
1.11024e-09
7.89087e-10
2.92354e-08
9.61391e-11
-1.54149e-10
1.5009e-09
2.74789e-08
-5.43584e-10
-9.07892e-10
2.72736e-08
-1.06276e-09
9.84041e-10
-5.94275e-10
2.879e-08
-7.51379e-10
2.18069e-09
6.08763e-10
2.847e-08
-5.8585e-10
6.35017e-10
2.57553e-08
-5.31157e-09
2.62486e-08
3.95175e-10
-1.26754e-10
2.82601e-08
-4.09992e-10
-2.37798e-10
1.9686e-09
2.80386e-08
-4.62242e-09
5.90686e-10
2.5906e-08
-1.01854e-09
3.25158e-08
1.99609e-09
2.84518e-08
2.52583e-10
-2.75174e-10
2.58044e-08
-7.21656e-09
2.42619e-08
3.1565e-08
2.17798e-10
-7.21693e-10
2.80292e-08
-6.85552e-10
9.8331e-10
5.46598e-10
1.15127e-10
2.83711e-08
4.20435e-10
-4.65328e-11
4.43932e-10
2.77141e-08
-8.58293e-11
-2.2733e-10
2.78742e-08
-4.74245e-10
7.53678e-10
-1.96031e-10
2.81823e-08
-6.71573e-10
1.01199e-09
2.77604e-10
2.80496e-08
-1.54104e-10
2.09703e-10
2.7156e-08
-1.62966e-09
2.75962e-08
6.3563e-10
2.9204e-10
2.80027e-08
-8.66092e-10
1.12186e-10
9.13925e-10
2.79261e-08
-1.49737e-09
4.01521e-10
2.73242e-08
-1.89069e-10
2.93645e-08
9.78552e-10
2.77785e-08
-4.15266e-10
-7.81931e-12
2.71645e-08
-2.34771e-09
2.67844e-08
2.91714e-08
4.88793e-10
1.14539e-10
2.80592e-08
-6.9834e-10
6.5048e-11
5.1149e-10
2.44868e-10
2.8123e-08
-1.9293e-11
1.72144e-10
2.10355e-10
2.78892e-08
-4.60304e-11
-2.79021e-11
2.80077e-08
-2.171e-10
4.79869e-10
1.92764e-10
2.80886e-08
-4.64257e-10
5.2141e-10
2.27445e-10
2.80259e-08
6.91514e-11
1.01003e-10
2.77178e-08
-4.62139e-10
2.79222e-08
3.82449e-10
3.37294e-10
2.80179e-08
-5.41858e-10
1.40596e-10
4.28573e-10
2.79671e-08
-4.15185e-10
1.91012e-10
2.77903e-08
-3.3937e-11
2.84021e-08
3.51659e-10
2.78422e-08
-2.39222e-10
2.8149e-11
2.76873e-08
-7.45333e-10
2.75976e-08
2.83448e-08
2.39669e-10
-4.04043e-12
2.79732e-08
-2.94328e-10
1.44676e-10
2.53103e-10
7.26812e-11
2.80148e-08
2.2089e-11
1.35126e-10
5.61224e-11
2.79402e-08
1.10376e-11
2.58697e-11
2.80026e-08
-1.24842e-10
2.53728e-10
7.36945e-11
2.80123e-08
-2.5517e-10
2.58005e-10
9.42273e-11
2.80003e-08
1.03386e-10
2.58613e-11
2.79028e-08
-1.17821e-10
2.79843e-08
2.48176e-10
1.68318e-10
2.80086e-08
-3.33428e-10
1.49909e-10
1.72176e-10
2.79877e-08
-4.24829e-11
7.78075e-11
2.7931e-08
-9.78113e-13
2.81172e-08
1.98591e-10
2.79199e-08
-1.87297e-10
7.08201e-11
2.78849e-08
-1.76303e-10
2.78633e-08
2.80953e-08
1.84352e-10
1.59487e-11
2.79337e-08
-2.08384e-10
4.7646e-11
1.80546e-10
3.29572e-11
2.79781e-08
7.634e-12
1.23856e-10
1.90388e-11
2.79625e-08
1.54463e-11
1.89278e-11
2.79901e-08
-5.84433e-11
1.74201e-10
4.24693e-11
2.79868e-08
-1.75292e-10
1.6832e-10
4.04866e-11
2.79988e-08
1.07698e-10
1.0764e-11
2.79718e-08
-3.38244e-11
2.79972e-08
1.7517e-10
7.69322e-11
2.80074e-08
-2.08316e-10
1.37275e-10
6.20365e-11
2.80041e-08
6.63152e-11
2.87488e-11
2.79841e-08
-4.91618e-12
2.80386e-08
1.36823e-10
2.79706e-08
-1.33701e-10
9.12438e-11
2.79678e-08
9.68124e-12
2.79621e-08
2.80309e-08
1.19255e-10
-2.38311e-12
2.79057e-08
-1.22737e-10
3.37935e-11
1.19207e-10
5.21126e-12
2.79601e-08
1.28362e-11
9.79042e-11
-2.81445e-12
2.7969e-08
1.76428e-11
2.73061e-12
2.79817e-08
-1.94066e-11
1.15431e-10
9.36304e-12
2.79715e-08
-1.11882e-10
1.13181e-10
9.26783e-12
2.79971e-08
9.24332e-11
-4.50334e-12
2.79942e-08
-1.7115e-11
2.80003e-08
1.16881e-10
2.70328e-11
2.80009e-08
-1.27988e-10
1.02163e-10
1.73871e-11
2.80108e-08
7.51809e-11
9.00864e-13
2.80057e-08
-1.44043e-11
2.80175e-08
9.69438e-11
2.79925e-08
-9.18232e-11
8.3662e-11
2.80012e-08
5.74926e-11
2.79994e-08
2.80176e-08
8.08777e-11
-9.26912e-12
2.78895e-08
-7.83524e-11
2.30169e-11
8.23231e-11
-6.41879e-12
2.7951e-08
1.41097e-11
7.48924e-11
-9.77921e-12
2.79709e-08
1.53929e-11
-5.77225e-12
2.79787e-08
-2.32815e-12
7.88543e-11
-4.07032e-12
2.79615e-08
-7.40353e-11
7.99159e-11
-5.19583e-12
2.79948e-08
7.32499e-11
-1.03569e-11
2.80014e-08
-1.43984e-11
2.80023e-08
7.95491e-11
2.76905e-12
2.79949e-08
-8.03135e-11
7.5419e-11
-3.12199e-12
2.80129e-08
6.70024e-11
-1.02149e-11
2.80139e-08
-1.67245e-11
2.80142e-08
6.96343e-11
2.79994e-08
-6.44039e-11
6.6833e-11
2.80141e-08
5.86766e-11
2.80149e-08
2.8017e-08
5.55228e-11
-1.16564e-11
2.78794e-08
-5.13884e-11
1.7601e-11
5.78641e-11
-1.0281e-11
2.79456e-08
1.33434e-11
5.59694e-11
-1.11714e-11
2.7971e-08
1.28629e-11
-8.90354e-12
2.79783e-08
4.56372e-12
5.51048e-11
-9.14724e-12
2.79543e-08
-5.03817e-11
5.72146e-11
-9.85092e-12
2.79922e-08
5.5808e-11
-1.19872e-11
2.80036e-08
-1.33265e-11
2.80041e-08
5.51747e-11
-6.58478e-12
2.79895e-08
-5.2435e-11
5.54895e-11
-9.79695e-12
2.80125e-08
5.35314e-11
-1.31095e-11
2.80169e-08
-1.60954e-11
2.80151e-08
5.0513e-11
2.80001e-08
-4.5455e-11
5.14793e-11
2.80183e-08
4.99098e-11
2.80209e-08
2.80191e-08
3.89162e-11
-1.11175e-11
2.78729e-08
-3.50101e-11
1.3724e-11
4.121e-11
-1.0416e-11
2.79421e-08
1.15216e-11
4.12801e-11
-1.0348e-11
2.79708e-08
1.05101e-11
-9.10822e-12
2.79788e-08
6.58757e-12
3.90023e-11
-1.00226e-11
2.79491e-08
-3.4863e-11
4.12633e-11
-1.04926e-11
2.79899e-08
4.16239e-11
-1.12829e-11
2.8004e-08
-1.16753e-11
2.80057e-08
3.88494e-11
-9.04527e-12
2.79851e-08
-3.54115e-11
4.06177e-11
-1.09025e-11
2.80111e-08
4.08697e-11
-1.25359e-11
2.80178e-08
-1.38398e-11
2.80166e-08
3.67267e-11
2.79983e-08
-3.2414e-11
3.88332e-11
2.80188e-08
3.93334e-11
2.80229e-08
2.8021e-08
2.75172e-11
-9.66906e-12
2.78687e-08
-2.42924e-11
1.07554e-11
2.94731e-11
-9.19301e-12
2.79398e-08
9.43753e-12
3.01389e-11
-8.8634e-12
2.79704e-08
8.43486e-12
-8.05771e-12
2.79797e-08
6.38752e-12
2.77623e-11
-9.19628e-12
2.79452e-08
-2.44357e-11
2.97845e-11
-9.45695e-12
2.7988e-08
3.06017e-11
-9.68412e-12
2.80039e-08
-9.68606e-12
2.80068e-08
2.76375e-11
-8.85032e-12
2.79816e-08
-2.45246e-11
2.96001e-11
-9.86403e-12
2.80096e-08
3.04762e-11
-1.06332e-11
2.80179e-08
-1.11326e-11
2.80177e-08
2.66379e-11
2.79959e-08
-2.31618e-11
2.8809e-11
2.80179e-08
2.99038e-11
2.80233e-08
2.80221e-08
1.94952e-11
-7.88977e-12
2.78658e-08
-1.70283e-11
8.2958e-12
2.10461e-11
-7.52911e-12
2.79382e-08
7.42986e-12
2.17741e-11
-7.16798e-12
2.79702e-08
6.60966e-12
-6.585e-12
2.79805e-08
5.42008e-12
1.97588e-11
-7.6945e-12
2.79425e-08
-1.72314e-11
2.14015e-11
-7.82578e-12
2.79864e-08
2.22268e-11
-7.83491e-12
2.80037e-08
-7.67282e-12
2.80076e-08
1.97079e-11
-7.55005e-12
2.79789e-08
-1.72015e-11
2.14169e-11
-8.11333e-12
2.80082e-08
2.23452e-11
-8.46636e-12
2.80177e-08
-8.55483e-12
2.80184e-08
1.92109e-11
2.79935e-08
-1.65236e-11
2.10797e-11
2.80167e-08
2.22286e-11
2.80231e-08
2.80227e-08
1.37126e-11
-6.12014e-12
2.78638e-08
-1.19114e-11
6.22146e-12
1.48794e-11
-5.84094e-12
2.79371e-08
5.63813e-12
1.5488e-11
-5.5237e-12
2.797e-08
5.01619e-12
-5.08853e-12
2.79811e-08
4.2594e-12
1.39438e-11
-6.05152e-12
2.79404e-08
-1.21035e-11
1.52009e-11
-6.1004e-12
2.79853e-08
1.58845e-11
-6.03216e-12
2.80034e-08
-5.83848e-12
2.80082e-08
1.39487e-11
-5.95988e-12
2.79769e-08
-1.20627e-11
1.5287e-11
-6.27735e-12
2.8007e-08
1.60632e-11
-6.43758e-12
2.80173e-08
-6.38407e-12
2.80188e-08
1.36914e-11
2.79915e-08
-1.16937e-11
1.51479e-11
2.80154e-08
1.61171e-11
2.80226e-08
2.80228e-08
9.43993e-12
-4.49044e-12
2.78625e-08
-8.17793e-12
4.46546e-12
1.02771e-11
-4.27929e-12
2.79363e-08
4.07896e-12
1.0734e-11
-4.02813e-12
2.79698e-08
3.62889e-12
-3.70705e-12
2.79815e-08
3.12487e-12
9.62055e-12
-4.47052e-12
2.7939e-08
-8.33616e-12
1.05366e-11
-4.47459e-12
2.79845e-08
1.10428e-11
-4.39261e-12
2.80032e-08
-4.23322e-12
2.80085e-08
9.65376e-12
-4.39578e-12
2.79754e-08
-8.31077e-12
1.06309e-11
-4.58167e-12
2.80061e-08
1.11989e-11
-4.66196e-12
2.80169e-08
-4.61394e-12
2.80191e-08
9.5181e-12
2.79899e-08
-8.09958e-12
1.05618e-11
2.80144e-08
1.12456e-11
2.80221e-08
2.80229e-08
6.19402e-12
-3.01023e-12
2.78616e-08
-5.35441e-12
2.95958e-12
6.76051e-12
-2.85842e-12
2.79358e-08
2.70977e-12
7.07845e-12
-2.67391e-12
2.79697e-08
2.40099e-12
-2.44961e-12
2.79817e-08
2.066e-12
6.32466e-12
-2.99871e-12
2.79381e-08
-5.47364e-12
6.95091e-12
-2.98081e-12
2.79839e-08
7.2994e-12
-2.91091e-12
2.8003e-08
-2.80461e-12
2.80087e-08
6.36731e-12
-2.93723e-12
2.79744e-08
-5.46707e-12
7.02946e-12
-3.03818e-12
2.80054e-08
7.40726e-12
-3.08907e-12
2.80166e-08
-3.09706e-12
2.80191e-08
6.2982e-12
2.79888e-08
-5.35021e-12
6.98951e-12
2.80137e-08
7.39337e-12
2.80217e-08
2.80229e-08
3.69667e-12
-1.62691e-12
2.78611e-08
-3.18008e-12
1.61914e-12
4.05912e-12
-1.52977e-12
2.79355e-08
1.46596e-12
4.2732e-12
-1.40583e-12
2.79696e-08
1.2704e-12
-1.2628e-12
2.79818e-08
1.0649e-12
3.79126e-12
-1.59845e-12
2.79375e-08
-3.26373e-12
4.18839e-12
-1.57244e-12
2.79835e-08
4.41723e-12
-1.51892e-12
2.80028e-08
-1.4551e-12
2.80087e-08
3.83271e-12
-1.54158e-12
2.79737e-08
-3.27553e-12
4.24794e-12
-1.5863e-12
2.80049e-08
4.48453e-12
-1.60967e-12
2.80164e-08
-1.64884e-12
2.80192e-08
3.8075e-12
2.79881e-08
-3.22466e-12
4.22813e-12
2.80132e-08
4.44812e-12
2.80214e-08
2.80229e-08
1.85167e-12
-4.61825e-13
-1.54156e-12
5.30837e-13
2.0807e-12
-3.93711e-13
4.33828e-13
2.22781e-12
-3.1603e-13
3.17709e-13
-2.33881e-13
2.0272e-13
1.92772e-12
-3.90012e-13
-1.62241e-12
2.16283e-12
-3.56617e-13
2.31086e-12
-3.13498e-13
-2.69476e-13
1.97067e-12
-3.17005e-13
-1.6623e-12
2.20892e-12
-3.18668e-13
2.35515e-12
-3.15258e-13
-3.3328e-13
1.97853e-12
-1.66465e-12
2.21579e-12
2.33947e-12
-5.13222e-09
-4.5463e-09
3.68482e-08
-2.01977e-10
-4.7604e-09
-1.67402e-09
2.5541e-08
-6.28186e-10
-5.17036e-09
-9.73786e-10
2.23876e-08
-9.15951e-10
1.8581e-09
1.27481e-08
1.55273e-10
8.14543e-09
1.28308e-09
1.93584e-08
-9.76543e-10
-1.51352e-09
3.87107e-08
-1.41737e-10
-2.10437e-09
2.65967e-08
-2.79604e-09
2.9982e-08
2.80227e-09
-1.50262e-09
3.79365e-08
-2.87992e-09
-1.91993e-09
4.04457e-08
-4.5209e-10
1.31652e-09
2.46891e-08
2.73883e-09
1.96568e-08
2.9055e-09
3.1462e-08
3.60303e-09
2.7695e-08
1.05563e-09
3.87432e-08
3.37415e-08
-5.94976e-09
1.55791e-09
4.35921e-08
-2.39367e-09
-5.62791e-09
4.42772e-10
2.54064e-08
-6.30048e-10
1.14753e-09
1.5329e-10
1.30111e-08
2.44774e-09
8.5363e-11
1.29719e-08
1.05791e-09
-8.13883e-09
-2.37663e-09
3.16292e-08
-5.66117e-09
-3.08707e-09
3.97629e-08
9.17352e-10
2.55664e-10
1.99158e-08
-1.51351e-09
3.46538e-08
-4.72926e-09
-9.35908e-11
4.02849e-08
1.55452e-09
1.17665e-09
2.98982e-08
-1.46186e-09
-2.32829e-09
3.02894e-08
5.17673e-10
1.66549e-08
-2.73206e-09
3.34077e-08
-5.67392e-09
2.64179e-08
2.92939e-09
2.40798e-08
3.68658e-08
2.12183e-09
2.82894e-09
3.7198e-08
1.43202e-09
2.46229e-09
2.42291e-09
2.1728e-08
9.15076e-10
-2.16239e-10
4.40963e-10
1.51029e-08
1.45793e-10
1.68623e-09
1.15783e-08
-1.73394e-10
2.67009e-09
2.78082e-09
2.91697e-08
-1.23775e-09
2.08781e-09
4.40058e-08
1.24582e-09
2.38123e-09
1.54919e-08
-6.25043e-10
3.58564e-08
7.96426e-10
1.66332e-09
4.05236e-08
-6.82309e-10
-2.76196e-09
3.62267e-08
-2.31982e-09
-3.47442e-09
3.77826e-08
-1.31542e-09
1.70046e-08
-5.94212e-09
4.40425e-08
9.83274e-11
1.15645e-08
1.04085e-09
1.72061e-08
3.60263e-08
-4.10863e-09
-1.2928e-09
4.28789e-08
-1.89675e-10
3.56636e-09
9.10967e-10
1.28196e-08
3.22375e-10
-3.64602e-09
-7.59029e-11
2.49644e-08
-2.57321e-09
9.31714e-10
5.37525e-09
4.9295e-10
7.59905e-09
3.8474e-09
1.66589e-08
1.01374e-09
3.81285e-09
4.76892e-08
-1.58617e-09
2.31678e-09
1.56992e-08
4.11451e-09
2.77529e-08
-5.31506e-09
-9.10917e-11
4.99638e-08
8.17748e-10
2.24519e-09
3.16616e-08
5.20202e-10
2.84838e-09
3.75486e-08
-2.17002e-09
2.51703e-08
7.03304e-10
4.56109e-08
3.38107e-10
2.03509e-08
-4.69092e-09
2.9011e-08
2.82533e-08
1.05378e-09
2.31155e-09
4.05825e-08
-1.06051e-09
3.7543e-09
-6.17107e-10
1.04557e-08
2.80561e-10
5.51374e-09
3.07592e-10
2.42444e-08
-1.34704e-09
-1.83553e-09
1.91641e-08
-3.11778e-09
-5.98558e-09
-4.82004e-10
2.54867e-08
6.36756e-09
2.95453e-09
3.17645e-08
-1.24441e-09
-7.9852e-10
2.44173e-08
1.60753e-09
2.67593e-08
2.85263e-09
1.38544e-09
4.57322e-08
-1.57342e-09
1.94095e-09
3.71012e-08
2.14382e-09
4.91941e-09
2.81134e-08
8.29063e-10
2.70548e-08
4.99995e-09
4.05852e-08
3.83109e-10
2.65677e-08
-2.49903e-09
3.92288e-08
2.82349e-08
5.13381e-09
7.14732e-10
3.63445e-08
-1.53838e-09
6.63539e-10
1.58311e-10
1.69016e-08
-2.134e-09
-3.2082e-10
1.40647e-09
2.58975e-08
-2.07519e-09
1.74738e-09
1.94642e-08
-7.88935e-10
6.15094e-09
2.42976e-09
1.77508e-08
3.15725e-09
2.29844e-09
3.2618e-08
-9.89516e-10
2.95336e-10
2.96752e-08
-3.25529e-10
2.94669e-08
4.71904e-09
-2.0384e-09
4.56461e-08
-9.69282e-10
-1.96782e-09
4.70558e-08
-1.1994e-09
2.72601e-10
2.83663e-08
4.45887e-10
2.72338e-08
5.88643e-09
3.03492e-08
2.95759e-09
2.71744e-08
-2.51154e-09
4.59866e-08
2.89707e-08
1.72169e-09
3.79369e-09
3.06949e-08
-4.50221e-11
-1.34921e-09
-1.75564e-10
2.13777e-08
-1.2295e-09
1.09871e-10
-6.06366e-11
2.33825e-08
1.11656e-09
-3.20858e-11
1.86006e-08
1.76502e-11
-1.72072e-09
4.2483e-09
1.94045e-08
-9.29934e-10
-2.8594e-10
3.19377e-08
1.68241e-10
-4.9607e-09
3.34771e-08
1.19466e-09
2.87223e-08
-1.07139e-10
-2.65424e-10
4.9391e-08
-5.72102e-09
-3.10887e-09
5.54928e-08
-5.07725e-09
-1.0032e-08
3.27939e-08
-7.00549e-11
2.4631e-08
-1.81049e-09
3.11608e-08
-4.50949e-09
3.27695e-08
-4.28511e-09
3.99119e-08
2.83853e-08
-4.05291e-10
-2.15243e-09
3.04462e-08
2.80643e-09
-1.27695e-09
-4.28894e-09
2.3376e-08
3.16231e-09
1.80946e-09
-4.71029e-09
2.07967e-08
4.2099e-09
-4.84697e-09
1.70059e-08
4.04411e-09
-6.52079e-09
-4.22437e-09
2.79973e-08
-3.04098e-09
-6.35017e-09
3.05194e-08
1.79326e-09
-4.8859e-09
2.88185e-08
-2.87903e-09
2.42799e-08
-1.25439e-09
-1.21882e-09
4.76399e-08
5.01467e-09
-1.13235e-09
4.40063e-08
4.59504e-09
-2.85387e-09
3.11818e-08
-1.56169e-09
2.37969e-08
-3.37495e-09
3.63944e-08
-4.52624e-09
3.62886e-08
1.3012e-09
3.12634e-08
2.67785e-08
2.18182e-09
-2.52893e-10
2.79585e-08
5.58913e-10
1.2287e-09
-7.05797e-10
2.43947e-08
6.40377e-10
1.33077e-09
-7.24494e-10
2.07621e-08
6.57156e-10
-6.47841e-10
1.6923e-08
5.77382e-10
-1.90631e-09
-2.03249e-09
3.16833e-08
-7.68762e-10
-2.22697e-09
3.09033e-08
6.331e-10
-1.08675e-09
2.77791e-08
-1.05557e-10
2.36196e-08
2.8797e-09
1.93951e-12
4.27259e-08
5.36861e-09
-2.33161e-10
3.9524e-08
3.27433e-09
5.34526e-11
3.21362e-08
-1.12858e-10
2.66689e-08
-4.58942e-11
3.81839e-08
9.69953e-10
3.67596e-08
4.60375e-10
3.26235e-08
2.84553e-08
1.29488e-10
-6.82428e-10
2.77754e-08
7.36093e-10
5.15515e-10
-8.74116e-10
2.40812e-08
8.01703e-10
7.44592e-10
-8.94549e-10
2.06586e-08
7.6905e-10
-8.18266e-10
1.71264e-08
6.74166e-10
-1.08298e-09
-1.09442e-09
3.31783e-08
-9.87251e-11
-1.23656e-09
3.02817e-08
6.75424e-10
-8.52601e-10
2.69631e-08
-4.52765e-10
2.32581e-08
8.76583e-10
4.79512e-10
4.02755e-08
2.51324e-09
2.83526e-10
3.63675e-08
1.96583e-09
3.11144e-10
3.15202e-08
1.607e-10
2.71555e-08
-6.0285e-10
3.93811e-08
2.73617e-10
3.63695e-08
6.06399e-10
3.26216e-08
2.88187e-08
5.68641e-10
-5.99881e-11
2.69296e-08
3.37144e-10
6.01693e-10
-8.92281e-11
2.37637e-08
3.73701e-10
6.45226e-10
-8.16653e-11
2.03449e-08
3.51887e-10
-6.89908e-11
1.68458e-08
2.96731e-10
6.46189e-11
-1.06574e-11
3.30644e-08
2.24095e-10
-4.89936e-11
3.00821e-08
4.04038e-10
3.52921e-11
2.66663e-08
9.34527e-11
2.30356e-08
7.83621e-10
6.04903e-10
3.88764e-08
1.17336e-09
5.36628e-10
3.53924e-08
9.36796e-10
4.72501e-10
3.13199e-08
3.64559e-10
2.72796e-08
8.85191e-11
3.97886e-08
2.59123e-10
3.66881e-08
2.9176e-10
3.30047e-08
2.91759e-08
1.25514e-10
-1.07834e-10
2.67154e-08
1.96551e-10
2.68338e-10
-1.17864e-10
2.35283e-08
2.10456e-10
3.15744e-10
-1.16024e-10
2.02127e-08
2.00867e-10
-1.05829e-10
1.67965e-08
1.76543e-10
-7.65442e-12
-6.78504e-11
3.3032e-08
1.54117e-10
-8.94222e-11
2.9892e-08
2.58248e-10
-6.10114e-11
2.65072e-08
-2.70511e-11
2.29599e-08
2.98905e-10
2.97645e-10
3.8212e-08
5.33723e-10
2.59446e-10
3.48088e-08
4.94467e-10
2.14074e-10
3.10842e-08
1.59469e-10
2.72542e-08
-5.12931e-12
3.99788e-08
1.43626e-10
3.6725e-08
2.05366e-10
3.30979e-08
2.92976e-08
1.20479e-10
-4.17388e-11
2.65293e-08
1.07355e-10
1.77779e-10
-4.88154e-11
2.34046e-08
1.15324e-10
2.04485e-10
-5.10103e-11
2.01247e-08
1.12378e-10
-5.14576e-11
1.67411e-08
1.02988e-10
5.26252e-11
-3.09844e-12
3.29408e-08
1.21607e-10
-2.18912e-11
2.97961e-08
1.67657e-10
-1.95848e-11
2.64298e-08
-1.39992e-11
2.29149e-08
1.73741e-10
1.61013e-10
3.78742e-08
2.69485e-10
1.3759e-10
3.45537e-08
2.65525e-10
1.0819e-10
3.09606e-08
7.43967e-11
2.72231e-08
3.07515e-11
4.00448e-08
1.017e-10
3.67478e-08
1.34885e-10
3.31403e-08
2.93513e-08
5.63948e-11
-3.40401e-11
2.64445e-08
6.24309e-11
9.55054e-11
-3.75248e-11
2.3336e-08
6.70627e-11
1.1572e-10
-3.99912e-11
2.00779e-08
6.6665e-11
-4.2165e-11
1.67128e-08
6.35303e-11
3.56206e-11
-1.55771e-11
3.28867e-08
7.62979e-11
-2.37978e-11
2.97417e-08
1.04002e-10
-2.57064e-11
2.63879e-08
-2.49139e-11
2.28898e-08
8.80781e-11
6.74363e-11
3.77031e-08
1.38934e-10
5.26247e-11
3.44265e-08
1.47513e-10
3.46125e-11
3.08918e-08
2.05589e-11
2.71972e-08
2.85211e-11
4.00544e-08
6.73026e-11
3.67462e-08
8.91044e-11
3.31474e-08
2.93672e-08
3.40752e-11
-2.44892e-11
2.63969e-08
3.80137e-11
5.70991e-11
-2.76681e-11
2.32994e-08
4.11782e-11
7.11444e-11
-3.02284e-11
2.00523e-08
4.1858e-11
-3.25812e-11
1.66968e-08
4.14581e-11
2.57031e-11
-1.51483e-11
3.28517e-08
5.06124e-11
-2.12678e-11
2.97104e-08
6.75397e-11
-2.3041e-11
2.63638e-08
-2.3847e-11
2.28746e-08
4.86814e-11
2.20908e-11
3.76173e-08
7.78891e-11
1.49528e-11
3.43612e-08
8.58679e-11
9.18819e-12
3.08517e-08
-1.83847e-14
2.7179e-08
2.16304e-11
4.0046e-08
4.52743e-11
3.67361e-08
6.08326e-11
3.31434e-08
2.93691e-08
1.99714e-11
-1.88987e-11
2.63712e-08
2.45984e-11
3.48025e-11
-2.14136e-11
2.32791e-08
2.68954e-11
4.4971e-11
-2.3504e-11
2.00378e-08
2.78706e-11
-2.54536e-11
1.66874e-08
2.84552e-11
1.76936e-11
-1.37662e-11
3.28289e-08
3.36573e-11
-1.7583e-11
2.96906e-08
4.48135e-11
-1.96508e-11
2.63487e-08
-2.10311e-11
2.28647e-08
2.75864e-11
5.98446e-12
3.757e-08
4.48341e-11
1.68803e-12
3.43247e-08
5.26291e-11
-4.4265e-12
3.08287e-08
-8.86557e-12
2.71671e-08
1.62215e-11
4.00345e-08
3.18281e-11
3.67248e-08
4.15581e-11
3.31354e-08
2.9366e-08
1.24698e-11
-1.44878e-11
2.63565e-08
1.6657e-11
2.22754e-11
-1.64989e-11
2.32674e-08
1.83145e-11
2.96979e-11
-1.81241e-11
2.00292e-08
1.92845e-11
-1.96527e-11
1.66817e-08
2.01482e-11
1.22328e-11
-1.15576e-11
3.28138e-08
2.28618e-11
-1.42949e-11
2.96777e-08
3.04554e-11
-1.59527e-11
2.63388e-08
-1.72747e-11
2.2858e-08
1.64471e-11
-1.84803e-12
3.75439e-08
2.77367e-11
-5.04994e-12
3.43043e-08
3.36268e-11
-7.8472e-12
3.08147e-08
-1.09394e-11
2.7159e-08
1.16171e-11
4.00227e-08
2.19914e-11
3.67144e-08
2.92467e-11
3.31281e-08
2.93617e-08
8.0506e-12
-1.10646e-11
2.63479e-08
1.16094e-11
1.47366e-11
-1.26323e-11
2.32603e-08
1.28332e-11
2.01407e-11
-1.38366e-11
2.0024e-08
1.36773e-11
-1.49958e-11
1.6678e-08
1.45147e-11
8.4832e-12
-9.37949e-12
3.28036e-08
1.56999e-11
-1.12951e-11
2.9669e-08
2.09879e-11
-1.2645e-11
2.63321e-08
-1.3774e-11
2.28533e-08
1.03173e-11
-4.20235e-12
3.75284e-08
1.77911e-11
-6.23052e-12
3.42918e-08
2.23761e-11
-8.41888e-12
3.08058e-08
-1.03968e-11
2.71534e-08
8.34689e-12
4.00133e-08
1.57098e-11
3.67062e-08
2.07913e-11
3.31217e-08
2.93575e-08
5.36659e-12
-8.34173e-12
2.63426e-08
8.21629e-12
9.99061e-12
-9.53138e-12
2.32559e-08
9.12325e-12
1.38998e-11
-1.04119e-11
2.00207e-08
9.79656e-12
-1.12727e-11
1.66757e-08
1.05051e-11
5.88359e-12
-7.3888e-12
3.27968e-08
1.0854e-11
-8.77432e-12
2.96632e-08
1.45864e-11
-9.81641e-12
2.63276e-08
-1.06968e-11
2.28501e-08
6.69946e-12
-4.57419e-12
3.7519e-08
1.18418e-11
-6.05849e-12
3.4284e-08
1.52799e-11
-7.53405e-12
3.08e-08
-8.76737e-12
2.71496e-08
6.05303e-12
4.00059e-08
1.12205e-11
3.66997e-08
1.47581e-11
3.31166e-08
2.93538e-08
3.62121e-12
-6.16091e-12
2.63393e-08
5.81448e-12
6.83553e-12
-7.03944e-12
2.32532e-08
6.47602e-12
9.62194e-12
-7.67689e-12
2.00185e-08
6.99287e-12
-8.29848e-12
1.66741e-08
7.52905e-12
4.05348e-12
-5.64749e-12
3.27923e-08
7.4971e-12
-6.64285e-12
2.96593e-08
1.01417e-11
-7.41212e-12
2.63245e-08
-8.05855e-12
2.28479e-08
4.45927e-12
-4.06376e-12
3.75129e-08
8.03948e-12
-5.11859e-12
3.42789e-08
1.05515e-11
-6.09359e-12
3.07961e-08
-6.86958e-12
2.71468e-08
4.31945e-12
4.00003e-08
7.91533e-12
3.66948e-08
1.03991e-11
3.31127e-08
2.9351e-08
2.42383e-12
-4.39121e-12
2.63372e-08
4.02999e-12
4.62667e-12
-5.01661e-12
2.32514e-08
4.50281e-12
6.56268e-12
-5.46572e-12
2.00171e-08
4.87181e-12
-5.89641e-12
1.66731e-08
5.25295e-12
2.74315e-12
-4.12803e-12
3.27892e-08
5.09736e-12
-4.82173e-12
2.96567e-08
6.93991e-12
-5.36358e-12
2.63225e-08
-5.81469e-12
2.28464e-08
2.9793e-12
-3.19803e-12
3.7509e-08
5.43557e-12
-3.92102e-12
3.42755e-08
7.20616e-12
-4.55302e-12
3.07935e-08
-5.05273e-12
2.71449e-08
2.98985e-12
3.99964e-08
5.45766e-12
3.66913e-08
7.18135e-12
3.31098e-08
2.93489e-08
1.56168e-12
-2.92086e-12
2.63359e-08
2.64063e-12
3.00969e-12
-3.33559e-12
2.32503e-08
2.95532e-12
4.28418e-12
-3.63314e-12
2.00163e-08
3.20026e-12
-3.91246e-12
1.66724e-08
3.45556e-12
1.77936e-12
-2.78006e-12
3.27873e-08
3.32278e-12
-3.2336e-12
2.9655e-08
4.54456e-12
-3.58899e-12
2.63211e-08
-3.88235e-12
2.28454e-08
1.92709e-12
-2.21743e-12
3.75065e-08
3.53698e-12
-2.68063e-12
3.42734e-08
4.71918e-12
-3.07962e-12
3.07918e-08
-3.38835e-12
2.71436e-08
1.97069e-12
3.99937e-08
3.58948e-12
3.66889e-08
4.73312e-12
3.31079e-08
2.93474e-08
9.4434e-13
-1.65422e-12
2.63351e-08
1.51766e-12
1.80438e-12
-1.89277e-12
2.32496e-08
1.6998e-12
2.55528e-12
-2.06381e-12
2.00157e-08
1.84247e-12
-2.22316e-12
1.6672e-08
1.99284e-12
1.07462e-12
-1.541e-12
3.27861e-08
1.99016e-12
-1.79894e-12
2.9654e-08
2.71773e-12
-2.00047e-12
2.63203e-08
-2.16586e-12
2.28448e-08
1.15926e-12
-1.19032e-12
3.7505e-08
2.11553e-12
-1.45105e-12
3.42721e-08
2.82681e-12
-1.67102e-12
3.07907e-08
-1.83721e-12
2.71428e-08
1.19425e-12
3.9992e-08
2.15838e-12
3.66875e-08
2.84807e-12
3.31067e-08
2.93465e-08
4.7038e-13
-6.48248e-13
6.53148e-13
9.15235e-13
-7.49239e-13
7.3068e-13
1.27185e-12
-8.20616e-13
7.93071e-13
-8.84995e-13
8.5873e-13
5.34532e-13
-5.02699e-13
1.01951e-12
-6.10053e-13
1.38126e-12
-6.92663e-13
-7.5833e-13
5.77328e-13
-2.50599e-13
1.08872e-12
-3.5885e-13
1.45126e-12
-4.47098e-13
-5.10786e-13
5.96149e-13
1.1134e-12
1.47206e-12
-3.09157e-09
-1.03486e-08
3.9618e-08
-6.15841e-10
2.56248e-09
2.84066e-08
-5.54474e-10
3.00785e-09
3.51138e-08
3.08606e-09
3.23026e-08
5.57582e-10
-2.84511e-09
1.45131e-08
-9.73551e-10
-2.94048e-09
3.67513e-08
3.18207e-10
7.58218e-10
3.52904e-08
1.363e-09
3.91845e-08
4.81766e-10
7.34878e-11
1.52994e-08
9.17966e-10
-2.33739e-09
2.49894e-08
8.94009e-10
-3.41957e-09
3.49444e-08
-3.05936e-09
3.84245e-08
-8.6937e-10
2.16874e-08
4.21694e-10
1.72678e-08
2.48031e-10
2.13219e-08
2.42363e-08
1.50332e-09
4.62471e-11
3.58362e-08
-1.492e-09
2.62272e-09
2.89298e-08
2.77865e-09
1.97369e-09
2.85734e-08
-5.44845e-09
5.0054e-08
7.77873e-10
3.97435e-09
9.17707e-09
-1.52305e-09
-2.77736e-09
4.44523e-08
6.02231e-10
-1.47934e-09
3.66181e-08
-6.56979e-09
4.61358e-08
-2.41347e-09
-8.72387e-09
3.28588e-08
-1.05598e-09
7.43565e-10
2.0111e-08
-2.74749e-09
-1.78427e-10
3.5335e-08
8.62658e-09
2.09525e-08
1.40616e-09
1.54828e-08
-8.38971e-10
2.38076e-08
3.28956e-09
1.999e-08
5.00044e-08
1.50051e-10
-3.41842e-11
3.71775e-08
6.25989e-10
5.97149e-09
2.27295e-08
2.06445e-09
-3.04965e-09
3.00251e-08
-8.14873e-09
6.6605e-08
2.11717e-09
-2.706e-09
1.06468e-08
-3.3359e-09
3.37221e-09
5.25047e-08
1.02656e-10
-3.7752e-09
3.39051e-08
1.80306e-09
3.85003e-08
-9.94019e-10
-1.94269e-09
3.32353e-08
-6.05423e-10
2.51668e-09
2.0578e-08
2.91388e-09
2.22807e-09
2.58124e-08
-1.05955e-09
2.68583e-08
-1.48022e-09
1.45033e-08
1.43372e-09
2.15192e-08
1.91382e-09
2.57635e-08
3.40005e-08
1.96178e-10
-3.82351e-09
4.06172e-08
3.40106e-10
-3.50349e-09
2.59518e-08
1.79099e-09
-1.93124e-09
3.05618e-08
-3.92077e-09
7.11245e-08
1.84868e-10
-3.97086e-09
1.09316e-08
4.21032e-10
2.16889e-09
4.65962e-08
1.10149e-09
-7.30882e-10
3.20243e-08
-1.96024e-10
3.41149e-08
2.63225e-09
5.69998e-09
1.8359e-08
-8.20735e-10
-1.25065e-09
2.74505e-08
1.59813e-09
1.06028e-09
2.16024e-08
-2.86923e-09
2.8891e-08
-7.30251e-10
1.94787e-08
6.10287e-10
1.7339e-08
-1.35603e-09
2.91771e-08
2.74529e-08
1.69902e-09
5.88076e-09
3.20162e-08
1.74144e-11
-3.92179e-09
3.15217e-08
2.88812e-10
-1.4275e-09
3.17848e-08
-8.72593e-10
6.97654e-08
-8.91031e-10
-1.17736e-09
1.91614e-08
3.57398e-10
1.3985e-09
4.00274e-08
4.46494e-10
7.48969e-10
2.97587e-08
1.91701e-09
2.71937e-08
-3.96335e-11
-2.15661e-09
1.80309e-08
1.17167e-10
2.91286e-09
2.57793e-08
1.03676e-09
2.50496e-09
1.89268e-08
2.28839e-09
3.06869e-08
2.75676e-09
9.5366e-09
4.82133e-11
2.37178e-08
2.0644e-09
2.78929e-08
3.71345e-08
5.79562e-10
9.72253e-09
2.02588e-08
1.3846e-09
-4.19684e-09
3.48233e-08
-1.14997e-09
2.94725e-10
3.38673e-08