/*--------------------------------*- C++ -*----------------------------------*\
| =========                 |                                                 |
| \\      /  F ield         | OpenFOAM: The Open Source CFD Toolbox           |
|  \\    /   O peration     | Version:  2506                                  |
|   \\  /    A nd           | Website:  www.openfoam.com                      |
|    \\/     M anipulation  |                                                 |
\*---------------------------------------------------------------------------*/
FoamFile
{
    version     2.0;
    format      ascii;
    arch        "LSB;label=32;scalar=64";
    class       volVectorField;
    location    "0.04";
    object      stored_U;
}
// * * * * * * * * * * * * * * * * * * * * * * * * * * * * * * * * * * * * * //

dimensions      [0 1 -1 0 0 0 0];

internalField   nonuniform List<vector> 
1152
(
(-9.89441e-05 -0.000379029 0.00799862)
(0.00142153 0.000959661 0.0138593)
(-0.00187934 -0.000783946 0.0159912)
(0.000197632 -0.000105635 0.00406166)
(0.000112979 0.000366491 0.010625)
(-0.000767619 0.000374888 0.0150376)
(-0.000984136 0.000300202 0.0102342)
(0.000833278 0.00123863 0.00981074)
(0.00151112 0.000525269 0.0139251)
(0.00126178 0.000625097 0.00991667)
(-0.0001351 0.00241151 0.0155688)
(-0.000101729 0.00247253 0.0174381)
(0.000852467 0.000347712 0.0111012)
(0.00228532 -0.003077 0.0274213)
(0.000106021 -0.000327751 0.0144033)
(0.000568011 0.00356593 0.0128793)
(-0.000246468 -0.000899879 0.0147632)
(-0.000796633 -0.00198156 0.0235869)
(0.000824513 0.000902322 0.0301453)
(-3.68275e-05 0.0001091 0.00401646)
(-0.00104646 -0.00117719 0.024209)
(0.00152602 -0.000486846 0.0247562)
(0.000327778 0.000249819 0.00317572)
(-0.00158139 0.00102718 0.0183704)
(0.000176537 -5.83846e-05 0.0102831)
(0.000358772 -0.00121548 0.0276832)
(0.0028244 -0.00270284 0.0299024)
(-0.000118352 0.000244612 0.0021318)
(-0.00122942 0.000993883 0.0209868)
(-0.000142001 0.000393388 0.00890853)
(0.0021974 0.00093937 0.0182859)
(0.000911251 0.00574667 0.0151323)
(-0.000429672 0.000871178 0.0126994)
(-0.00202175 -0.000389792 0.0172872)
(0.00133171 0.000221972 0.0075654)
(-3.13012e-05 0.000140015 0.00069811)
(-0.000718609 -0.000184891 0.00651069)
(-0.000783116 -0.000394069 0.0123001)
(0.0032718 0.00229236 0.03402)
(0.000195718 -0.00179963 0.0205557)
(-0.00167649 -0.00198216 0.0219136)
(-0.000602529 0.00139614 0.0188063)
(0.000942676 -0.000135805 0.0078341)
(0.0040921 0.00241524 0.042523)
(0.000237448 0.000355057 0.0131345)
(0.000705411 0.00118655 0.0383622)
(0.000561384 -0.000466802 0.00975194)
(-7.16271e-05 -0.000705466 0.00322471)
(0.000893169 0.0012505 0.0170817)
(-0.00076263 0.00227075 0.0375611)
(-0.0006205 -0.000169584 0.01364)
(-0.00137513 0.00141444 0.0273883)
(0.00158863 0.00145857 0.0400984)
(-0.000696113 0.000555045 0.0167531)
(-0.000822812 0.000190374 0.0210655)
(0.00173534 0.00361061 0.0222139)
(-0.000433256 0.00060787 0.00926046)
(-0.000864603 -0.000809929 0.0191287)
(0.00128097 0.000366416 0.0185652)
(-0.000117803 0.000130691 0.000957782)
(-0.000439513 -0.000209816 0.00829023)
(-0.00392238 -0.000652859 0.0413432)
(0.00104171 -7.21089e-05 0.0202603)
(0.00327346 -0.00777617 0.0459756)
(-0.00112859 0.000429791 0.0152759)
(0.000628317 5.43447e-05 0.0107373)
(-0.000253777 -0.000471882 0.00945353)
(-0.000861352 -0.0014048 0.0200748)
(-0.000256572 0.00126112 0.0158917)
(-0.000155687 0.000380621 0.0232924)
(-0.00120877 -0.00326165 0.0286009)
(0.00078052 -0.000894572 0.0123842)
(-0.000334701 0.00152853 0.018628)
(-0.00322761 -0.00153654 0.0254746)
(-0.000717838 -6.75457e-05 0.00633276)
(-8.57816e-05 -0.00708362 0.0493676)
(-0.0039372 0.00032263 0.0393053)
(-0.000936118 -0.000231889 0.00804347)
(-0.00110555 0.000190093 0.00905)
(-4.91199e-05 0.000105103 0.00109628)
(-0.000806492 8.04723e-05 0.00859166)
(-0.0020815 -0.000933879 0.0222377)
(-0.0012827 -0.00157074 0.018011)
(0.00147087 -0.00199527 0.0176787)
(-0.00187036 -0.000408629 0.0154192)
(-0.0028477 -0.000560663 0.0166226)
(-0.000874767 -0.000135377 0.00811526)
(0.000479827 -0.000688494 0.0179841)
(-0.00177386 -0.000664211 0.0148788)
(-0.0017786 -0.000750858 0.0177108)
(-0.000527271 -0.000290998 0.00734495)
(8.65302e-05 -0.000949764 0.0157612)
(-0.00155229 -0.000657035 0.0099995)
(-0.00290721 -0.000331793 0.0172657)
(-0.00198016 -0.000649725 0.0161345)
(-0.0046144 -0.000451978 0.022692)
(-0.000203149 -5.67891e-05 0.00906526)
(-0.000233287 1.64017e-05 0.0135775)
(4.3839e-05 3.28565e-05 0.0118775)
(-0.000210207 6.26796e-05 0.0103842)
(-0.000109927 -0.000278083 0.0158952)
(5.38793e-05 1.42134e-05 0.0137086)
(0.000129921 9.20406e-05 0.0104881)
(-0.000155422 -7.12859e-05 0.00454107)
(-0.000263284 -0.000250854 0.0132352)
(0.000172968 8.89319e-05 0.0151804)
(4.3049e-05 0.000198743 0.00745622)
(0.000526228 -0.000426897 0.0304779)
(2.20766e-05 7.92529e-05 0.0216574)
(0.000343567 2.12945e-05 0.00904771)
(0.000305906 -0.000408916 0.00462702)
(0.0020236 0.000225636 0.0192929)
(0.000800807 -0.00124158 0.0160668)
(0.000387694 -0.000460616 0.0213811)
(0.000202033 -9.19713e-05 0.0184854)
(-0.000367882 2.55646e-05 0.0169203)
(0.00106435 -0.000855314 0.0190378)
(0.000974794 -0.000393095 0.0198597)
(0.000496928 -1.59289e-05 0.0148669)
(-7.3637e-05 -0.000366196 0.0133947)
(0.00088291 -0.00045987 0.0188312)
(0.00103659 -8.17383e-05 0.0198761)
(0.000155761 -9.63366e-06 0.0141703)
(0.000382105 1.14213e-05 0.0303604)
(0.000898591 -4.47629e-05 0.0213361)
(0.00128614 9.83682e-05 0.015152)
(0.000713014 -6.99972e-05 0.0105726)
(9.10431e-05 0.000549887 0.0279847)
(1.06859e-05 -0.00013455 0.00484629)
(5.50446e-05 0.000169449 0.00519605)
(0.000219988 0.000353789 0.00452493)
(-0.000253467 0.000225176 0.00427354)
(6.64626e-05 -0.000247082 0.00540006)
(0.000479823 8.32682e-05 0.00502092)
(0.000229461 0.000147559 0.00389425)
(-0.000516114 -0.00103204 0.0039167)
(-0.000149395 -0.00011778 0.00513729)
(0.000333164 0.000293533 0.00479942)
(-0.000914491 0.000104224 0.00391733)
(-0.000689112 -0.00110661 0.00640333)
(7.61848e-05 7.2904e-05 0.00528155)
(0.00063419 0.000368868 0.00392978)
(-0.0011831 -4.81617e-05 0.0032786)
(-0.00210552 0.000350182 0.00570174)
(2.65698e-05 -0.000226176 0.0106841)
(7.87612e-05 -5.32059e-06 0.0109404)
(5.48976e-05 0.0001046 0.0105972)
(-9.47566e-05 9.22846e-05 0.0106514)
(0.000100182 -0.000135065 0.0107363)
(0.000251015 1.34523e-05 0.0107401)
(6.77896e-05 1.31418e-05 0.0102686)
(-0.00017358 -0.000365129 0.0104798)
(8.71614e-05 1.94351e-05 0.0106291)
(0.000181398 0.000131132 0.0106752)
(-0.000330304 2.08589e-05 0.0103534)
(-0.000295069 -0.000374348 0.0115557)
(0.000119068 7.91785e-05 0.0105831)
(0.000231676 0.000183684 0.0102669)
(-0.000439815 4.98244e-05 0.0100651)
(-0.000663197 0.000147979 0.0114793)
(0.000126006 1.54508e-05 0.00896043)
(0.00011533 4.20852e-05 0.00903188)
(5.03192e-05 4.09369e-05 0.00891569)
(8.84146e-06 3.13159e-05 0.00898074)
(8.67088e-05 2.67451e-05 0.00901008)
(0.000124444 3.81701e-05 0.00898457)
(3.07211e-05 3.68434e-06 0.00882364)
(-3.52292e-05 -0.000116396 0.00892578)
(7.23803e-05 5.99049e-05 0.00898715)
(7.57523e-05 6.39673e-05 0.00897067)
(-0.00010603 8.28964e-07 0.00886762)
(-0.000100998 -0.000126385 0.00924267)
(4.32972e-05 4.20974e-05 0.00892317)
(5.97888e-05 6.50839e-05 0.00882479)
(-0.000160546 1.83097e-05 0.0087676)
(-0.000214137 2.90944e-05 0.00920077)
(4.92744e-05 -2.25179e-05 0.0093243)
(5.10098e-05 1.87887e-06 0.00933158)
(2.16779e-05 1.83997e-06 0.00928612)
(2.069e-05 1.08891e-05 0.00931606)
(4.2144e-05 -2.92357e-06 0.00932303)
(5.37025e-05 6.00322e-06 0.00931309)
(1.55319e-05 -7.73638e-06 0.00926107)
(2.41505e-06 -4.02326e-05 0.00930399)
(4.89826e-05 1.9192e-05 0.00930942)
(3.99922e-05 1.61241e-05 0.00930498)
(-2.56314e-05 -9.57997e-06 0.00927847)
(-2.69709e-05 -4.89097e-05 0.00939481)
(2.82024e-05 1.24419e-05 0.00927059)
(2.40823e-05 1.48167e-05 0.00925404)
(-5.00384e-05 -3.8243e-06 0.00924641)
(-6.50734e-05 -7.04031e-06 0.00938324)
(3.81634e-05 -8.15298e-06 0.00926476)
(3.57341e-05 -2.50194e-06 0.00928463)
(1.93225e-05 -6.92557e-06 0.00927679)
(2.18436e-05 -2.07495e-07 0.00929462)
(2.96323e-05 -2.08485e-06 0.00928453)
(3.16358e-05 -1.76019e-06 0.00929034)
(1.55235e-05 -9.92871e-06 0.00927765)
(1.296e-05 -1.95966e-05 0.00929624)
(3.2546e-05 4.27459e-06 0.0092914)
(2.55992e-05 -5.49883e-07 0.00929302)
(1.26416e-06 -1.2053e-05 0.00928647)
(-3.24801e-07 -2.62295e-05 0.0093239)
(1.91408e-05 -2.05133e-06 0.00927695)
(1.5319e-05 -4.89325e-06 0.00927748)
(-1.00274e-05 -1.31704e-05 0.00927846)
(-1.53326e-05 -1.75148e-05 0.00932241)
(2.21626e-05 -9.27848e-06 0.00926502)
(2.14364e-05 -6.99126e-06 0.00928353)
(1.4588e-05 -9.64815e-06 0.00928548)
(1.69509e-05 -5.78208e-06 0.00929388)
(1.83774e-05 -7.10287e-06 0.00928591)
(1.88847e-05 -7.4624e-06 0.00929509)
(1.28495e-05 -1.1328e-05 0.00929367)
(1.27722e-05 -1.40527e-05 0.0093003)
(1.94942e-05 -5.05046e-06 0.00929584)
(1.63162e-05 -8.11733e-06 0.00930029)
(7.84948e-06 -1.31826e-05 0.00929961)
(7.10551e-06 -1.85766e-05 0.00931106)
(1.26438e-05 -8.89966e-06 0.00929245)
(1.08703e-05 -1.15529e-05 0.00929697)
(2.38088e-06 -1.55538e-05 0.00929878)
(8.12384e-07 -1.8627e-05 0.00931286)
(1.3912e-05 -8.35277e-06 0.00926248)
(1.38308e-05 -7.82249e-06 0.00928357)
(1.10586e-05 -9.17906e-06 0.00929038)
(1.23255e-05 -7.3876e-06 0.00929528)
(1.19223e-05 -8.15942e-06 0.00928653)
(1.24101e-05 -8.73549e-06 0.00929835)
(1.02057e-05 -1.05983e-05 0.00930121)
(1.03127e-05 -1.1546e-05 0.00930388)
(1.2049e-05 -7.90214e-06 0.00929852)
(1.1056e-05 -9.85183e-06 0.00930542)
(8.16832e-06 -1.23254e-05 0.00930698)
(7.82994e-06 -1.45607e-05 0.00931029)
(8.49311e-06 -1.04388e-05 0.00930051)
(8.07824e-06 -1.23597e-05 0.00930671)
(5.48922e-06 -1.45005e-05 0.00930878)
(5.08899e-06 -1.63068e-05 0.00931321)
(8.94063e-06 -7.25694e-06 0.00926224)
(9.25719e-06 -7.23368e-06 0.0092847)
(8.21761e-06 -7.86982e-06 0.00929361)
(8.7568e-06 -7.16343e-06 0.00929731)
(7.92674e-06 -7.69085e-06 0.00928754)
(8.51723e-06 -8.20985e-06 0.00930073)
(7.76449e-06 -9.12086e-06 0.0093052)
(7.80916e-06 -9.56373e-06 0.00930673)
(7.68674e-06 -8.10747e-06 0.00930016)
(7.71627e-06 -9.30479e-06 0.00930846)
(6.82511e-06 -1.05636e-05 0.0093109)
(6.6904e-06 -1.15702e-05 0.00931194)
(5.92526e-06 -9.67756e-06 0.00930441)
(6.131e-06 -1.0983e-05 0.00931148)
(5.49876e-06 -1.22173e-05 0.00931364)
(5.4702e-06 -1.32045e-05 0.00931498)
(5.95439e-06 -6.00524e-06 0.00926236)
(6.38918e-06 -6.11337e-06 0.00928572)
(6.03534e-06 -6.41891e-06 0.00929568)
(6.19192e-06 -6.17367e-06 0.00929917)
(5.39026e-06 -6.58932e-06 0.00928817)
(5.9893e-06 -6.99673e-06 0.00930216)
(5.78155e-06 -7.47994e-06 0.00930743)
(5.77598e-06 -7.72388e-06 0.00930882)
(5.0877e-06 -7.16248e-06 0.00930093)
(5.47256e-06 -7.90472e-06 0.00931009)
(5.28766e-06 -8.58304e-06 0.00931303)
(5.27002e-06 -9.08183e-06 0.00931358)
(4.23328e-06 -8.14751e-06 0.00930614)
(4.61958e-06 -9.00787e-06 0.00931366)
(4.60904e-06 -9.73832e-06 0.00931592)
(4.7151e-06 -1.02737e-05 0.00931639)
(4.06407e-06 -4.81548e-06 0.0092627)
(4.47678e-06 -4.9201e-06 0.00928662)
(4.38211e-06 -5.07302e-06 0.00929716)
(4.381e-06 -4.99556e-06 0.00930075)
(3.72776e-06 -5.37067e-06 0.00928862)
(4.25494e-06 -5.65941e-06 0.00930313)
(4.2382e-06 -5.93027e-06 0.00930886)
(4.21463e-06 -6.06967e-06 0.00931038)
(3.48013e-06 -5.87929e-06 0.00930134)
(3.91922e-06 -6.35329e-06 0.00931101)
(3.96097e-06 -6.74282e-06 0.00931428)
(3.99094e-06 -7.00694e-06 0.00931486)
(3.03681e-06 -6.49981e-06 0.00930683)
(3.42916e-06 -7.06739e-06 0.00931465)
(3.58917e-06 -7.50787e-06 0.00931705)
(3.73698e-06 -7.80333e-06 0.00931736)
(2.81457e-06 -3.75049e-06 0.00926305)
(3.15462e-06 -3.82441e-06 0.00928733)
(3.14737e-06 -3.90714e-06 0.00929822)
(3.09852e-06 -3.88394e-06 0.009302)
(2.60241e-06 -4.21751e-06 0.00928894)
(3.02666e-06 -4.4141e-06 0.00930377)
(3.06614e-06 -4.57191e-06 0.0093098)
(3.04253e-06 -4.64907e-06 0.00931151)
(2.42489e-06 -4.61192e-06 0.00930155)
(2.80985e-06 -4.92224e-06 0.00931153)
(2.90685e-06 -5.15612e-06 0.00931504)
(2.94836e-06 -5.30197e-06 0.00931576)
(2.17497e-06 -5.00272e-06 0.00930702)
(2.51055e-06 -5.37939e-06 0.00931505)
(2.69075e-06 -5.65319e-06 0.0093176)
(2.83046e-06 -5.82051e-06 0.00931797)
(1.95189e-06 -2.8316e-06 0.00926336)
(2.21043e-06 -2.88027e-06 0.00928788)
(2.22702e-06 -2.92753e-06 0.009299)
(2.17514e-06 -2.92048e-06 0.00930294)
(1.8139e-06 -3.19827e-06 0.00928916)
(2.13474e-06 -3.33014e-06 0.0093042)
(2.18142e-06 -3.42412e-06 0.00931043)
(2.16449e-06 -3.46649e-06 0.00931231)
(1.69325e-06 -3.48588e-06 0.00930165)
(1.99479e-06 -3.69184e-06 0.00931183)
(2.08793e-06 -3.83627e-06 0.00931551)
(2.1286e-06 -3.91934e-06 0.00931636)
(1.5426e-06 -3.72982e-06 0.009307)
(1.80502e-06 -3.98068e-06 0.00931518)
(1.95752e-06 -4.1537e-06 0.00931786)
(2.07388e-06 -4.25077e-06 0.00931833)
(1.33326e-06 -2.04986e-06 0.00926362)
(1.51575e-06 -2.08207e-06 0.00928829)
(1.53376e-06 -2.11112e-06 0.00929955)
(1.4942e-06 -2.1088e-06 0.00930363)
(1.24134e-06 -2.32154e-06 0.00928932)
(1.46966e-06 -2.40933e-06 0.0093045)
(1.50755e-06 -2.46727e-06 0.00931087)
(1.49964e-06 -2.49144e-06 0.00931288)
(1.16048e-06 -2.52196e-06 0.00930169)
(1.3786e-06 -2.65896e-06 0.009312)
(1.45032e-06 -2.75114e-06 0.0093158)
(1.48866e-06 -2.80176e-06 0.00931676)
(1.06545e-06 -2.66945e-06 0.00930692)
(1.25524e-06 -2.8352e-06 0.0093152)
(1.3675e-06 -2.94447e-06 0.00931798)
(1.46544e-06 -3.00129e-06 0.00931854)
(8.74207e-07 -1.37629e-06 0.00926382)
(9.94661e-07 -1.397e-06 0.00928858)
(1.00952e-06 -1.41524e-06 0.00929994)
(9.86091e-07 -1.41502e-06 0.00930411)
(8.14147e-07 -1.56075e-06 0.00928944)
(9.66652e-07 -1.61739e-06 0.00930471)
(9.94238e-07 -1.65335e-06 0.00931118)
(9.94724e-07 -1.66793e-06 0.00931327)
(7.6154e-07 -1.6902e-06 0.00930172)
(9.08486e-07 -1.77848e-06 0.00931211)
(9.58418e-07 -1.83747e-06 0.009316)
(9.92999e-07 -1.87079e-06 0.00931705)
(7.01662e-07 -1.77215e-06 0.00930685)
(8.29339e-07 -1.87738e-06 0.0093152)
(9.03869e-07 -1.94466e-06 0.00931806)
(9.85037e-07 -1.97722e-06 0.00931869)
(5.37303e-07 -7.7118e-07 0.00926395)
(6.14682e-07 -7.81389e-07 0.00928877)
(6.30547e-07 -7.8965e-07 0.00930019)
(6.24282e-07 -7.87583e-07 0.00930442)
(5.04825e-07 -8.72286e-07 0.00928952)
(6.01162e-07 -9.03438e-07 0.00930485)
(6.247e-07 -9.21563e-07 0.00931137)
(6.32883e-07 -9.27847e-07 0.00931352)
(4.76194e-07 -9.39564e-07 0.00930174)
(5.6982e-07 -9.88375e-07 0.00931219)
(6.06031e-07 -1.02035e-06 0.00931613)
(6.34463e-07 -1.0401e-06 0.00931724)
(4.43815e-07 -9.75494e-07 0.00930681)
(5.26418e-07 -1.03347e-06 0.00931521)
(5.74264e-07 -1.07015e-06 0.00931812)
(6.32195e-07 -1.08639e-06 0.00931882)
(3.17372e-07 -2.39719e-07 0.00926393)
(3.73709e-07 -2.33709e-07 0.00928879)
(4.0261e-07 -2.26213e-07 0.00930026)
(4.15601e-07 -2.15676e-07 0.00930454)
(3.17629e-07 -2.57182e-07 0.00928949)
(3.79207e-07 -2.60032e-07 0.00930486)
(4.09605e-07 -2.58437e-07 0.00931143)
(4.26217e-07 -2.53415e-07 0.00931363)
(3.15833e-07 -2.63117e-07 0.0093017)
(3.75422e-07 -2.74778e-07 0.00931218)
(4.09038e-07 -2.81021e-07 0.00931617)
(4.31516e-07 -2.84381e-07 0.00931732)
(3.09353e-07 -2.62123e-07 0.00930674)
(3.64609e-07 -2.80126e-07 0.00931518)
(4.00698e-07 -2.91495e-07 0.00931813)
(4.33038e-07 -2.95768e-07 0.00931888)
(0.000367019 -0.00260964 0.0144112)
(-0.00173128 -0.00141883 0.0156511)
(-0.00228958 -0.00108726 0.017303)
(-0.00212702 -0.00011903 0.0132304)
(0.00160988 -0.000224328 0.0100382)
(0.00236609 3.13581e-05 0.0153654)
(0.000241908 -0.00125018 0.016277)
(-0.000596345 -0.000867556 0.0221176)
(0.000293814 0.000107259 0.0121228)
(0.000451983 -0.00120112 0.0200193)
(-0.000585424 -0.000196813 0.0139903)
(0.00055727 0.000328146 0.0101463)
(0.000765591 0.000687602 0.0099573)
(0.00116178 0.000914971 0.00822139)
(0.00161498 -4.14895e-05 0.0173999)
(0.000282131 0.000814819 0.0166585)
(-0.0022518 0.000935933 0.0279616)
(-0.00242448 -0.000699406 0.0180685)
(7.92731e-05 -0.00144493 0.0154547)
(0.000334168 -0.000159151 0.0107002)
(-0.000546986 -0.000366064 0.00799762)
(-0.00358995 -0.0029386 0.0280172)
(-0.000541429 -0.000135675 0.0144657)
(-4.67672e-06 -0.000463177 0.013673)
(-0.00092452 -0.001481 0.0221577)
(-0.000184198 -0.000374089 0.0121908)
(0.000262529 -0.000380565 0.0112481)
(-0.000547444 -0.000443585 0.0165196)
(-0.000460423 0.000359723 0.0189112)
(-0.00204344 0.00226514 0.0204484)
(-0.000307316 0.000795002 0.019062)
(0.000586346 0.00107927 0.019561)
(0.00038768 0.000741807 0.0347934)
(0.0010018 0.00124754 0.025327)
(0.000366223 0.000397118 0.0112547)
(-0.000212241 0.000644822 0.0216835)
(-0.000212656 0.0022369 0.0307524)
(-0.00051689 0.00164654 0.0221084)
(-0.000265779 0.000903608 0.0163381)
(0.0015696 0.000404448 0.0422525)
(-0.000147347 0.00138596 0.0199769)
(0.000126927 -0.000614231 0.0222872)
(-0.00104311 -0.000989951 0.0287473)
(-0.000509587 -0.000244812 0.00911405)
(-0.00169833 -0.000224914 0.015021)
(-0.000892944 -0.000231214 0.00885089)
(0.000301087 0.000129278 0.010138)
(-0.000544263 0.000322608 0.0300809)
(-0.00030891 -0.00150227 0.0163576)
(-0.000101689 -0.000442307 0.0137908)
(-0.00188243 0.00105374 0.0231567)
(-3.99942e-05 -0.00020797 0.000835292)
(0.000211384 0.000273779 0.00324739)
(0.00200079 0.00320529 0.037446)
(-0.000175435 0.000595554 0.0117529)
(-0.000514319 0.00239134 0.0234668)
(-0.00167414 0.00185927 0.0245306)
(-0.00133122 0.00162442 0.0254072)
(7.47188e-05 0.0022037 0.0246372)
(-0.000426444 0.000395091 0.019532)
(0.000254154 -0.000844069 0.0311387)
(-2.59435e-05 -4.5204e-05 0.0056809)
(-0.000910924 -0.000438586 0.0149175)
(-1.37643e-05 -0.00131659 0.0227155)
(-0.000847397 0.00175946 0.0457282)
(0.00072026 6.76505e-05 0.0122528)
(0.00288042 0.00215021 0.030402)
(-0.000420809 0.000462035 0.00989171)
(-0.000998898 -0.000165803 0.017079)
(5.94402e-05 0.0010568 0.0272104)
(0.000898817 0.000407151 0.0155386)
(-0.00122492 -0.000294438 0.0265924)
(0.00068845 0.000589067 0.0319303)
(-0.000209964 0.00119546 0.0139716)
(0.000100768 0.00143026 0.0278807)
(0.000969692 0.000854672 0.0219816)
(0.000871796 0.000738392 0.0146883)
(0.00104892 0.00103644 0.018951)
(-0.000741188 0.000347958 0.0248604)
(-0.000640286 0.000113989 0.0189448)
(0.000707197 0.00122989 0.0084132)
(0.00068576 0.00105246 0.00595223)
(-0.000618061 0.00143496 0.0123655)
(-0.000736906 0.000988142 0.0226745)
(0.000913225 0.00164799 0.0117738)
(0.00151711 0.00139117 0.0106029)
(0.000379124 0.000952896 0.0145766)
(-0.000753543 3.22858e-05 0.013908)
(0.000558146 0.000499245 0.00946518)
(0.00082506 0.000584955 0.0176602)
(-0.000149337 0.000270096 0.00658699)
(-0.000971669 -0.000243001 0.0128171)
(0.00173374 0.000138176 0.0173139)
(0.0015427 -0.000332711 0.0084427)
(0.000330366 -0.000286089 0.0143343)
(-0.00156524 -0.000229583 0.0135919)
(0.000300625 7.87038e-05 0.0199012)
(0.000102652 -9.61294e-05 0.0101912)
(-0.000192623 -0.000103769 0.0176343)
(0.000233864 5.83187e-05 0.0154596)
(-0.00161084 0.00309679 0.00564066)
(-0.000351322 -9.06604e-05 0.0149786)
(-0.000188477 0.000107183 0.0161484)
(-0.000164481 0.000381145 0.0183547)
(-4.34747e-05 9.05749e-05 0.0170897)
(0.000306073 0.000326388 0.0208122)
(-0.00269174 -0.00511564 0.0114803)
(-5.34416e-05 -6.69689e-05 0.0133143)
(-0.000142233 -0.000866871 0.00878809)
(2.79962e-05 -0.00299374 0.00914456)
(-0.00164729 -0.00180894 0.0195546)
(-0.00074824 -0.000295912 0.013104)
(0.00053978 -0.000667491 0.0200639)
(0.000441931 -0.00127851 0.0173805)
(0.00053376 -0.00164631 0.0181462)
(0.00101622 -0.00148768 0.0177731)
(-0.000249241 -0.00120214 0.0147508)
(-0.000382321 -0.00227648 0.0181536)
(0.000236171 -0.00151831 0.0192625)
(0.000892887 -0.000913704 0.0186966)
(-0.00032597 -0.00065098 0.0216164)
(0.000413708 -0.000435083 0.0218621)
(0.00121001 -0.000807236 0.0174969)
(0.00102764 -0.000240479 0.0150893)
(-0.000427436 -0.000399502 0.0158687)
(-0.00100315 -0.000818688 0.0176991)
(-0.000266531 -0.00043451 0.0163143)
(0.000486579 -0.000583564 0.0162081)
(0.000161777 0.000229302 0.00545528)
(0.000344443 0.000127964 0.0052117)
(0.000314368 -9.96213e-05 0.00536851)
(0.000399162 -0.000145723 0.00529081)
(-5.62949e-05 -0.000528632 0.00439861)
(-0.000114778 -0.000725308 0.00536122)
(9.436e-05 -0.000331441 0.00573071)
(0.000187473 -5.9587e-05 0.00558755)
(0.000284333 -0.000149433 0.0063851)
(0.000868003 4.93872e-05 0.00686067)
(0.0010233 0.000183671 0.00559681)
(0.00032788 0.000169462 0.00490501)
(-8.51775e-05 -5.65688e-05 0.00435611)
(7.20452e-05 -0.000269207 0.00496779)
(0.000270206 -7.07177e-05 0.00507186)
(-0.000125829 -0.000278573 0.0048165)
(0.000120792 -0.000142083 0.0109767)
(0.000169277 -0.000203681 0.0109091)
(0.00022034 -0.000227292 0.0108861)
(0.000213943 -0.000224977 0.010815)
(2.5748e-05 -0.000400818 0.0103515)
(-2.81309e-06 -0.000462024 0.010681)
(0.000147681 -0.000277364 0.0107976)
(0.000176763 -0.000147092 0.0107452)
(5.6129e-05 4.41577e-06 0.0112051)
(0.000320017 6.01134e-05 0.0112053)
(0.000517747 0.000114921 0.0107511)
(0.000292963 8.60974e-05 0.0104866)
(-0.000120469 8.01889e-05 0.0101384)
(-7.16196e-05 -1.10454e-05 0.0103707)
(0.000124608 2.81387e-05 0.0103244)
(5.95356e-05 -2.61977e-05 0.0103099)
(5.71165e-05 2.00833e-05 0.00881612)
(0.000119464 3.29019e-05 0.0089094)
(0.000136448 2.25686e-05 0.0089592)
(0.000150824 2.38449e-05 0.00897491)
(1.40648e-05 -4.64584e-05 0.00871173)
(3.1045e-05 -4.52967e-05 0.00893)
(5.71316e-05 5.62033e-06 0.00901641)
(8.51175e-05 4.45248e-05 0.00901872)
(4.70595e-05 0.000107554 0.00911399)
(0.000176002 0.000126886 0.00922584)
(0.000215826 0.000130587 0.00910065)
(0.000145322 0.000104925 0.00899247)
(-1.764e-05 9.29093e-05 0.00859294)
(1.51715e-05 5.72364e-05 0.00881424)
(4.66174e-05 5.00903e-05 0.00886549)
(2.84698e-05 2.74045e-05 0.008874)
(3.24044e-05 -2.5308e-05 0.0091887)
(5.18528e-05 -2.17271e-05 0.00926523)
(6.72572e-05 -1.70111e-05 0.00931391)
(6.85119e-05 -1.48204e-05 0.00933298)
(1.21138e-05 -4.9291e-05 0.00910138)
(1.92865e-05 -4.68933e-05 0.00922223)
(4.17057e-05 -2.42154e-05 0.00929579)
(5.21534e-05 -6.69661e-06 0.00932229)
(1.70138e-05 4.15292e-05 0.00925608)
(7.12958e-05 4.59934e-05 0.00933606)
(0.000100958 4.54537e-05 0.00933332)
(8.31213e-05 3.36987e-05 0.00931338)
(-1.59175e-05 4.86226e-05 0.00901732)
(-1.3332e-06 3.24615e-05 0.00914671)
(2.5444e-05 2.45188e-05 0.00921294)
(2.76731e-05 1.38864e-05 0.00924579)
(2.02611e-05 -9.3291e-06 0.00901561)
(3.37477e-05 -4.80842e-06 0.00912111)
(4.03347e-05 -3.55724e-06 0.00919334)
(4.33115e-05 -3.23505e-06 0.00923779)
(7.71852e-06 -1.53378e-05 0.00901542)
(1.60034e-05 -1.42247e-05 0.00914167)
(2.50809e-05 -7.34888e-06 0.00922175)
(3.23472e-05 -1.75337e-06 0.00926441)
(9.54238e-06 2.26603e-05 0.00910999)
(3.64032e-05 2.22382e-05 0.00922018)
(4.92278e-05 1.93709e-05 0.00926852)
(4.59012e-05 1.25735e-05 0.00928459)
(-4.92071e-06 2.30507e-05 0.00901583)
(3.70372e-06 1.48656e-05 0.00914986)
(1.507e-05 8.76755e-06 0.00922406)
(1.89459e-05 2.33494e-06 0.00926016)
(1.24084e-05 -9.48048e-06 0.00900149)
(1.83034e-05 -7.65479e-06 0.00910728)
(2.18664e-05 -6.73594e-06 0.00918356)
(2.43867e-05 -6.49858e-06 0.00923288)
(5.97684e-06 -1.14184e-05 0.00901402)
(1.06008e-05 -1.11203e-05 0.00913357)
(1.54058e-05 -8.6152e-06 0.00921426)
(2.00901e-05 -6.63596e-06 0.00926149)
(5.66975e-06 6.32517e-06 0.00906621)
(1.84578e-05 5.26619e-06 0.00918235)
(2.48071e-05 3.07587e-06 0.00924917)
(2.51168e-05 -6.14279e-07 0.0092817)
(-1.29062e-06 6.94455e-06 0.00903177)
(3.57949e-06 2.30399e-06 0.00915958)
(9.29888e-06 -1.64857e-06 0.00923614)
(1.23606e-05 -5.64016e-06 0.00927535)
(8.19058e-06 -7.2618e-06 0.00898206)
(1.137e-05 -6.73375e-06 0.00909155)
(1.31391e-05 -6.54689e-06 0.00917189)
(1.50725e-05 -6.60059e-06 0.00922547)
(4.37752e-06 -7.89744e-06 0.00900632)
(7.39564e-06 -8.25695e-06 0.00912641)
(1.00793e-05 -7.72021e-06 0.00920878)
(1.30892e-05 -7.41083e-06 0.00925894)
(3.54835e-06 -2.34441e-07 0.00904362)
(9.93233e-06 -1.44588e-06 0.00916439)
(1.32329e-05 -3.08369e-06 0.00923929)
(1.43989e-05 -5.29994e-06 0.00927952)
(7.65457e-08 -2.16589e-07 0.00903664)
(3.03816e-06 -3.23141e-06 0.00916336)
(6.12953e-06 -5.84189e-06 0.00924119)
(8.16549e-06 -8.35312e-06 0.0092821)
(5.65669e-06 -5.82965e-06 0.00897511)
(7.33123e-06 -5.91238e-06 0.00908588)
(8.26045e-06 -5.97149e-06 0.00916782)
(9.69894e-06 -6.08344e-06 0.00922314)
(3.37055e-06 -6.08407e-06 0.00900329)
(5.31198e-06 -6.64638e-06 0.00912377)
(6.88113e-06 -6.77164e-06 0.00920691)
(8.82885e-06 -6.98225e-06 0.00925835)
(2.36864e-06 -2.74785e-06 0.00903334)
(5.71361e-06 -3.8243e-06 0.00915642)
(7.62311e-06 -5.02999e-06 0.00923491)
(8.78382e-06 -6.55073e-06 0.00927866)
(5.05053e-07 -2.94402e-06 0.00903823)
(2.33854e-06 -4.98799e-06 0.00916472)
(4.03486e-06 -6.7056e-06 0.00924312)
(5.46849e-06 -8.31586e-06 0.00928503)
(4.03436e-06 -4.53802e-06 0.00897157)
(4.9867e-06 -4.83805e-06 0.00908315)
(5.48949e-06 -5.00391e-06 0.00916593)
(6.53865e-06 -5.15924e-06 0.00922213)
(2.59712e-06 -4.74794e-06 0.00900148)
(3.87987e-06 -5.30173e-06 0.00912234)
(4.80251e-06 -5.61178e-06 0.00920594)
(6.08941e-06 -5.99601e-06 0.00925807)
(1.70878e-06 -3.3503e-06 0.00902844)
(3.6121e-06 -4.27324e-06 0.00915269)
(4.72408e-06 -5.21206e-06 0.00923277)
(5.62591e-06 -6.22384e-06 0.00927812)
(5.22352e-07 -3.5763e-06 0.00903825)
(1.67104e-06 -4.98786e-06 0.00916481)
(2.78773e-06 -6.14989e-06 0.00924364)
(3.85623e-06 -7.22719e-06 0.0092862)
(2.92089e-06 -3.47431e-06 0.00897009)
(3.49454e-06 -3.82104e-06 0.00908209)
(3.77131e-06 -4.0186e-06 0.00916526)
(4.53225e-06 -4.18759e-06 0.00922188)
(1.98372e-06 -3.69345e-06 0.0090005)
(2.8352e-06 -4.17898e-06 0.00912162)
(3.38749e-06 -4.53036e-06 0.00920549)
(4.26388e-06 -4.91532e-06 0.009258)
(1.27233e-06 -3.22194e-06 0.00902611)
(2.39209e-06 -3.9575e-06 0.00915092)
(3.06113e-06 -4.625e-06 0.00923171)
(3.75933e-06 -5.28825e-06 0.00927785)
(4.80847e-07 -3.34843e-06 0.0090379)
(1.27805e-06 -4.33811e-06 0.00916463)
(2.02468e-06 -5.14023e-06 0.00924372)
(2.75406e-06 -5.87631e-06 0.00928657)
(2.12607e-06 -2.61662e-06 0.00896947)
(2.48881e-06 -2.93518e-06 0.00908172)
(2.6417e-06 -3.12511e-06 0.00916508)
(3.1903e-06 -3.28359e-06 0.0092219)
(1.5006e-06 -2.84608e-06 0.00899993)
(2.07124e-06 -3.24785e-06 0.00912123)
(2.40649e-06 -3.56102e-06 0.00920528)
(3.01248e-06 -3.88208e-06 0.00925801)
(9.52264e-07 -2.75056e-06 0.00902491)
(1.64677e-06 -3.30478e-06 0.00915001)
(2.07053e-06 -3.77536e-06 0.00923117)
(2.58845e-06 -4.22436e-06 0.0092777)
(4.06585e-07 -2.80004e-06 0.00903752)
(9.67027e-07 -3.5076e-06 0.00916435)
(1.45999e-06 -4.07328e-06 0.00924354)
(1.96131e-06 -4.58237e-06 0.00928655)
(1.53663e-06 -1.93087e-06 0.00896926)
(1.77184e-06 -2.19405e-06 0.00908165)
(1.85379e-06 -2.35695e-06 0.00916511)
(2.24493e-06 -2.49076e-06 0.00922203)
(1.11561e-06 -2.14817e-06 0.00899962)
(1.49829e-06 -2.46232e-06 0.00912104)
(1.70166e-06 -2.71278e-06 0.00920519)
(2.1216e-06 -2.95814e-06 0.00925805)
(7.06778e-07 -2.17709e-06 0.00902429)
(1.1551e-06 -2.58389e-06 0.00914955)
(1.42779e-06 -2.917e-06 0.00923089)
(1.7995e-06 -3.22598e-06 0.00927761)
(3.16406e-07 -2.19645e-06 0.00903714)
(7.05425e-07 -2.69985e-06 0.00916402)
(1.03343e-06 -3.09789e-06 0.00924328)
(1.38294e-06 -3.4484e-06 0.00928639)
(1.08194e-06 -1.37731e-06 0.00896922)
(1.23421e-06 -1.57839e-06 0.0090817)
(1.27595e-06 -1.70573e-06 0.00916521)
(1.55021e-06 -1.8092e-06 0.00922218)
(8.00849e-07 -1.55954e-06 0.00899946)
(1.05444e-06 -1.79165e-06 0.00912096)
(1.17671e-06 -1.97697e-06 0.00920517)
(1.46368e-06 -2.15322e-06 0.00925811)
(5.07619e-07 -1.61584e-06 0.00902395)
(8.00634e-07 -1.90487e-06 0.0091493)
(9.75558e-07 -2.1364e-06 0.00923072)
(1.23281e-06 -2.34673e-06 0.00927754)
(2.29752e-07 -1.62306e-06 0.00903682)
(4.93599e-07 -1.97308e-06 0.00916374)
(7.11731e-07 -2.24707e-06 0.00924304)
(9.51795e-07 -2.48368e-06 0.00928623)
(7.17167e-07 -9.19075e-07 0.00896924)
(8.13839e-07 -1.05802e-06 0.00908178)
(8.35449e-07 -1.14611e-06 0.00916532)
(1.02014e-06 -1.21706e-06 0.00922232)
(5.36583e-07 -1.0504e-06 0.00899938)
(6.99662e-07 -1.20739e-06 0.00912094)
(7.73021e-07 -1.33204e-06 0.00920519)
(9.61987e-07 -1.44859e-06 0.00925816)
(3.40205e-07 -1.09711e-06 0.00902376)
(5.27671e-07 -1.28868e-06 0.00914916)
(6.37796e-07 -1.44021e-06 0.00923063)
(8.07615e-07 -1.576e-06 0.00927751)
(1.5455e-07 -1.09619e-06 0.00903658)
(3.26544e-07 -1.32551e-06 0.00916353)
(4.67107e-07 -1.50339e-06 0.00924287)
(6.2492e-07 -1.65479e-06 0.0092861)
(4.15183e-07 -5.24842e-07 0.00896927)
(4.7811e-07 -6.0044e-07 0.00908185)
(4.95937e-07 -6.46763e-07 0.0091654)
(6.10936e-07 -6.83213e-07 0.00922242)
(3.0871e-07 -5.92376e-07 0.00899934)
(4.11891e-07 -6.78796e-07 0.00912093)
(4.61031e-07 -7.46691e-07 0.0092052)
(5.78981e-07 -8.09536e-07 0.0092582)
(1.95247e-07 -6.11145e-07 0.00902365)
(3.12655e-07 -7.18116e-07 0.00914908)
(3.84447e-07 -8.01795e-07 0.00923058)
(4.91812e-07 -8.75803e-07 0.00927748)
(9.18102e-08 -5.99175e-07 0.00903642)
(2.00724e-07 -7.28676e-07 0.00916339)
(2.89749e-07 -8.28083e-07 0.00924275)
(3.89492e-07 -9.11184e-07 0.00928602)
(1.75414e-07 -2.03206e-07 0.00896918)
(2.21038e-07 -2.17988e-07 0.00908178)
(2.52206e-07 -2.19853e-07 0.00916535)
(3.1462e-07 -2.19486e-07 0.00922237)
(1.20877e-07 -2.00841e-07 0.00899922)
(1.89841e-07 -2.21323e-07 0.00912083)
(2.41593e-07 -2.3326e-07 0.00920512)
(3.13217e-07 -2.43937e-07 0.00925814)
(7.32822e-08 -1.74006e-07 0.00902351)
(1.52253e-07 -2.06146e-07 0.00914896)
(2.17605e-07 -2.28599e-07 0.00923048)
(2.90006e-07 -2.46907e-07 0.00927741)
(4.16267e-08 -1.37086e-07 0.00903626)
(1.17869e-07 -1.82405e-07 0.00916325)
(1.89186e-07 -2.15989e-07 0.00924263)
(2.59364e-07 -2.42236e-07 0.00928592)
(-0.00276494 -0.00121902 0.0180927)
(-0.000400217 0.00051227 0.00756297)
(-0.000221836 0.000793031 0.0147079)
(0.000409101 0.000446278 0.00704788)
(-0.00103662 -0.00201812 0.0117676)
(3.18382e-05 7.67914e-05 0.0217345)
(0.000186168 0.000868616 0.0126602)
(0.000227424 0.00114761 0.0109886)
(-0.000146479 -0.000400292 0.0120372)
(0.000149198 -0.00111066 0.012036)
(0.000512089 -0.000758255 0.0133281)
(0.000580942 -0.000869914 0.0192388)
(-0.000201907 -0.00101448 0.0159109)
(-0.000186726 -2.89273e-05 0.0118248)
(0.000242361 -0.000334586 0.0131615)
(0.000237868 -0.000342676 0.00371322)