/*--------------------------------*- C++ -*----------------------------------*\
| =========                 |                                                 |
| \\      /  F ield         | OpenFOAM: The Open Source CFD Toolbox           |
|  \\    /   O peration     | Version:  2506                                  |
|   \\  /    A nd           | Website:  www.openfoam.com                      |
|    \\/     M anipulation  |                                                 |
\*---------------------------------------------------------------------------*/
FoamFile
{
    version     2.0;
    format      ascii;
    arch        "LSB;label=32;scalar=64";
    class       volVectorField;
    location    "0.04";
    object      U;
}
// * * * * * * * * * * * * * * * * * * * * * * * * * * * * * * * * * * * * * //

dimensions      [0 1 -1 0 0 0 0];

internalField   nonuniform List<vector> 
1152
(
(-0.000156471 -0.000412499 0.00812456)
(0.00123658 0.000853228 0.0140493)
(-0.00215398 -0.000962755 0.0160891)
(0.00016346 -5.12248e-05 0.0039972)
(-0.000101953 0.000288846 0.0107525)
(-0.000979181 0.000309501 0.0151402)
(-0.0010905 0.000254864 0.0102294)
(0.000847969 0.00138726 0.00967622)
(0.0012888 0.000376373 0.0141415)
(0.00115878 0.000586444 0.00999127)
(-2.56378e-05 0.00247415 0.0154656)
(0.000299504 0.0027987 0.0169466)
(0.000680754 0.000271751 0.0111546)
(0.00201735 -0.003139 0.02738)
(0.000458234 -0.000121667 0.0141223)
(0.00102348 0.00434724 0.0123409)
(-0.00041226 -0.000941988 0.0149831)
(-0.000927634 -0.00208844 0.0239496)
(0.000278242 0.000526434 0.0306815)
(-7.03244e-05 0.000234112 0.00399812)
(-0.00125635 -0.00136466 0.0246634)
(0.00123795 -0.000644955 0.0248863)
(0.000353455 0.000273057 0.00314981)
(-0.00185118 0.000821177 0.0180118)
(7.70467e-05 -0.000132298 0.0105832)
(-5.63177e-08 -0.00145136 0.0278108)
(0.00217139 -0.00298371 0.0296195)
(-9.45981e-05 0.000171513 0.00206838)
(-0.00154504 0.000964118 0.0214314)
(-0.00027132 0.000346771 0.00894782)
(0.00116247 0.000859037 0.0182207)
(0.00046776 0.00362736 0.0150745)
(-0.000352055 0.000733192 0.0127563)
(-0.00200388 -0.000506726 0.0176816)
(0.000853405 0.000207528 0.00779721)
(9.47594e-05 0.000353125 0.00077377)
(-0.00063372 -0.000273123 0.00668673)
(-0.000855401 -0.000539477 0.0125938)
(0.00208553 0.00138937 0.0347631)
(-0.000537807 -0.000905665 0.0214434)
(-0.00194525 -0.0022377 0.0220825)
(-0.000910008 0.001241 0.0190703)
(0.000781837 -0.000183936 0.00793355)
(0.00196422 0.00121836 0.0413932)
(0.000209339 0.000325854 0.0130768)
(-0.000205955 0.000841648 0.0386179)
(0.000115131 -0.000609864 0.0096569)
(-0.000301804 -0.00075089 0.00326628)
(0.000664512 0.0010005 0.0173363)
(-0.00057541 0.00185266 0.0385374)
(-0.000181728 -0.000167875 0.0140088)
(-0.00229038 0.00092269 0.0293731)
(0.00153832 0.00122876 0.0413192)
(-0.000740756 0.000358746 0.0172492)
(-0.000760649 -0.000348906 0.0216804)
(0.000974719 0.00110789 0.0232225)
(-0.000495698 0.000552965 0.0095374)
(-0.00103704 -0.00120224 0.0197082)
(9.40811e-05 -0.000446804 0.0188988)
(1.29742e-05 0.000199088 0.000948626)
(-0.000483161 -0.000259703 0.00851992)
(-0.00590826 -0.00123079 0.0427706)
(-0.000313244 -0.000594324 0.0211068)
(-0.00294854 -0.00680649 0.0476777)
(-0.00125406 0.000296112 0.0155605)
(0.000651946 5.88557e-05 0.0109782)
(-0.000167144 -0.000390811 0.00971805)
(-0.00110194 -0.00167159 0.0204088)
(-0.000305787 0.00116976 0.0163293)
(-0.000312335 0.000208296 0.0239553)
(-0.00159441 -0.00378135 0.0294394)
(0.000766515 -0.00112234 0.0126976)
(-0.000493184 0.00149339 0.0191268)
(-0.00370702 -0.00175918 0.0265071)
(-0.000628655 -2.89675e-05 0.0066147)
(-0.00216257 -0.00891934 0.0552358)
(-0.00446894 9.507e-05 0.0407445)
(-0.000819432 -0.000363327 0.00837887)
(-0.0010513 7.41291e-05 0.00968265)
(0.000239163 0.000130781 0.00118858)
(-0.00083507 5.15189e-05 0.00885703)
(-0.00217648 -0.00103034 0.0227925)
(-0.00136606 -0.00161181 0.0184125)
(0.00115307 -0.00210114 0.018211)
(-0.00195097 -0.000399731 0.0159522)
(-0.00297643 -0.000636616 0.0172105)
(-0.000911067 -0.000158368 0.00833434)
(0.000355296 -0.000704217 0.019073)
(-0.00188317 -0.000653303 0.0153857)
(-0.00187187 -0.000794076 0.0183633)
(-0.000507833 -0.000209245 0.00746864)
(-7.77427e-06 -0.000151814 0.0162281)
(-0.00157506 -0.000554194 0.0104348)
(-0.0029772 -0.000333979 0.0183317)
(-0.00121165 -0.000720335 0.0164263)
(-0.00309736 -0.000952181 0.0251368)
(-0.000184305 -0.000120451 0.00930272)
(-0.000215506 -6.31773e-05 0.0140108)
(5.69296e-05 4.5469e-06 0.0123171)
(-5.41276e-05 0.000123098 0.0110924)
(-0.000149395 -0.000285817 0.0163772)
(-1.60986e-06 -0.000102958 0.014216)
(8.02338e-05 1.16827e-05 0.0109181)
(-0.000129928 -0.000201796 0.00478732)
(-0.000309169 -0.000189147 0.0136643)
(0.000165837 0.000137261 0.0157939)
(-1.3667e-05 0.00013361 0.00760474)
(0.000267532 -0.000113112 0.0316991)
(3.58878e-05 0.000146754 0.0224831)
(0.000388436 0.000107211 0.00919952)
(0.000329836 -0.000402145 0.00451896)
(0.00135259 0.000447895 0.017116)
(0.000827795 -0.00125574 0.0164211)
(0.000406801 -0.000467291 0.0218276)
(0.000204446 -7.80502e-05 0.0189393)
(-0.000351364 7.56412e-05 0.0174423)
(0.00110628 -0.000849333 0.0194213)
(0.00102482 -0.000349591 0.0203077)
(0.000541001 9.87756e-05 0.0153476)
(-5.55882e-05 -0.000221319 0.0139562)
(0.000969733 -0.00044403 0.0192351)
(0.00116613 -8.76221e-07 0.0202933)
(0.000258395 0.00019476 0.0144036)
(0.00051004 0.000408788 0.0308341)
(0.00102806 -2.71456e-05 0.021872)
(0.00152692 0.00012723 0.0154931)
(0.00107115 -6.32433e-06 0.010447)
(0.000890893 0.000713652 0.0272933)
(3.40347e-05 -0.000126482 0.00497117)
(8.27552e-05 0.000178234 0.00534027)
(0.000245363 0.000372456 0.00467118)
(-0.000242932 0.000251328 0.00443162)
(9.75376e-05 -0.000240777 0.0055328)
(0.000525488 0.000106668 0.00515847)
(0.000277365 0.000210531 0.00402777)
(-0.000494173 -0.00094566 0.00406168)
(-0.000108912 -0.000102396 0.00527786)
(0.000416283 0.000328119 0.00491784)
(-0.000828042 0.000172286 0.00399923)
(-0.000604346 -0.00101748 0.00653231)
(0.000125904 9.48275e-05 0.00543183)
(0.000731412 0.000409487 0.00402031)
(-0.001083 -1.40706e-05 0.00328845)
(-0.00195796 0.000399612 0.00564745)
(4.92063e-05 -0.000226395 0.0108625)
(0.000106854 -5.20841e-07 0.0111245)
(8.58799e-05 0.000117766 0.0107768)
(-7.18576e-05 0.000110083 0.0108351)
(0.000132665 -0.000130008 0.0109168)
(0.000292006 2.9752e-05 0.0109203)
(0.000109452 5.0807e-05 0.0104406)
(-0.000141758 -0.000311166 0.0106497)
(0.000127257 3.59696e-05 0.0108111)
(0.000240871 0.000155337 0.0108512)
(-0.000262468 6.36166e-05 0.010504)
(-0.000241825 -0.000317929 0.0117045)
(0.000160321 0.000104906 0.0107645)
(0.000298104 0.00021682 0.010435)
(-0.00036643 8.38731e-05 0.0102066)
(-0.000603937 0.000188211 0.0116134)
(0.000146153 2.12427e-05 0.00910086)
(0.000138361 5.22427e-05 0.00917036)
(7.48145e-05 5.59895e-05 0.00904892)
(3.05405e-05 4.84171e-05 0.00910995)
(0.000111213 3.64864e-05 0.00915245)
(0.000154253 5.33076e-05 0.00912166)
(6.03653e-05 2.80735e-05 0.00895154)
(-1.03907e-05 -8.64103e-05 0.00904812)
(0.000101642 7.81653e-05 0.00913033)
(0.000112776 8.66687e-05 0.00910602)
(-6.69629e-05 2.92586e-05 0.00898534)
(-6.99151e-05 -9.35894e-05 0.00934794)
(7.44717e-05 6.56565e-05 0.00906348)
(9.94591e-05 9.40587e-05 0.00895611)
(-0.000120979 4.82009e-05 0.00887913)
(-0.00018346 6.3144e-05 0.00929948)
(6.49399e-05 -1.51767e-05 0.00945666)
(6.84236e-05 1.21469e-05 0.00946103)
(4.02962e-05 1.45466e-05 0.00941148)
(3.87944e-05 2.5051e-05 0.0094379)
(6.12838e-05 7.22367e-06 0.0094553)
(7.45321e-05 1.94253e-05 0.00944117)
(3.68264e-05 9.43816e-06 0.00938253)
(2.2226e-05 -2.0144e-05 0.00942172)
(7.01951e-05 3.54276e-05 0.00944095)
(6.41623e-05 3.48451e-05 0.00943137)
(-4.29175e-07 1.22015e-05 0.00939565)
(-4.03456e-06 -2.53528e-05 0.00950567)
(5.07079e-05 3.23878e-05 0.00939873)
(5.03693e-05 3.80163e-05 0.00937601)
(-2.39635e-05 2.18649e-05 0.00935895)
(-4.22965e-05 1.98525e-05 0.00949003)
(4.99765e-05 -1.10674e-06 0.00938817)
(4.88653e-05 6.47953e-06 0.0094057)
(3.34796e-05 3.43155e-06 0.00939493)
(3.59568e-05 1.11825e-05 0.00940991)
(4.3804e-05 6.9681e-06 0.00940726)
(4.6603e-05 9.48658e-06 0.00940999)
(3.11218e-05 3.46182e-06 0.00939338)
(2.84065e-05 -4.73656e-06 0.00940885)
(4.80918e-05 1.78139e-05 0.00941342)
(4.29577e-05 1.46079e-05 0.00941129)
(1.90301e-05 4.70572e-06 0.00939992)
(1.65754e-05 -8.26918e-06 0.009433)
(3.5474e-05 1.47859e-05 0.00939569)
(3.34731e-05 1.37233e-05 0.0093921)
(8.36671e-06 6.78964e-06 0.0093877)
(2.28108e-06 3.49332e-06 0.00942776)
(3.09231e-05 -3.21337e-06 0.00938195)
(3.11527e-05 4.22049e-07 0.00939872)
(2.51463e-05 -1.24875e-06 0.00939846)
(2.77731e-05 3.33414e-06 0.00940464)
(2.8645e-05 8.44244e-07 0.00940219)
(2.98449e-05 1.8541e-06 0.00940914)
(2.44739e-05 -7.88886e-07 0.00940515)
(2.45424e-05 -2.60697e-06 0.00940934)
(3.10036e-05 5.80011e-06 0.00941134)
(2.85788e-05 3.82722e-06 0.00941303)
(2.05319e-05 -1.68075e-07 0.00940906)
(1.96849e-05 -4.88776e-06 0.00941762)
(2.44773e-05 4.2097e-06 0.00940511)
(2.39883e-05 2.68831e-06 0.00940676)
(1.57483e-05 -3.02933e-07 0.0094053)
(1.39283e-05 -2.75348e-06 0.0094164)
(2.03053e-05 -3.27602e-06 0.00937457)
(2.09532e-05 -1.80496e-06 0.00939438)
(1.88953e-05 -2.48324e-06 0.00939963)
(2.05187e-05 -1.89834e-07 0.00940285)
(1.93339e-05 -1.6332e-06 0.00939809)
(2.03747e-05 -1.32105e-06 0.00940834)
(1.87903e-05 -2.39224e-06 0.00940936)
(1.91573e-05 -2.70767e-06 0.00941013)
(2.02448e-05 4.84986e-07 0.00940904)
(1.98384e-05 -6.46347e-07 0.00941404)
(1.7435e-05 -2.40649e-06 0.00941344)
(1.72166e-05 -4.11957e-06 0.00941467)
(1.72099e-05 -4.44424e-07 0.00940906)
(1.75725e-05 -1.56634e-06 0.00941325)
(1.53099e-05 -3.02806e-06 0.00941298)
(1.49134e-05 -4.32697e-06 0.00941525)
(1.35818e-05 -3.16625e-06 0.00937063)
(1.44566e-05 -2.47541e-06 0.00939225)
(1.40113e-05 -2.6317e-06 0.00940005)
(1.48945e-05 -1.57574e-06 0.00940249)
(1.32813e-05 -2.54046e-06 0.00939548)
(1.43051e-05 -2.44051e-06 0.00940761)
(1.40827e-05 -2.80623e-06 0.00941078)
(1.43921e-05 -2.81138e-06 0.0094109)
(1.35887e-05 -1.67433e-06 0.00940718)
(1.40707e-05 -2.2846e-06 0.00941423)
(1.36074e-05 -3.05235e-06 0.00941518)
(1.36452e-05 -3.71133e-06 0.00941467)
(1.22301e-05 -2.12343e-06 0.00941003)
(1.29952e-05 -2.87106e-06 0.00941568)
(1.26563e-05 -3.64165e-06 0.00941621)
(1.27437e-05 -4.26692e-06 0.00941589)
(9.31921e-06 -2.79338e-06 0.00936798)
(1.01763e-05 -2.42689e-06 0.00939081)
(1.02964e-05 -2.38965e-06 0.0094)
(1.07506e-05 -1.90037e-06 0.00940256)
(9.26298e-06 -2.61063e-06 0.00939344)
(1.01921e-05 -2.58022e-06 0.00940675)
(1.04144e-05 -2.67665e-06 0.00941111)
(1.06373e-05 -2.6124e-06 0.00941145)
(9.34754e-06 -2.28299e-06 0.0094055)
(1.00795e-05 -2.60642e-06 0.00941382)
(1.02486e-05 -2.9388e-06 0.00941571)
(1.03787e-05 -3.19719e-06 0.00941513)
(8.77174e-06 -2.4865e-06 0.00940965)
(9.58607e-06 -2.96199e-06 0.00941621)
(9.82865e-06 -3.38539e-06 0.00941732)
(1.00286e-05 -3.6905e-06 0.00941658)
(6.49613e-06 -2.34151e-06 0.00936625)
(7.22494e-06 -2.11068e-06 0.00938988)
(7.49698e-06 -2.01817e-06 0.0093999)
(7.73915e-06 -1.76756e-06 0.00940282)
(6.52365e-06 -2.34387e-06 0.00939195)
(7.29782e-06 -2.32201e-06 0.00940604)
(7.61975e-06 -2.31514e-06 0.00941114)
(7.78052e-06 -2.23092e-06 0.0094119)
(6.54867e-06 -2.2188e-06 0.00940415)
(7.25307e-06 -2.39158e-06 0.00941329)
(7.58105e-06 -2.53026e-06 0.00941583)
(7.71654e-06 -2.61029e-06 0.00941557)
(6.30003e-06 -2.29524e-06 0.00940885)
(7.02327e-06 -2.59593e-06 0.00941603)
(7.40606e-06 -2.83758e-06 0.00941763)
(7.57216e-06 -3.0079e-06 0.00941707)
(4.56168e-06 -1.87608e-06 0.00936509)
(5.13444e-06 -1.71564e-06 0.00938924)
(5.40518e-06 -1.62291e-06 0.00939981)
(5.54698e-06 -1.47542e-06 0.0094031)
(4.61072e-06 -1.94814e-06 0.00939086)
(5.21586e-06 -1.9235e-06 0.00940546)
(5.51567e-06 -1.88217e-06 0.00941107)
(5.63669e-06 -1.79573e-06 0.00941223)
(4.62538e-06 -1.89705e-06 0.00940312)
(5.2085e-06 -1.98972e-06 0.00941277)
(5.53037e-06 -2.04092e-06 0.00941578)
(5.64739e-06 -2.03911e-06 0.00941588)
(4.51242e-06 -1.91133e-06 0.009408)
(5.09948e-06 -2.09991e-06 0.00941562)
(5.47092e-06 -2.24239e-06 0.00941761)
(5.58026e-06 -2.34869e-06 0.00941734)
(3.19143e-06 -1.43907e-06 0.0093643)
(3.61827e-06 -1.32584e-06 0.0093888)
(3.84142e-06 -1.24828e-06 0.00939973)
(3.93199e-06 -1.15139e-06 0.00940333)
(3.24031e-06 -1.52792e-06 0.00939007)
(3.69105e-06 -1.5019e-06 0.00940502)
(3.93308e-06 -1.45436e-06 0.00941098)
(4.02626e-06 -1.37836e-06 0.00941246)
(3.25555e-06 -1.50387e-06 0.00940233)
(3.7011e-06 -1.55276e-06 0.00941233)
(3.96442e-06 -1.56654e-06 0.00941566)
(4.06471e-06 -1.53671e-06 0.00941606)
(3.20185e-06 -1.49187e-06 0.00940725)
(3.64861e-06 -1.6072e-06 0.00941518)
(3.95297e-06 -1.68787e-06 0.00941746)
(4.03917e-06 -1.74837e-06 0.00941745)
(2.19076e-06 -1.04724e-06 0.00936377)
(2.49245e-06 -9.69131e-07 0.0093885)
(2.65934e-06 -9.09614e-07 0.00939967)
(2.71904e-06 -8.42319e-07 0.00940351)
(2.2309e-06 -1.1283e-06 0.00938951)
(2.55104e-06 -1.10396e-06 0.00940469)
(2.73071e-06 -1.06208e-06 0.00941089)
(2.80091e-06 -1.00251e-06 0.0094126)
(2.24648e-06 -1.11463e-06 0.00940174)
(2.56667e-06 -1.13937e-06 0.00941197)
(2.76107e-06 -1.14026e-06 0.00941554)
(2.84698e-06 -1.11318e-06 0.00941616)
(2.22046e-06 -1.09531e-06 0.00940665)
(2.53987e-06 -1.16281e-06 0.00941479)
(2.75984e-06 -1.20288e-06 0.00941729)
(2.85358e-06 -1.22439e-06 0.00941748)
(1.43533e-06 -6.98295e-07 0.00936341)
(1.63616e-06 -6.46069e-07 0.0093883)
(1.75193e-06 -6.03182e-07 0.00939963)
(1.79075e-06 -5.57307e-07 0.00940362)
(1.46499e-06 -7.58128e-07 0.00938912)
(1.67974e-06 -7.37771e-07 0.00940446)
(1.8037e-06 -7.05398e-07 0.00941082)
(1.85267e-06 -6.63625e-07 0.00941269)
(1.47931e-06 -7.47979e-07 0.00940132)
(1.69498e-06 -7.59108e-07 0.0094117)
(1.82661e-06 -7.56983e-07 0.00941543)
(1.89376e-06 -7.43958e-07 0.00941621)
(1.46741e-06 -7.30025e-07 0.00940621)
(1.68051e-06 -7.673e-07 0.00941449)
(1.82092e-06 -7.83674e-07 0.00941715)
(1.91894e-06 -7.79193e-07 0.00941749)
(8.56323e-07 -3.77501e-07 0.00936319)
(9.80689e-07 -3.44912e-07 0.00938816)
(1.05531e-06 -3.16435e-07 0.00939959)
(1.08162e-06 -2.86518e-07 0.00940368)
(8.77126e-07 -4.07343e-07 0.00938887)
(1.00995e-06 -3.92409e-07 0.0094043)
(1.08946e-06 -3.69703e-07 0.00941076)
(1.12153e-06 -3.4319e-07 0.00941273)
(8.89169e-07 -3.95864e-07 0.00940105)
(1.02262e-06 -3.98636e-07 0.00941152)
(1.10507e-06 -3.94962e-07 0.00941534)
(1.14937e-06 -3.92154e-07 0.00941623)
(8.86023e-07 -3.81128e-07 0.00940591)
(1.01682e-06 -3.99346e-07 0.00941429)
(1.09731e-06 -4.04854e-07 0.00941703)
(1.17387e-06 -3.92201e-07 0.00941749)
(4.25414e-07 -1.13696e-07 0.00936301)
(4.98064e-07 -9.28864e-08 0.00938804)
(5.46572e-07 -7.26571e-08 0.00939952)
(5.69381e-07 -5.24003e-08 0.00940368)
(4.43985e-07 -1.08087e-07 0.00938868)
(5.18248e-07 -9.52609e-08 0.00940416)
(5.67285e-07 -7.96026e-08 0.00941068)
(5.9017e-07 -6.33012e-08 0.00941272)
(4.56255e-07 -8.86132e-08 0.00940085)
(5.29545e-07 -8.47918e-08 0.00941138)
(5.78585e-07 -7.88309e-08 0.00941526)
(6.03593e-07 -7.57377e-08 0.00941621)
(4.59939e-07 -7.25889e-08 0.00940571)
(5.31388e-07 -7.80577e-08 0.00941414)
(5.77081e-07 -7.98345e-08 0.00941695)
(6.14676e-07 -7.39587e-08 0.00941747)
(0.000302519 -0.00259596 0.0145631)
(-0.00182925 -0.00143907 0.0159202)
(-0.00263376 -0.00110669 0.0177516)
(-0.00235422 -0.000115014 0.0131892)
(0.00162176 -0.00026797 0.0101579)
(0.00227416 -1.20359e-05 0.0155772)
(5.80223e-05 -0.00137779 0.0165468)
(-0.000887046 -0.00107478 0.0224303)
(0.000241712 9.36368e-05 0.0123003)
(0.000279735 -0.00132624 0.020264)
(-0.000716379 -0.000349144 0.0141952)
(0.000417734 0.000254836 0.0102451)
(0.000712034 0.000657465 0.010062)
(0.00105449 0.000811819 0.00835867)
(0.00134998 -0.000208538 0.0176065)
(-2.34762e-05 0.000688419 0.0167733)
(-0.00233881 0.000884242 0.028524)
(-0.00259823 -0.000784031 0.0184906)
(-6.14152e-05 -0.00147995 0.0157638)
(0.00020126 -0.000142781 0.0106607)
(-0.000538477 -0.000434739 0.00809557)
(-0.00378595 -0.00307499 0.0285118)
(-0.000634185 -0.000202919 0.0146739)
(-0.00018789 -0.000515185 0.0139466)
(-0.000962074 -0.00141969 0.0224691)
(-0.000192781 -0.000408464 0.0123635)
(0.000187266 -0.00040676 0.0113803)
(-0.000703869 -0.000592982 0.0167857)
(-0.000485117 0.000363311 0.0192051)
(-0.00211425 0.00223054 0.020723)
(-0.000364597 0.000795445 0.0192486)
(0.000426817 0.00105934 0.0198515)
(0.000419964 0.000655098 0.0356605)
(0.00102863 0.00119563 0.0259857)
(0.000299822 0.00030179 0.0115146)
(-0.000380343 0.000497333 0.0225065)
(-0.000174455 0.00221055 0.0313698)
(-0.000573626 0.0016042 0.0224609)
(-0.000324249 0.000843082 0.016732)
(0.00125038 0.000413678 0.0429706)
(-0.000177321 0.0013418 0.0203413)
(5.10231e-05 -0.000626456 0.0226194)
(-0.00128029 -0.00105048 0.0291798)
(-0.000570454 -0.000251024 0.00930076)
(-0.0017668 -0.000242394 0.0153121)
(-0.000919898 -0.000275841 0.00902876)
(0.000297977 0.000116393 0.0102394)
(-0.000902669 0.000200925 0.0306784)
(-0.000380872 -0.00136667 0.0167019)
(-8.00446e-05 -0.000208102 0.0141307)
(-0.00176069 0.00103492 0.0237157)
(1.06467e-05 -4.03675e-05 0.000875596)
(0.000212558 0.000304696 0.00326982)
(0.00204046 0.00309218 0.0382991)
(-0.000252396 0.000516453 0.0119333)
(-0.000523622 0.00216359 0.0239285)
(-0.00167859 0.00187878 0.0250327)
(-0.00132053 0.00166977 0.0259522)
(3.46126e-06 0.00218767 0.0252463)
(-0.000585849 0.000456919 0.0200538)
(0.000281746 -0.000870695 0.0318826)
(8.33445e-06 -0.000121282 0.00577605)
(-0.000924194 -0.000479991 0.0152724)
(-0.00027453 -0.00140863 0.0230741)
(-0.000818203 0.00176525 0.0465899)
(0.000768929 2.95587e-05 0.012413)
(0.00311211 0.00214312 0.0309614)
(-0.000410504 0.000394202 0.00982696)
(-0.00104236 -0.000181577 0.0174469)
(7.97427e-05 0.00102506 0.0278062)
(0.000909611 0.000340608 0.0158396)
(-0.00129202 -0.000685547 0.0276038)
(0.000867063 0.000544152 0.0326426)
(-0.000181748 0.00121296 0.0142684)
(1.79031e-05 0.00127853 0.0286587)
(0.000819597 0.000787805 0.0225751)
(0.00100357 0.000812603 0.0149666)
(0.00128455 0.000950576 0.019408)
(-0.000865608 0.000370872 0.0254921)
(-0.000685642 6.54858e-05 0.01963)
(0.000673197 0.00132861 0.00855997)
(0.000712089 0.00110093 0.00610557)
(-0.000527623 0.00147308 0.0125401)
(-0.000700158 0.000981847 0.022976)
(0.000930829 0.0017217 0.0120465)
(0.00155176 0.0014581 0.0108943)
(0.000467891 0.000858709 0.0149742)
(-0.000766743 1.92772e-05 0.013938)
(0.000533668 0.000444172 0.00965149)
(0.00071897 0.000470549 0.0183346)
(-0.000302506 0.000325545 0.0069281)
(-0.0010062 -0.000117735 0.0131714)
(0.00169703 8.86503e-05 0.0176414)
(0.00143905 -0.000382638 0.00880888)
(0.000264365 -0.000384 0.0147337)
(-0.00146103 -8.1403e-05 0.0140409)
(0.000253935 0.000142185 0.0202551)
(4.14437e-05 -6.16923e-06 0.0103593)
(-0.00023025 -9.63452e-05 0.0180164)
(0.000214279 1.19302e-05 0.0156959)
(-0.00166675 0.00316694 0.00577251)
(-0.0003596 -0.00010877 0.0153327)
(-7.68644e-05 8.63172e-05 0.0164287)
(-8.31349e-05 0.000318339 0.0186779)
(-0.000170371 4.77894e-05 0.0174964)
(0.000274568 0.00024299 0.0213851)
(-0.00257969 -0.00514024 0.0116821)
(-0.000212319 1.26783e-05 0.0137491)
(-0.000194354 -0.000769381 0.00908268)
(-0.000302505 -0.00319072 0.00940444)
(-0.00142762 -0.00174414 0.020008)
(-0.000718272 -0.000130402 0.0136332)
(0.000560027 -0.000697551 0.0203415)
(0.000461143 -0.00131693 0.0176365)
(0.000554111 -0.00168359 0.0184742)
(0.00103707 -0.00150931 0.0181307)
(-0.000240085 -0.0012486 0.0149903)
(-0.000379477 -0.00231432 0.0184688)
(0.00024913 -0.00153856 0.0196433)
(0.000922343 -0.000925584 0.0190594)
(-0.000288809 -0.000688441 0.0219849)
(0.000461931 -0.000453474 0.0222108)
(0.00125001 -0.000835325 0.0178904)
(0.0010753 -0.000247683 0.0155192)
(-0.000397413 -0.000405363 0.0161316)
(-0.000956076 -0.000828133 0.0178464)
(-0.000224375 -0.000422641 0.0165836)
(0.00054121 -0.000573919 0.0166894)
(0.000177351 0.000218451 0.00556306)
(0.000362992 0.000118291 0.00532287)
(0.000330612 -0.00010622 0.00548569)
(0.000419398 -0.000145673 0.00541367)
(-5.02607e-05 -0.000541367 0.00451082)
(-0.0001079 -0.000733786 0.00549584)
(0.000105702 -0.000331094 0.0058768)
(0.000206101 -5.52975e-05 0.00572817)
(0.000294088 -0.000137013 0.00657258)
(0.00088846 6.69285e-05 0.00703416)
(0.00103896 0.000200922 0.00575844)
(0.00034658 0.000182514 0.0050578)
(-8.64016e-05 -4.21746e-05 0.00454076)
(7.24513e-05 -0.00025202 0.00514301)
(0.000271727 -5.21419e-05 0.00523374)
(-0.00011296 -0.000265629 0.00497517)
(0.000131871 -0.000151619 0.0111488)
(0.000184518 -0.000214074 0.0110856)
(0.000237649 -0.000238175 0.0110639)
(0.000234634 -0.000233472 0.0109942)
(3.23712e-05 -0.000415215 0.0105212)
(6.17282e-06 -0.000476323 0.0108591)
(0.000163412 -0.000286656 0.0109798)
(0.00020015 -0.000149634 0.0109272)
(6.09719e-05 5.23604e-06 0.0113955)
(0.000333154 6.54917e-05 0.0113938)
(0.000538877 0.000125085 0.0109344)
(0.000320997 9.95987e-05 0.0106701)
(-0.000118307 8.90298e-05 0.0103076)
(-6.278e-05 3.10901e-06 0.0105453)
(0.000141668 4.54275e-05 0.0105002)
(8.5602e-05 -7.94688e-06 0.0104912)
(6.37794e-05 1.6218e-05 0.00895215)
(0.000130599 2.96515e-05 0.00904957)
(0.00015007 2.01482e-05 0.0091)
(0.000167833 2.29141e-05 0.00911637)
(1.85813e-05 -5.14756e-05 0.00885019)
(4.0034e-05 -4.85564e-05 0.00907417)
(7.09535e-05 5.72238e-06 0.0091624)
(0.000102337 4.93132e-05 0.00916409)
(5.01282e-05 0.000112451 0.00926641)
(0.000185966 0.000134916 0.00938069)
(0.000232852 0.000142018 0.00925279)
(0.000167476 0.000119743 0.00914108)
(-1.59133e-05 0.000101972 0.00873646)
(2.38323e-05 6.95612e-05 0.00896128)
(6.29123e-05 6.64972e-05 0.00901194)
(5.11527e-05 4.67377e-05 0.00901856)
(3.66686e-05 -2.77706e-05 0.00932063)
(5.96632e-05 -2.29614e-05 0.00940023)
(7.82104e-05 -1.70923e-05 0.00944863)
(8.18257e-05 -1.36505e-05 0.00946722)
(1.49462e-05 -4.99859e-05 0.00923469)
(2.58082e-05 -4.54888e-05 0.00935864)
(5.22696e-05 -2.01495e-05 0.00943173)
(6.58777e-05 5.07456e-07 0.00945702)
(1.84676e-05 4.80502e-05 0.0093958)
(7.7981e-05 5.5156e-05 0.00947749)
(0.000112971 5.72046e-05 0.00947264)
(9.85955e-05 4.79903e-05 0.00944935)
(-1.44734e-05 5.62187e-05 0.00915135)
(5.41585e-06 4.25908e-05 0.00928317)
(3.79807e-05 3.74206e-05 0.00934796)
(4.49056e-05 2.99595e-05 0.0093782)
(2.28508e-05 -1.02591e-05 0.00913882)
(3.91081e-05 -4.57937e-06 0.00924709)
(4.83376e-05 -2.27161e-06 0.00931898)
(5.30153e-05 -1.00955e-06 0.00936276)
(9.23812e-06 -1.46166e-05 0.00914027)
(2.04099e-05 -1.15036e-05 0.00926877)
(3.28156e-05 -2.49966e-06 0.00934829)
(4.22902e-05 5.29338e-06 0.00938966)
(1.05981e-05 2.86113e-05 0.00923725)
(4.12764e-05 3.05404e-05 0.00934882)
(5.77696e-05 2.96315e-05 0.00939561)
(5.69348e-05 2.47219e-05 0.00940946)
(-3.68407e-06 3.00675e-05 0.00913951)
(8.99952e-06 2.40355e-05 0.00927519)
(2.43796e-05 2.02158e-05 0.00934823)
(3.15275e-05 1.66459e-05 0.00938215)
(1.40612e-05 -9.70305e-06 0.00911812)
(2.20088e-05 -6.77298e-06 0.00922617)
(2.76062e-05 -4.96168e-06 0.0093022)
(3.12308e-05 -4.00735e-06 0.00935097)
(6.91313e-06 -9.97269e-06 0.00913171)
(1.38067e-05 -8.13207e-06 0.00925314)
(2.10483e-05 -4.11561e-06 0.00933339)
(2.70445e-05 -4.1119e-07 0.00937961)
(6.12788e-06 1.14034e-05 0.00918503)
(2.16496e-05 1.21499e-05 0.00930228)
(3.10304e-05 1.14315e-05 0.0093682)
(3.34392e-05 9.13762e-06 0.00939925)
(-3.79291e-07 1.32339e-05 0.00914808)
(7.42348e-06 1.05415e-05 0.00927697)
(1.60417e-05 8.47371e-06 0.00935256)
(2.14937e-05 6.19047e-06 0.00939024)
(9.18933e-06 -7.06488e-06 0.00909361)
(1.38631e-05 -5.57281e-06 0.00920496)
(1.71765e-05 -4.65839e-06 0.00928513)
(1.98257e-05 -4.17956e-06 0.00933832)
(4.93369e-06 -6.39466e-06 0.00911869)
(9.64144e-06 -5.47387e-06 0.00924023)
(1.40587e-05 -3.67994e-06 0.00932227)
(1.78805e-05 -2.0826e-06 0.0093717)
(3.88518e-06 3.85656e-06 0.00915633)
(1.24308e-05 3.97957e-06 0.00927819)
(1.78847e-05 3.31278e-06 0.00935254)
(2.02896e-05 2.11514e-06 0.00939163)
(6.53422e-07 5.30812e-06 0.00914735)
(5.68078e-06 3.74247e-06 0.00927496)
(1.10237e-05 2.20628e-06 0.00935225)
(1.49745e-05 7.62423e-07 0.00939218)
(6.22416e-06 -5.43054e-06 0.00908273)
(8.97456e-06 -4.72954e-06 0.00919506)
(1.10705e-05 -4.23338e-06 0.00927692)
(1.29907e-05 -3.96875e-06 0.009332)
(3.62706e-06 -4.62797e-06 0.00911148)
(6.772e-06 -4.17933e-06 0.00923315)
(9.61516e-06 -3.40714e-06 0.00931607)
(1.2135e-05 -2.70754e-06 0.00936704)
(2.5787e-06 3.19528e-07 0.00914164)
(7.41089e-06 2.37883e-07 0.00926562)
(1.0812e-05 -1.81862e-07 0.00934367)
(1.29026e-05 -8.61644e-07 0.00938668)
(9.57094e-07 1.44009e-06 0.00914496)
(4.37752e-06 4.28069e-07 0.00927231)
(7.73332e-06 -5.30257e-07 0.00935051)
(1.04527e-05 -1.38329e-06 0.00939177)
(4.34746e-06 -4.09294e-06 0.0090762)
(6.06958e-06 -3.78088e-06 0.00918911)
(7.44218e-06 -3.53126e-06 0.0092719)
(8.82076e-06 -3.41546e-06 0.00932799)
(2.68976e-06 -3.48126e-06 0.00910645)
(4.8288e-06 -3.28139e-06 0.00922835)
(6.68827e-06 -2.94212e-06 0.00931189)
(8.38626e-06 -2.66196e-06 0.00936377)
(1.79901e-06 -1.0292e-06 0.00913334)
(4.73246e-06 -1.18539e-06 0.0092584)
(6.94015e-06 -1.50579e-06 0.00933832)
(8.53694e-06 -1.8843e-06 0.0093833)
(8.78796e-07 -2.22197e-07 0.00914221)
(3.19441e-06 -8.66806e-07 0.00926955)
(5.46602e-06 -1.47872e-06 0.00934828)
(7.42329e-06 -2.00901e-06 0.00939043)
(3.09065e-06 -3.06428e-06 0.00907249)
(4.21251e-06 -2.94233e-06 0.00918565)
(5.13168e-06 -2.82918e-06 0.0092689)
(6.11699e-06 -2.79954e-06 0.00932551)
(2.00088e-06 -2.66398e-06 0.00910312)
(3.46187e-06 -2.58759e-06 0.00922517)
(4.69694e-06 -2.46078e-06 0.00930909)
(5.86659e-06 -2.36037e-06 0.00936154)
(1.30525e-06 -1.44441e-06 0.00912861)
(3.15385e-06 -1.60566e-06 0.00925419)
(4.62003e-06 -1.81639e-06 0.009335)
(5.82097e-06 -2.0165e-06 0.009381)
(7.29313e-07 -8.19497e-07 0.00913979)
(2.35782e-06 -1.24353e-06 0.00926722)
(3.92825e-06 -1.64613e-06 0.00934633)
(5.29761e-06 -1.98658e-06 0.00938901)
(2.21568e-06 -2.27035e-06 0.00907023)
(2.96875e-06 -2.23594e-06 0.00918352)
(3.59251e-06 -2.19504e-06 0.00926701)
(4.29067e-06 -2.20696e-06 0.00932391)
(1.48408e-06 -2.03846e-06 0.00910086)
(2.48778e-06 -2.02393e-06 0.00922301)
(3.31959e-06 -1.98718e-06 0.00930719)
(4.13357e-06 -1.95571e-06 0.00935998)
(9.57684e-07 -1.40699e-06 0.00912573)
(2.16831e-06 -1.53783e-06 0.00925157)
(3.16825e-06 -1.6752e-06 0.00933286)
(4.04747e-06 -1.7877e-06 0.00937941)
(5.75755e-07 -9.23529e-07 0.00913789)
(1.72644e-06 -1.21519e-06 0.00926539)
(2.81139e-06 -1.49021e-06 0.00934472)
(3.77234e-06 -1.71406e-06 0.00938773)
(1.58125e-06 -1.65471e-06 0.00906882)
(2.09325e-06 -1.65716e-06 0.00918217)
(2.51731e-06 -1.65059e-06 0.0092658)
(3.00462e-06 -1.6765e-06 0.00932285)
(1.08662e-06 -1.53461e-06 0.00909933)
(1.77481e-06 -1.54506e-06 0.00922155)
(2.33813e-06 -1.5424e-06 0.00930589)
(2.9037e-06 -1.53437e-06 0.0093589)
(6.99726e-07 -1.184e-06 0.00912392)
(1.51118e-06 -1.28258e-06 0.00924989)
(2.19794e-06 -1.37485e-06 0.00933143)
(2.82648e-06 -1.44203e-06 0.00937829)
(4.3231e-07 -8.30172e-07 0.00913643)
(1.2383e-06 -1.0319e-06 0.00926397)
(1.98892e-06 -1.22031e-06 0.00934345)
(2.66487e-06 -1.36739e-06 0.00938669)
(1.10173e-06 -1.1686e-06 0.00906793)
(1.44661e-06 -1.18289e-06 0.00918131)
(1.73134e-06 -1.18904e-06 0.00926501)
(2.06437e-06 -1.21472e-06 0.00932215)
(7.71051e-07 -1.11224e-06 0.00909831)
(1.23564e-06 -1.12891e-06 0.00922057)
(1.61389e-06 -1.13586e-06 0.00930501)
(2.00035e-06 -1.13413e-06 0.00935815)
(4.97092e-07 -9.06721e-07 0.00912275)
(1.04045e-06 -9.77248e-07 0.00924878)
(1.50672e-06 -1.03879e-06 0.00933047)
(1.94313e-06 -1.07933e-06 0.0093775)
(3.0875e-07 -6.59829e-07 0.00913536)
(8.61674e-07 -7.96881e-07 0.00926292)
(1.37546e-06 -9.23031e-07 0.0093425)
(1.84338e-06 -1.01808e-06 0.0093859)
(7.24154e-07 -7.73102e-07 0.00906737)
(9.48084e-07 -7.86212e-07 0.00918075)
(1.13293e-06 -7.92748e-07 0.00926451)
(1.35106e-06 -8.10909e-07 0.0093217)
(5.12281e-07 -7.46512e-07 0.00909763)
(8.1364e-07 -7.59584e-07 0.00921992)
(1.05953e-06 -7.65549e-07 0.00930443)
(1.313e-06 -7.63652e-07 0.00935765)
(3.30904e-07 -6.22773e-07 0.00912199)
(6.82446e-07 -6.68433e-07 0.00924806)
(9.87008e-07 -7.06504e-07 0.00932982)
(1.27611e-06 -7.29273e-07 0.00937695)
(2.06225e-07 -4.58989e-07 0.0091346)
(5.68794e-07 -5.46643e-07 0.00926219)
(9.06064e-07 -6.25881e-07 0.00934184)
(1.21606e-06 -6.84132e-07 0.00938533)
(4.16774e-07 -4.38267e-07 0.00906703)
(5.52539e-07 -4.41121e-07 0.00918042)
(6.65514e-07 -4.40265e-07 0.0092642)
(7.97448e-07 -4.45957e-07 0.00932142)
(2.93226e-07 -4.16127e-07 0.00909722)
(4.74921e-07 -4.19747e-07 0.00921952)
(6.24723e-07 -4.19315e-07 0.00930406)
(7.7961e-07 -4.13883e-07 0.00935733)
(1.89445e-07 -3.39155e-07 0.00912152)
(4.00327e-07 -3.62204e-07 0.00924761)
(5.84613e-07 -3.80228e-07 0.00932942)
(7.61524e-07 -3.89013e-07 0.0093766)
(1.21461e-07 -2.36983e-07 0.00913412)
(3.39735e-07 -2.85375e-07 0.00926171)
(5.42619e-07 -3.27764e-07 0.00934141)
(7.31161e-07 -3.5777e-07 0.00938496)
(1.77818e-07 -1.77219e-07 0.00906676)
(2.47813e-07 -1.6868e-07 0.00918016)
(3.11488e-07 -1.55447e-07 0.00926396)
(3.79175e-07 -1.45037e-07 0.0093212)
(1.17455e-07 -1.46433e-07 0.00909692)
(2.12485e-07 -1.40232e-07 0.00921924)
(2.98544e-07 -1.29835e-07 0.0093038)
(3.83098e-07 -1.18247e-07 0.0093571)
(7.26368e-08 -8.88443e-08 0.00912121)
(1.82894e-07 -9.3782e-08 0.00924731)
(2.8623e-07 -9.46639e-08 0.00932915)
(3.82739e-07 -9.17959e-08 0.00937637)
(5.20488e-08 -2.29796e-08 0.00913381)
(1.65143e-07 -4.21199e-08 0.00926141)
(2.75069e-07 -5.70796e-08 0.00934113)
(3.75937e-07 -6.61721e-08 0.00938472)
(-0.00296591 -0.001185 0.0182755)
(-0.000446722 0.000531523 0.00767486)
(-0.000366521 0.000807064 0.0149738)
(0.000364381 0.000448678 0.00715181)
(-0.00124118 -0.00214136 0.0120477)
(-0.000214668 -3.99162e-05 0.021877)
(4.68642e-05 0.000774778 0.0129144)
(8.46476e-05 0.0011126 0.0111723)
(-0.000361939 -0.000464412 0.0122656)
(5.38459e-05 -0.00116432 0.0119715)
(0.000429532 -0.000810428 0.0135321)
(0.000263421 -0.00105419 0.019559)
(-0.000433193 -0.00107166 0.0162577)
(-0.000344796 -7.04309e-05 0.0119479)
(0.000141102 -0.000410601 0.01331)
(0.000209342 -0.00036315 0.00382765)
(-5.8782e-05 0.000364467 0.0271335)