/*--------------------------------*- C++ -*----------------------------------*\
| =========                 |                                                 |
| \\      /  F ield         | OpenFOAM: The Open Source CFD Toolbox           |
|  \\    /   O peration     | Version:  2506                                  |
|   \\  /    A nd           | Website:  www.openfoam.com                      |
|    \\/     M anipulation  |                                                 |
\*---------------------------------------------------------------------------*/
FoamFile
{
    version     2.0;
    format      ascii;
    arch        "LSB;label=32;scalar=64";
    class       volVectorField;
    location    "0.04";
    object      Us;
}
// * * * * * * * * * * * * * * * * * * * * * * * * * * * * * * * * * * * * * //

dimensions      [0 1 -1 0 0 0 0];

internalField   nonuniform List<vector> 
1152
(
(-7.89549e-05 2.07869e-05 0.000109285)
(-6.25982e-05 0.000147491 8.49731e-05)
(-5.70599e-05 8.6788e-05 9.11889e-05)
(-1.13404e-05 0.000219684 0.000114107)
(-7.82637e-05 2.6828e-05 8.95079e-05)
(-5.61547e-05 1.61922e-05 0.000106935)
(-0.000147165 -5.8824e-06 0.000125312)
(-8.6715e-05 0.000296474 0.000155738)
(0.000134114 4.63321e-05 0.00021182)
(0.000142773 0.000188186 0.000106241)
(0.000215425 0.000136436 3.72067e-05)
(-2.32496e-05 0.000251191 0.000189628)
(0.000110527 2.6124e-05 0.000122626)
(0.000101589 4.09412e-05 0.000174306)
(0.000204143 3.81707e-05 0.000165432)
(0.000122598 0.000122013 9.53547e-05)
(-7.41598e-05 2.75558e-05 0.00032406)
(-1.4857e-05 5.15805e-05 0.000198033)
(0.000173012 0.000231647 0.000310368)
(8.50029e-05 0.000389398 0.000326141)
(6.04959e-06 -0.000104043 0.00024751)
(6.50025e-06 -3.6708e-05 0.000167312)
(0.000195565 0.000327808 0.000399152)
(-0.000284594 0.000245798 0.000463593)
(0.000131325 8.26666e-05 0.00031385)
(6.4317e-05 0.000137696 0.000323732)
(0.000284085 9.04823e-05 0.000486054)
(-9.36838e-05 0.000255491 0.00062313)
(-6.54802e-05 0.000150425 0.000489302)
(-5.05741e-06 4.0412e-05 0.000324529)
(0.000125519 -0.000137125 0.00044892)
(-1.90215e-06 0.000102282 0.000442207)
(-2.93472e-05 3.45935e-05 0.000395159)
(5.93749e-05 0.000131342 0.000370544)
(5.53305e-05 0.000295294 0.000514259)
(8.17275e-05 0.000357329 0.000559867)
(-4.33139e-05 -3.17885e-05 0.000523623)
(5.07555e-05 0.000163667 0.000558152)
(8.11907e-05 0.000197682 0.000639389)
(3.88308e-05 0.000365256 0.000712712)
(0.000155977 0.000148789 0.000583662)
(-8.40262e-05 0.000278898 0.000630844)
(-2.51802e-05 0.000119341 0.000713451)
(-9.30484e-05 0.000268137 0.000925757)
(0.000287068 0.000252072 0.000548845)
(-0.000106991 0.000344154 0.000816886)
(-9.52536e-05 -3.72497e-06 0.000553729)
(-0.000153173 -4.19593e-05 0.000878505)
(-1.98019e-05 0.000234814 0.000717738)
(-7.55339e-05 0.000197571 0.000660834)
(2.34492e-05 0.000132445 0.000725922)
(-3.53899e-05 0.000343503 0.000783065)
(9.12161e-05 3.17557e-05 0.000684116)
(-3.08021e-05 0.000161912 0.000840821)
(-0.000114886 5.90052e-05 0.000639401)
(3.95749e-05 0.000370151 0.000735424)
(-1.95471e-05 7.50765e-05 0.000821737)
(3.01916e-05 5.50228e-05 0.000778757)
(7.70453e-05 0.000207176 0.00071755)
(1.39865e-05 0.000217627 0.000737971)
(1.66124e-05 6.18616e-05 0.000691824)
(9.8947e-05 6.64593e-05 0.000732503)
(0.000395617 2.40768e-05 0.000696301)
(6.68252e-05 0.000118645 0.000729829)
(-4.24278e-05 0.000122978 0.000775927)
(-1.787e-05 0.000122597 0.000706907)
(-1.78683e-05 0.000171636 0.000676996)
(3.41262e-05 0.000242283 0.000723588)
(-0.000191815 9.75957e-05 0.000878724)
(-8.1634e-05 7.98279e-05 0.000771123)
(7.12372e-05 0.00017848 0.000630321)
(0.000114465 0.000292258 0.000737053)
(-9.56076e-05 0.000166577 0.000803468)
(-8.18179e-05 5.66589e-05 0.000769091)
(0.000174707 0.000166182 0.000605035)
(0.000121281 0.000239075 0.000597307)
(-8.51256e-05 0.000101597 0.00080855)
(4.35158e-05 7.7031e-08 0.000770771)
(0.000307407 0.000126976 0.00066687)
(0.000302354 0.000125274 0.000541806)
(-0.000136729 3.7743e-05 0.000754304)
(-4.54112e-05 4.76271e-05 0.000667761)
(2.22518e-05 6.91836e-05 0.000728588)
(2.67036e-05 0.000131311 0.000747646)
(-9.76179e-06 2.68125e-05 0.000765495)
(-9.62236e-05 -3.9402e-05 0.000744338)
(-4.37547e-05 8.43422e-05 0.000707327)
(1.4035e-05 0.000127633 0.000649363)
(1.53294e-05 8.91665e-05 0.000864653)
(-9.33242e-05 0.00010358 0.000831788)
(1.68467e-05 0.000129971 0.000613288)
(2.58953e-05 0.000105868 0.000625336)
(-9.76244e-06 0.000119751 0.000935155)
(-5.47809e-05 5.89779e-05 0.000856873)
(4.909e-05 7.58489e-05 0.000757576)
(0.000101057 -1.00275e-05 0.00062683)
(-6.79318e-05 -0.000151283 0.000715058)
(-4.1266e-05 -0.000128204 0.000706817)
(-2.3311e-05 -1.48269e-05 0.000731156)
(2.38686e-05 2.60829e-05 0.000742227)
(-3.55106e-05 -4.5933e-05 0.0007039)
(-7.5269e-05 -0.000149241 0.000764837)
(-8.54596e-05 -0.000165546 0.000682305)
(-6.32597e-05 -0.000124583 0.000641851)
(-4.77381e-05 6.21293e-05 0.000863801)
(-9.88366e-05 -6.13428e-06 0.000880017)
(0.000127608 -6.92014e-05 0.00066728)
(7.27327e-06 -7.91847e-06 0.000741537)
(-3.45654e-05 0.000227473 0.000998031)
(5.09858e-05 4.5275e-05 0.000949028)
(0.000308349 -0.0003708 0.000724029)
(0.000193858 0.000152543 0.000560973)
(0 0 0)
(0 0 0)
(0 0 0)
(0 0 0)
(0 0 0)
(0 0 0)
(0 0 0)
(0 0 0)
(0 0 0)
(0 0 0)
(0 0 0)
(0 0 0)
(0 0 0)
(0 0 0)
(0 0 0)
(0 0 0)
(0 0 0)
(0 0 0)
(0 0 0)
(0 0 0)
(0 0 0)
(0 0 0)
(0 0 0)
(0 0 0)
(0 0 0)
(0 0 0)
(0 0 0)
(0 0 0)
(0 0 0)
(0 0 0)
(0 0 0)
(0 0 0)
(0 0 0)
(0 0 0)
(0 0 0)
(0 0 0)
(0 0 0)
(0 0 0)
(0 0 0)
(0 0 0)
(0 0 0)
(0 0 0)
(0 0 0)
(0 0 0)
(0 0 0)
(0 0 0)
(0 0 0)
(0 0 0)
(0 0 0)
(0 0 0)
(0 0 0)
(0 0 0)
(0 0 0)
(0 0 0)
(0 0 0)
(0 0 0)
(0 0 0)
(0 0 0)
(0 0 0)
(0 0 0)
(0 0 0)
(0 0 0)
(0 0 0)
(0 0 0)
(0 0 0)
(0 0 0)
(0 0 0)
(0 0 0)
(0 0 0)
(0 0 0)
(0 0 0)
(0 0 0)
(0 0 0)
(0 0 0)
(0 0 0)
(0 0 0)
(0 0 0)
(0 0 0)
(0 0 0)
(0 0 0)
(0 0 0)
(0 0 0)
(0 0 0)
(0 0 0)
(0 0 0)
(0 0 0)
(0 0 0)
(0 0 0)
(0 0 0)
(0 0 0)
(0 0 0)
(0 0 0)
(0 0 0)
(0 0 0)
(0 0 0)
(0 0 0)
(0 0 0)
(0 0 0)
(0 0 0)
(0 0 0)
(0 0 0)
(0 0 0)
(0 0 0)
(0 0 0)
(0 0 0)
(0 0 0)
(0 0 0)
(0 0 0)
(0 0 0)
(0 0 0)
(0 0 0)
(0 0 0)
(0 0 0)
(0 0 0)
(0 0 0)
(0 0 0)
(0 0 0)
(0 0 0)
(0 0 0)
(0 0 0)
(0 0 0)
(0 0 0)
(0 0 0)
(0 0 0)
(0 0 0)
(0 0 0)
(0 0 0)
(0 0 0)
(0 0 0)
(0 0 0)
(0 0 0)
(0 0 0)
(0 0 0)
(0 0 0)
(0 0 0)
(0 0 0)
(0 0 0)
(0 0 0)
(0 0 0)
(0 0 0)
(0 0 0)
(0 0 0)
(0 0 0)
(0 0 0)
(0 0 0)
(0 0 0)
(0 0 0)
(0 0 0)
(0 0 0)
(0 0 0)
(0 0 0)
(0 0 0)
(0 0 0)
(0 0 0)
(0 0 0)
(0 0 0)
(0 0 0)
(0 0 0)
(0 0 0)
(0 0 0)
(0 0 0)
(0 0 0)
(0 0 0)
(0 0 0)
(0 0 0)
(0 0 0)
(0 0 0)
(0 0 0)
(0 0 0)
(0 0 0)
(0 0 0)
(0 0 0)
(0 0 0)
(0 0 0)
(0 0 0)
(0 0 0)
(0 0 0)
(0 0 0)
(0 0 0)
(0 0 0)
(0 0 0)
(0 0 0)
(0 0 0)
(0 0 0)
(0 0 0)
(0 0 0)
(0 0 0)
(0 0 0)
(0 0 0)
(0 0 0)
(0 0 0)
(0 0 0)
(0 0 0)
(0 0 0)
(0 0 0)
(0 0 0)
(0 0 0)
(0 0 0)
(0 0 0)
(0 0 0)
(0 0 0)
(0 0 0)
(0 0 0)
(0 0 0)
(0 0 0)
(0 0 0)
(0 0 0)
(0 0 0)
(0 0 0)
(0 0 0)
(0 0 0)
(0 0 0)
(0 0 0)
(0 0 0)
(0 0 0)
(0 0 0)
(0 0 0)
(0 0 0)
(0 0 0)
(0 0 0)
(0 0 0)
(0 0 0)
(0 0 0)
(0 0 0)
(0 0 0)
(0 0 0)
(0 0 0)
(0 0 0)
(0 0 0)
(0 0 0)
(0 0 0)
(0 0 0)
(0 0 0)
(0 0 0)
(0 0 0)
(0 0 0)
(0 0 0)
(0 0 0)
(0 0 0)
(0 0 0)
(0 0 0)
(0 0 0)
(0 0 0)
(0 0 0)
(0 0 0)
(0 0 0)
(0 0 0)
(0 0 0)
(0 0 0)
(0 0 0)
(0 0 0)
(0 0 0)
(0 0 0)
(0 0 0)
(0 0 0)
(0 0 0)
(0 0 0)
(0 0 0)
(0 0 0)
(0 0 0)
(0 0 0)
(0 0 0)
(0 0 0)
(0 0 0)
(0 0 0)
(0 0 0)
(0 0 0)
(0 0 0)
(0 0 0)
(0 0 0)
(0 0 0)
(0 0 0)
(3.2333e-05 3.17974e-05 4.764e-05)
(7.27e-05 1.65575e-06 0.000135597)
(0.000155372 -0.000108413 0.000109622)
(-0.000158965 6.69874e-05 0.000106248)
(7.59509e-05 2.92189e-05 -2.22463e-06)
(-1.57101e-05 0.000123207 5.35894e-05)
(0.000113231 -7.56234e-05 0.000107678)
(-5.33215e-05 0.000116056 0.000122579)
(-0.000133367 0.00034265 5.15173e-05)
(-8.40026e-05 7.95607e-05 7.98763e-05)
(-8.44363e-05 8.53172e-06 5.72774e-05)
(0.0004634 0.0003061 -4.95239e-05)
(2.22708e-05 0.000208838 2.41713e-05)
(1.04585e-05 0.000147363 2.75245e-05)
(0.000140609 1.81684e-05 0.000135331)
(8.41204e-05 -3.52534e-05 7.17828e-05)
(5.60452e-06 -3.08183e-05 0.000434951)
(-0.000248825 4.42053e-05 0.000452359)
(-0.00020153 -3.08674e-05 0.000404136)
(-0.000229829 -2.89267e-05 0.000320116)
(4.33601e-05 9.99299e-05 0.000261939)
(-0.000234485 3.9425e-05 0.000304147)
(7.76304e-06 -7.17134e-05 0.000245177)
(-0.000160879 -2.95309e-06 0.000384739)
(-6.76318e-05 8.82767e-05 1.4607e-05)
(5.41404e-05 5.96186e-05 0.000161841)
(0.000149199 0.00012307 0.000379706)
(-4.81232e-05 -2.21608e-05 0.000535952)
(3.78463e-05 -0.000124783 0.000331176)
(-2.31713e-05 9.86524e-05 0.00023748)
(5.89155e-05 0.00016166 0.000356117)
(-8.53074e-05 0.000185926 0.000600883)
(1.24053e-05 -2.17571e-05 0.000514243)
(6.24794e-05 6.39842e-05 0.000505147)
(-1.85661e-05 -1.1935e-05 0.000393914)
(2.43305e-05 -0.000255006 0.000380371)
(5.05643e-05 3.32114e-05 0.000367004)
(-0.000146905 0.000139253 0.00034855)
(-6.73474e-05 0.000126128 0.000570584)
(2.49345e-05 -0.00014068 0.00072366)
(-5.07009e-05 5.02704e-05 0.000212658)
(3.37879e-05 0.00011225 0.000262103)
(9.97768e-05 0.000129645 0.000444558)
(0.000183736 0.000109247 0.00063656)
(6.05342e-05 -0.000177305 0.000533391)
(0.000130104 -0.000140959 0.000394425)
(0.000195761 0.000181819 0.000465783)
(0.000192184 9.6073e-05 0.000722)
(0.000112794 -7.95067e-05 0.000660446)
(9.70008e-05 -7.4276e-05 0.000543772)
(-2.22738e-05 0.00012538 0.000447179)
(2.80576e-05 -3.877e-05 0.000526002)
(6.91683e-05 9.70072e-05 0.000348196)
(8.43198e-05 0.000232799 0.000497693)
(-8.99726e-05 0.000176701 0.000475279)
(-3.17265e-05 1.11146e-05 0.000590329)
(7.78491e-05 -6.34643e-06 0.000480261)
(6.26722e-05 0.000168261 0.000520255)
(2.56135e-05 0.000183956 0.0006872)
(4.5604e-05 4.46052e-05 0.000861368)
(2.23689e-05 4.60843e-05 0.000598806)
(-4.48351e-05 0.00016869 0.000511569)
(8.89853e-05 0.000181005 0.00079587)
(0.000149698 1.76933e-05 0.000700612)
(-9.57116e-05 0.000121473 0.00089655)
(9.16775e-05 4.70378e-05 0.00045722)
(-1.01346e-05 0.000105891 0.000621073)
(-3.03275e-05 6.4498e-05 0.000674804)
(3.9521e-05 -3.12638e-05 0.000414509)
(-4.90673e-07 0.00016078 0.000667812)
(4.20166e-05 5.19153e-05 0.000631513)
(-0.000102142 1.44493e-05 0.000715725)
(0.000179296 4.71709e-05 0.00051516)
(-2.54753e-06 3.59754e-05 0.000664046)
(-5.23342e-05 2.33835e-05 0.000967745)
(-2.246e-05 5.77616e-05 0.000932526)
(0.00022176 0.000149483 0.000434928)
(0.000344852 -4.48419e-05 0.000642547)
(0.000206184 7.13022e-05 0.000844542)
(8.92342e-05 0.000172475 0.000894155)
(-4.82605e-05 0.000104826 0.000411956)
(0.000105285 6.74494e-05 0.000490192)
(-8.31804e-06 9.53976e-05 0.000650445)
(-5.94255e-05 0.000114911 0.000780751)
(6.55835e-07 0.000111499 0.000449503)
(3.76564e-05 0.000184055 0.000670313)
(7.32578e-05 0.000156802 0.000741484)
(4.37388e-06 0.00011103 0.000724491)
(1.336e-05 0.000191927 0.000336086)
(-4.21549e-05 0.000181937 0.000816701)
(5.37752e-05 0.000347183 0.00116768)
(-2.63397e-05 0.000211014 0.000978977)
(2.26205e-05 0.000107396 0.000384285)
(0.000148132 -0.000184931 0.00092163)
(0.000156025 -0.000321492 0.000778499)
(-4.99845e-05 9.53117e-05 0.000893868)
(-2.43611e-05 -6.47213e-05 0.000363644)
(-3.55427e-05 -8.19575e-05 0.000690582)
(2.98904e-05 7.91181e-05 0.00103902)
(-1.8898e-06 1.81889e-05 0.000808928)
(-0.00161689 0.00326982 -0.00216703)
(-0.000116505 0.000199464 0.000660521)
(0.000109042 0.000176007 0.000757076)
(-8.52455e-06 2.0184e-05 0.000805171)
(-0.000322617 3.9027e-05 0.000346213)
(-0.00015983 -5.30462e-06 0.000886471)
(-0.00295276 -0.00566514 0.00204741)
(-0.000187568 3.51657e-05 0.00121086)
(-0.000193808 -0.000790406 5.83036e-05)
(-0.000409759 -0.00339003 -0.000830144)
(-0.00108993 -0.00219712 0.00113106)
(-0.000228344 0.000358988 0.00108451)
(0 0 0)
(0 0 0)
(0 0 0)
(0 0 0)
(0 0 0)
(0 0 0)
(0 0 0)
(0 0 0)
(0 0 0)
(0 0 0)
(0 0 0)
(0 0 0)
(0 0 0)
(0 0 0)
(0 0 0)
(0 0 0)
(0 0 0)
(0 0 0)
(0 0 0)
(0 0 0)
(0 0 0)
(0 0 0)
(0 0 0)
(0 0 0)
(0 0 0)
(0 0 0)
(0 0 0)
(0 0 0)
(0 0 0)
(0 0 0)
(0 0 0)
(0 0 0)
(0 0 0)
(0 0 0)
(0 0 0)
(0 0 0)
(0 0 0)
(0 0 0)
(0 0 0)
(0 0 0)
(0 0 0)
(0 0 0)
(0 0 0)
(0 0 0)
(0 0 0)
(0 0 0)
(0 0 0)
(0 0 0)
(0 0 0)
(0 0 0)
(0 0 0)
(0 0 0)
(0 0 0)
(0 0 0)
(0 0 0)
(0 0 0)
(0 0 0)
(0 0 0)
(0 0 0)
(0 0 0)
(0 0 0)
(0 0 0)
(0 0 0)
(0 0 0)
(0 0 0)
(0 0 0)
(0 0 0)
(0 0 0)
(0 0 0)
(0 0 0)
(0 0 0)
(0 0 0)
(0 0 0)
(0 0 0)
(0 0 0)
(0 0 0)
(0 0 0)
(0 0 0)
(0 0 0)
(0 0 0)
(0 0 0)
(0 0 0)
(0 0 0)
(0 0 0)
(0 0 0)
(0 0 0)
(0 0 0)
(0 0 0)
(0 0 0)
(0 0 0)
(0 0 0)
(0 0 0)
(0 0 0)
(0 0 0)
(0 0 0)
(0 0 0)
(0 0 0)
(0 0 0)
(0 0 0)
(0 0 0)
(0 0 0)
(0 0 0)
(0 0 0)
(0 0 0)
(0 0 0)
(0 0 0)
(0 0 0)
(0 0 0)
(0 0 0)
(0 0 0)
(0 0 0)
(0 0 0)
(0 0 0)
(0 0 0)
(0 0 0)
(0 0 0)
(0 0 0)
(0 0 0)
(0 0 0)
(0 0 0)
(0 0 0)
(0 0 0)
(0 0 0)
(0 0 0)
(0 0 0)
(0 0 0)
(0 0 0)
(0 0 0)
(0 0 0)
(0 0 0)
(0 0 0)
(0 0 0)
(0 0 0)
(0 0 0)
(0 0 0)
(0 0 0)
(0 0 0)
(0 0 0)
(0 0 0)
(0 0 0)
(0 0 0)
(0 0 0)
(0 0 0)
(0 0 0)
(0 0 0)
(0 0 0)
(0 0 0)
(0 0 0)
(0 0 0)
(0 0 0)
(0 0 0)
(0 0 0)
(0 0 0)
(0 0 0)
(0 0 0)
(0 0 0)
(0 0 0)
(0 0 0)
(0 0 0)
(0 0 0)
(0 0 0)
(0 0 0)
(0 0 0)
(0 0 0)
(0 0 0)
(0 0 0)
(0 0 0)
(0 0 0)
(0 0 0)
(0 0 0)
(0 0 0)
(0 0 0)
(0 0 0)
(0 0 0)
(0 0 0)
(0 0 0)
(0 0 0)
(0 0 0)
(0 0 0)
(0 0 0)
(0 0 0)
(0 0 0)
(0 0 0)
(0 0 0)
(0 0 0)
(0 0 0)
(0 0 0)
(0 0 0)
(0 0 0)
(0 0 0)
(0 0 0)
(0 0 0)
(0 0 0)
(0 0 0)
(0 0 0)
(0 0 0)
(0 0 0)
(0 0 0)
(0 0 0)
(0 0 0)
(0 0 0)
(0 0 0)
(0 0 0)
(0 0 0)
(0 0 0)
(0 0 0)
(0 0 0)
(0 0 0)
(0 0 0)
(0 0 0)
(0 0 0)
(0 0 0)
(0 0 0)
(0 0 0)
(0 0 0)
(0 0 0)
(0 0 0)
(0 0 0)
(0 0 0)
(0 0 0)
(0 0 0)
(0 0 0)
(0 0 0)
(0 0 0)
(0 0 0)
(0 0 0)
(0 0 0)
(0 0 0)
(0 0 0)
(0 0 0)
(0 0 0)
(0 0 0)
(0 0 0)
(0 0 0)
(0 0 0)
(0 0 0)
(0 0 0)
(0 0 0)
(0 0 0)
(0 0 0)
(0 0 0)
(0 0 0)
(0 0 0)
(0 0 0)
(0 0 0)
(0 0 0)
(0 0 0)
(0 0 0)
(0 0 0)
(0 0 0)
(0 0 0)
(0 0 0)
(0 0 0)
(0 0 0)
(0 0 0)
(0 0 0)
(0 0 0)
(0 0 0)
(0 0 0)
(0 0 0)
(0 0 0)
(0 0 0)
(0 0 0)
(0 0 0)
(0 0 0)
(0 0 0)
(0 0 0)
(0 0 0)
(0 0 0)
(0 0 0)
(0 0 0)
(0 0 0)
(-0.000234581 -4.50775e-05 6.34767e-05)
(4.59049e-05 -2.26132e-05 8.24083e-05)
(6.54181e-05 9.47099e-05 1.67707e-05)
(4.33232e-05 -1.34034e-05 1.31975e-05)
(0.000112848 -0.000351902 -4.15009e-05)
(1.8006e-05 -0.000106864 4.40692e-05)
(3.65983e-05 3.77972e-05 6.8749e-05)
(8.15945e-05 0.000148679 0.000121544)
(6.74598e-05 7.89754e-05 -0.000129603)
(4.24232e-05 0.000169229 8.86589e-07)
(0.000139336 2.00103e-05 0.000124418)
(7.73066e-05 0.00015092 0.000136443)
(8.37989e-05 0.000265572 0.000274356)
(3.41864e-05 8.87261e-05 0.000114986)
(6.69596e-05 6.44292e-05 6.69697e-05)
(-4.45298e-05 0.000196599 0.000121006)
(7.19163e-05 1.96785e-05 0.000250681)
(-7.58168e-06 7.1095e-05 0.000322204)
(-5.33768e-05 -0.000115814 0.000117309)
(6.04901e-05 -4.18473e-05 0.0001939)
(6.64218e-05 -1.60581e-05 0.000240034)
(-5.23588e-05 9.8888e-05 0.000247713)
(-1.44161e-05 -0.000114287 0.000256136)
(-8.20012e-05 0.000153685 0.000304036)
(-3.84884e-05 -5.48149e-05 0.000149749)
(-4.79023e-05 7.96835e-05 0.000229784)
(4.87015e-05 8.21724e-05 0.000249423)
(-3.66863e-06 0.000117828 0.000248288)
(-8.03257e-05 4.19312e-05 0.000250333)
(-7.01437e-05 8.78452e-05 0.000268115)
(6.05715e-05 0.000237074 0.000206886)
(-2.53354e-05 0.000238407 0.000283006)
(7.1834e-05 -4.58124e-05 0.000421125)
(0.000135638 4.81224e-05 0.000382147)
(6.34797e-05 -8.80122e-05 0.000305818)
(0.000107038 -7.28587e-05 0.000322342)
(7.91652e-05 -0.000194908 0.000385574)
(0.000265941 4.38083e-05 0.000540759)
(3.46142e-05 9.30745e-06 0.000270668)
(4.88807e-06 2.6452e-05 0.000365636)
(-0.000321037 -0.000361116 0.000683432)
(9.42357e-05 0.000179654 0.00037009)
(6.63306e-05 6.04823e-05 0.000201296)
(1.28573e-05 0.000153798 0.000414108)
(-3.98472e-05 -5.73135e-05 0.000321109)
(-3.25873e-05 0.000185974 0.000428012)
(3.82094e-05 0.00025245 0.000340406)
(-4.23947e-05 0.000288875 0.000440732)
(9.80078e-05 -7.94819e-05 0.000561327)
(0.000157868 -0.000147901 0.000447024)
(0.000121839 -1.28064e-05 0.000263446)
(7.69731e-05 8.91424e-06 0.000434726)
(2.75219e-05 -0.000248365 0.000542752)
(5.73139e-05 3.21751e-05 0.000663033)
(-9.46512e-05 6.86363e-05 0.000273216)
(8.13266e-05 9.13638e-06 0.000378485)
(-0.000211921 -9.32746e-05 0.00049365)
(-6.86424e-05 0.000151646 0.00056119)
(8.98603e-05 2.69468e-05 0.000416735)
(3.17238e-05 6.80714e-05 0.000560963)
(-7.66288e-05 4.65777e-05 0.000596976)
(5.15797e-05 0.000358965 0.000656961)
(-5.83823e-05 0.000236205 0.000661291)
(-2.31285e-05 0.000157463 0.000658764)
(1.83566e-05 4.07344e-06 0.000541036)
(0.000128861 -8.48494e-05 0.00036109)
(9.20364e-05 5.61429e-07 0.000208259)
(-1.61419e-05 -9.40644e-05 0.000358253)
(0.000372208 0.000299369 9.97278e-05)
(-1.5305e-05 -6.77261e-05 0.000523348)
(-2.15197e-05 5.93167e-05 0.000468955)
(-6.88412e-05 3.71083e-05 0.000470307)
(-0.000226806 2.22132e-05 0.000768709)
(-8.0121e-06 -1.31272e-05 0.000623883)
(6.2203e-05 5.95595e-05 0.000588395)
(-5.31624e-05 0.000126348 0.000598781)
(-6.43782e-06 3.58469e-05 0.000688986)
(-2.90026e-05 -3.02633e-05 0.000616946)
(-4.43817e-06 7.69676e-05 0.000758516)
(8.77706e-05 0.000144263 0.000782869)
(1.66743e-05 2.85488e-05 0.000499706)
(-1.35948e-05 -3.11678e-05 0.000413247)
(-1.99312e-05 -5.78165e-05 4.38746e-05)
(3.33157e-05 -1.95516e-05 0.000447955)
(0.000137331 0.000103035 0.000696328)
(-6.64476e-05 -2.45678e-05 0.0004382)
(-8.76455e-06 -2.67533e-05 0.00043622)
(-5.65154e-05 5.45166e-05 0.000452427)
(3.67988e-05 0.000131251 0.000762599)
(7.30133e-06 -3.15886e-05 0.000626278)
(-0.000111277 2.59101e-05 0.000509632)
(-6.05641e-05 2.98937e-05 0.000658181)
(-5.73258e-05 0.000102766 0.000698462)
(-3.58862e-05 3.25419e-06 0.000700309)
(-1.03825e-05 0.000123161 0.000690146)
(-6.92483e-06 7.99749e-05 0.000814425)
(-0.000272002 0.000342817 0.000157854)
(-9.592e-05 0.000144924 0.000411915)
(0.000615331 -0.000222271 -0.000333347)
(0.00401557 -8.79413e-05 -0.0021718)
(-0.000436355 0.00136607 -0.000407186)
(-0.000184421 0.00113074 -0.000207056)
(0.000194418 -5.43977e-05 0.000383364)
(-2.36173e-05 -0.000165396 0.000328196)
(0.00264573 0.000230862 -0.00301373)
(0.00255376 -0.00176092 -0.00570577)
(4.88815e-05 -1.24828e-05 0.000647115)
(6.93071e-05 -0.000295585 0.000727146)
(9.742e-05 2.44337e-05 0.000846205)
(0.000751245 0.00213332 0.00161646)
(-0.000110875 1.08926e-05 0.000708426)
(4.77247e-05 4.89389e-06 0.00082435)
(0 0 0)
(0 0 0)
(-0.000110661 -9.80885e-05 3.27881e-05)
(0 0 0)
(0 0 0)
(0 0 0)
(0 0 0)
(0 0 0)
(0 0 0)
(0 0 0)
(0 0 0)
(0 0 0)
(0 0 0)
(0 0 0)
(0 0 0)
(0 0 0)
(0 0 0)
(0 0 0)
(0 0 0)
(0 0 0)
(0 0 0)
(0 0 0)
(0 0 0)
(0 0 0)
(0 0 0)
(0 0 0)
(0 0 0)
(0 0 0)
(0 0 0)
(0 0 0)
(0 0 0)
(0 0 0)
(0 0 0)
(0 0 0)
(0 0 0)
(0 0 0)
(0 0 0)
(0 0 0)
(0 0 0)
(0 0 0)
(0 0 0)
(0 0 0)
(0 0 0)
(0 0 0)
(0 0 0)
(0 0 0)
(0 0 0)
(0 0 0)
(0 0 0)
(0 0 0)
(0 0 0)
(0 0 0)
(0 0 0)
(0 0 0)
(0 0 0)
(0 0 0)
(0 0 0)
(0 0 0)
(0 0 0)
(0 0 0)
(0 0 0)
(0 0 0)
(0 0 0)
(0 0 0)
(0 0 0)
(0 0 0)
(0 0 0)
(0 0 0)
(0 0 0)
(0 0 0)
(0 0 0)
(0 0 0)
(0 0 0)
(0 0 0)
(0 0 0)
(0 0 0)
(0 0 0)
(0 0 0)
(0 0 0)
(0 0 0)
(0 0 0)
(0 0 0)
(0 0 0)
(0 0 0)
(0 0 0)
(0 0 0)
(0 0 0)
(0 0 0)
(0 0 0)
(0 0 0)
(0 0 0)
(0 0 0)
(0 0 0)
(0 0 0)
(0 0 0)
(0 0 0)
(0 0 0)
(0 0 0)
(0 0 0)
(0 0 0)
(0 0 0)
(0 0 0)
(0 0 0)
(0 0 0)
(0 0 0)
(0 0 0)
(0 0 0)
(0 0 0)
(0 0 0)
(0 0 0)
(0 0 0)
(0 0 0)
(0 0 0)
(0 0 0)
(0 0 0)
(0 0 0)
(0 0 0)
(0 0 0)
(0 0 0)
(0 0 0)
(0 0 0)
(0 0 0)
(0 0 0)
(0 0 0)
(0 0 0)
(0 0 0)
(0 0 0)
(0 0 0)
(0 0 0)
(0 0 0)
(0 0 0)
(0 0 0)
(0 0 0)
(0 0 0)
(0 0 0)
(0 0 0)
(0 0 0)
(0 0 0)
(0 0 0)
(0 0 0)
(0 0 0)
(0 0 0)
(0 0 0)
(0 0 0)
(0 0 0)
(0 0 0)
(0 0 0)
(0 0 0)
(0 0 0)
(0 0 0)
(0 0 0)
(0 0 0)
(0 0 0)
(0 0 0)
(0 0 0)
(0 0 0)
(0 0 0)
(0 0 0)
(0 0 0)
(0 0 0)
(0 0 0)
(0 0 0)
(0 0 0)
(0 0 0)
(0 0 0)
(0 0 0)
(0 0 0)
(0 0 0)
(0 0 0)
(0 0 0)
(0 0 0)
(0 0 0)
(0 0 0)
(0 0 0)
(0 0 0)
(0 0 0)
(0 0 0)
(0 0 0)
(0 0 0)
(0 0 0)
(0 0 0)
(0 0 0)
(0 0 0)
(0 0 0)
(0 0 0)
(0 0 0)
(0 0 0)
(0 0 0)
(0 0 0)
(0 0 0)
(0 0 0)
(0 0 0)
(0 0 0)
(0 0 0)
(0 0 0)
(0 0 0)
(0 0 0)
(0 0 0)
(0 0 0)
(0 0 0)
(0 0 0)
(0 0 0)
(0 0 0)
(0 0 0)
(0 0 0)
(0 0 0)
(0 0 0)
(0 0 0)
(0 0 0)
(0 0 0)
(0 0 0)
(0 0 0)
(0 0 0)
(0 0 0)
(0 0 0)
(0 0 0)
(0 0 0)
(0 0 0)
(0 0 0)
(0 0 0)
(0 0 0)
(0 0 0)
(0 0 0)
(0 0 0)
(0 0 0)
(0 0 0)
(0 0 0)
(0 0 0)
(0 0 0)
(0 0 0)
(0 0 0)
(0 0 0)
(0 0 0)
(0 0 0)
(0 0 0)
(0 0 0)
(0 0 0)
(0 0 0)
(0 0 0)
(0 0 0)
(0 0 0)
(0 0 0)
(0 0 0)
(0 0 0)
(0 0 0)
(0 0 0)
(0 0 0)
(0 0 0)
(0 0 0)
(0 0 0)
(0 0 0)
(0 0 0)
(0 0 0)
(0 0 0)
(0 0 0)
(0 0 0)
(0 0 0)
(0 0 0)
(0 0 0)
(0 0 0)
(0 0 0)
(0 0 0)
(0 0 0)
(0 0 0)
(0 0 0)
(0 0 0)
(0 0 0)
(0 0 0)
(0 0 0)
(0 0 0)
(0 0 0)
(0 0 0)
)
;

boundaryField
{
    inlet
    {
        type            zeroGradient;
    }
    outlet
    {
        type            zeroGradient;
    }
    wall
    {
        type            zeroGradient;
    }
    procBoundary0to1
    {
        type            processor;
        value           nonuniform List<vector> 
192
(
(0.000219908 -7.66063e-05 3.71188e-05)
(-9.28152e-05 0.000226039 0.000237713)
(2.2609e-05 -9.41109e-06 0.000275269)
(0.000220263 -3.64154e-05 0.000298333)
(-0.000202968 0.000383961 0.000434566)
(-8.82771e-05 0.000211828 0.000661002)
(-9.20609e-05 0.000134904 0.000778227)
(-2.01475e-05 -6.91392e-05 0.000650399)
(-5.58836e-05 0.000400404 0.000648217)
(-0.000107084 0.000360111 0.00082023)
(-4.70507e-05 0.000283212 0.00101374)
(-0.000128476 -0.000107943 0.000962606)
(-0.000131065 0.00026606 0.000778414)
(-8.06388e-05 0.000466303 0.000772172)
(-8.31097e-05 0.000343 0.000780965)
(-2.68447e-05 0.000137891 0.000629862)
(2.41797e-05 0.000322008 0.00066432)
(-2.84509e-05 0.000449051 0.000590804)
(-4.52365e-05 0.000295496 0.00058097)
(-0.000222169 0.000164146 0.000547938)
(-3.23666e-05 -3.25736e-05 0.000652058)
(-4.09381e-05 8.55845e-05 0.000596662)
(-9.71874e-05 0.000149018 0.000547612)
(-8.25555e-05 4.20698e-05 0.000499594)
(0.000133552 0.000197527 0.00056308)
(-7.88802e-05 0.000143282 0.000511302)
(-0.000986889 0.000730252 0.000467481)
(6.12396e-05 2.93262e-05 0.000413791)
(0 0 0)
(0 0 0)
(0 0 0)
(4.46503e-05 -3.20883e-05 0.000411348)
(0 0 0)
(0 0 0)
(0 0 0)
(0 0 0)
(0 0 0)
(0 0 0)
(0 0 0)
(0 0 0)
(0 0 0)
(0 0 0)
(0 0 0)
(0 0 0)
(0 0 0)
(0 0 0)
(0 0 0)
(0 0 0)
(0 0 0)
(0 0 0)
(0 0 0)
(0 0 0)
(0 0 0)
(0 0 0)
(0 0 0)
(0 0 0)
(0 0 0)
(0 0 0)
(0 0 0)
(0 0 0)
(0 0 0)
(0 0 0)
(0 0 0)
(0 0 0)
(0 0 0)
(0 0 0)
(0 0 0)
(0 0 0)
(0 0 0)
(0 0 0)
(0 0 0)
(0 0 0)
(0 0 0)
(0 0 0)
(0 0 0)
(0 0 0)
(0 0 0)
(0 0 0)
(0 0 0)
(0 0 0)
(0 0 0)
(0 0 0)
(0 0 0)
(0 0 0)
(0 0 0)
(0 0 0)
(0 0 0)
(0 0 0)
(0 0 0)
(0 0 0)
(0 0 0)
(0 0 0)
(0 0 0)
(0 0 0)
(0 0 0)
(0 0 0)
(7.04619e-05 7.86486e-05 4.04599e-05)
(0.000200801 0.000168077 6.24714e-05)
(-7.89971e-05 0.00023232 0.000149233)
(-2.29945e-05 0.000113568 -6.84172e-05)
(0.000117484 0.000365592 0.000105911)
(1.90431e-05 0.000265474 0.000359775)
(-1.84162e-05 0.00059454 0.000398157)
(-0.000238465 0.000347917 0.000182268)
(7.10232e-05 0.000151484 0.000140577)
(-1.56552e-05 0.000266125 0.000428677)
(2.32853e-05 0.000262229 0.000507842)
(-4.56455e-05 0.000298455 0.00050531)
(3.94826e-05 -1.16815e-05 0.000262709)
(8.65724e-05 4.98032e-05 0.000431353)
(-2.18691e-06 0.000170486 0.000529237)
(1.88354e-05 0.000113888 0.00059886)
(-0.000150899 -0.000115069 0.000366587)
(-1.06268e-05 0.000101122 0.000453372)
(-4.67266e-06 0.000154903 0.000606588)
(2.98129e-05 0.000194683 0.000752618)
(6.62151e-06 -1.42142e-05 0.000306638)
(9.62861e-06 2.08767e-05 0.000458519)
(-1.76067e-05 3.77721e-05 0.000692115)
(-0.00011958 -2.67966e-05 0.000668237)
(0.000286918 0.000199161 3.34687e-05)
(0.00130519 -0.000555701 0.000388994)
(0.000985114 0.000387377 0.000424302)
(0.000482443 0.000837386 0.000538351)
(0 0 0)
(0 0 0)
(0 0 0)
(0 0 0)
(0 0 0)
(0 0 0)
(0 0 0)
(0 0 0)
(0 0 0)
(0 0 0)
(0 0 0)
(0 0 0)
(0 0 0)
(0 0 0)
(0 0 0)
(0 0 0)
(0 0 0)
(0 0 0)
(0 0 0)
(0 0 0)
(0 0 0)
(0 0 0)
(0 0 0)
(0 0 0)
(0 0 0)
(0 0 0)
(0 0 0)
(0 0 0)
(0 0 0)
(0 0 0)
(0 0 0)
(0 0 0)
(0 0 0)
(0 0 0)
(0 0 0)
(0 0 0)
(0 0 0)
(0 0 0)
(0 0 0)
(0 0 0)
(0 0 0)
(0 0 0)
(0 0 0)
(0 0 0)
(0 0 0)
(0 0 0)
(0 0 0)
(0 0 0)
(0 0 0)
(0 0 0)
(0 0 0)
(0 0 0)
(0 0 0)
(0 0 0)
(0 0 0)
(0 0 0)
(0 0 0)
(0 0 0)
(0 0 0)
(0 0 0)
(0 0 0)
(0 0 0)
(0 0 0)
(0 0 0)
(0 0 0)
(0 0 0)
(0 0 0)
(0 0 0)
)
;
    }
    procBoundary0to2
    {
        type            processor;
        value           nonuniform List<vector> 
192
(
(6.01224e-05 7.07294e-05 9.34195e-05)
(9.12151e-05 7.55731e-06 0.000136267)
(0.000142108 -0.000125505 0.000219308)
(0.000129473 -0.000136251 0.000236015)
(9.79114e-05 -7.23493e-05 0.000452304)
(-9.56068e-05 -9.3497e-05 0.000295278)
(9.87562e-05 -0.000113653 0.000472328)
(-9.67493e-05 -2.66908e-05 0.000629273)
(6.45718e-05 0.000161988 0.000617297)
(0.000135063 0.00010405 0.000800788)
(-6.95674e-05 -4.80312e-05 0.000679424)
(-0.000141781 -0.000140398 0.00070024)
(0.000138724 8.57713e-05 0.000735696)
(0.00010263 6.28599e-05 0.000668237)
(0.000142756 0.000191081 0.00071921)
(0.000195148 -0.00015136 0.000720249)
(9.83936e-05 1.42401e-05 0.000814186)
(0.000182921 -4.02465e-05 0.000712487)
(-1.61748e-05 -0.000119079 0.000940007)
(0.000265431 -4.45047e-05 0.000601742)
(4.88065e-05 3.92125e-05 0.000913234)
(4.8652e-07 1.83463e-05 0.000794373)
(9.32982e-05 4.63535e-05 0.000796896)
(0.000105739 1.80683e-05 0.000631889)
(3.54007e-05 6.30686e-05 0.000939752)
(-7.0286e-05 6.00631e-05 0.000990486)
(-0.000102151 2.46169e-05 0.000641971)
(9.29978e-05 0.000129207 0.000581868)
(0 0 0)
(0 0 0)
(0 0 0)
(0 0 0)
(0 0 0)
(0 0 0)
(0 0 0)
(0 0 0)
(0 0 0)
(0 0 0)
(0 0 0)
(0 0 0)
(0 0 0)
(0 0 0)
(0 0 0)
(0 0 0)
(0 0 0)
(0 0 0)
(0 0 0)
(0 0 0)
(0 0 0)
(0 0 0)
(0 0 0)
(0 0 0)
(0 0 0)
(0 0 0)
(0 0 0)
(0 0 0)
(0 0 0)
(0 0 0)
(0 0 0)
(0 0 0)
(0 0 0)
(0 0 0)
(0 0 0)
(0 0 0)
(0 0 0)
(0 0 0)
(0 0 0)
(0 0 0)
(0 0 0)
(0 0 0)
(0 0 0)
(0 0 0)
(0 0 0)
(0 0 0)
(0 0 0)
(0 0 0)
(0 0 0)
(0 0 0)
(0 0 0)
(0 0 0)
(0 0 0)
(0 0 0)
(0 0 0)
(0 0 0)
(0 0 0)
(0 0 0)
(0 0 0)
(0 0 0)
(0 0 0)
(0 0 0)
(0 0 0)
(0 0 0)
(0 0 0)
(0 0 0)
(0 0 0)
(0 0 0)
(3.53587e-05 5.72293e-05 0.00016752)
(2.93399e-05 -3.9841e-05 0.000127519)
(0.000110694 -1.28457e-05 0.000186352)
(0.000122368 2.0184e-05 0.000115964)
(-4.49263e-05 -0.00031189 0.000228454)
(-0.000152314 1.21672e-05 0.00038998)
(-8.86379e-06 0.00013339 0.000341371)
(0.00019723 8.41515e-05 0.000428921)
(0.00020685 -0.000607041 -0.000153253)
(0.000482069 -0.000248595 0.000409208)
(4.26969e-05 2.27903e-05 0.000344276)
(5.53896e-06 0.00017375 0.00068791)
(-8.02655e-05 -8.29586e-05 0.000606763)
(6.98389e-05 1.26167e-05 0.000534924)
(6.72892e-05 -0.000147197 0.000475309)
(0.000103028 8.52628e-05 0.000674609)
(0.000139089 -6.37692e-05 0.000671994)
(0.000220673 -3.35581e-05 0.000797673)
(6.01865e-05 -3.43967e-05 0.000884608)
(0.000172852 0.000132305 0.000792854)
(-1.87925e-05 -2.75805e-05 0.000567272)
(-8.56033e-06 -0.000128308 0.000770075)
(-1.65711e-06 -0.000251128 0.000641463)
(0.000114719 5.13771e-05 0.000857941)
(-0.000590113 0.000809001 0.00066113)
(-0.000188713 5.49113e-05 0.000757402)
(0.000206862 -0.000148222 0.000561607)
(-0.000156668 0.00014361 0.000577825)
(0 0 0)
(0 0 0)
(0 0 0)
(0 0 0)
(0 0 0)
(0 0 0)
(0 0 0)
(0 0 0)
(0 0 0)
(0 0 0)
(0 0 0)
(0 0 0)
(0 0 0)
(0 0 0)
(0 0 0)
(0 0 0)
(0 0 0)
(0 0 0)
(0 0 0)
(0 0 0)
(0 0 0)
(0 0 0)
(0 0 0)
(0 0 0)
(0 0 0)
(0 0 0)
(0 0 0)
(0 0 0)
(0 0 0)
(0 0 0)
(0 0 0)
(0 0 0)
(0 0 0)
(0 0 0)
(0 0 0)
(0 0 0)
(0 0 0)
(0 0 0)
(0 0 0)
(0 0 0)
(0 0 0)
(0 0 0)
(0 0 0)
(0 0 0)
(0 0 0)
(0 0 0)
(0 0 0)
(0 0 0)
(0 0 0)
(0 0 0)
(0 0 0)
(0 0 0)
(0 0 0)
(0 0 0)
(0 0 0)
(0 0 0)
(0 0 0)
(0 0 0)
(0 0 0)
(0 0 0)
(0 0 0)
(0 0 0)
(0 0 0)
(0 0 0)
(0 0 0)
(0 0 0)
(0 0 0)
(0 0 0)
)
;
    }
}


// ************************************************************************* //
