/*--------------------------------*- C++ -*----------------------------------*\
| =========                 |                                                 |
| \\      /  F ield         | OpenFOAM: The Open Source CFD Toolbox           |
|  \\    /   O peration     | Version:  2506                                  |
|   \\  /    A nd           | Website:  www.openfoam.com                      |
|    \\/     M anipulation  |                                                 |
\*---------------------------------------------------------------------------*/
FoamFile
{
    version     2.0;
    format      ascii;
    arch        "LSB;label=32;scalar=64";
    class       volScalarField;
    location    "0.04";
    object      voidfraction;
}
// * * * * * * * * * * * * * * * * * * * * * * * * * * * * * * * * * * * * * //

dimensions      [0 0 0 0 0 0 0];

internalField   nonuniform List<scalar> 
1152
(
0.39433
0.44963
0.460163
0.383796
0.42593
0.470697
0.378529
0.381163
0.444363
0.436463
0.46543
0.436463
0.41013
0.544431
0.47333
0.42593
0.39433
0.44963
0.475963
0.304796
0.42593
0.452263
0.352196
0.391696
0.391696
0.46543
0.462797
0.333763
0.431196
0.38643
0.41803
0.360096
0.357463
0.399596
0.344296
0.310062
0.349563
0.362729
0.446997
0.41803
0.38643
0.40223
0.370629
0.452263
0.362729
0.460163
0.346929
0.367996
0.399596
0.452263
0.354829
0.44173
0.48123
0.391696
0.420663
0.41803
0.349563
0.399596
0.396963
0.325862
0.367996
0.478597
0.420663
0.51283
0.362729
0.367996
0.357463
0.407496
0.391696
0.420663
0.436463
0.389063
0.404863
0.42593
0.357463
0.502297
0.470697
0.352196
0.341663
0.360096
0.375896
0.462797
0.44963
0.446997
0.415396
0.44173
0.391696
0.444363
0.444363
0.454897
0.362729
0.44963
0.444363
0.428563
0.415396
0.428563
0.734032
0.697165
0.681365
0.607631
0.784065
0.683998
0.602364
0.549697
0.736665
0.676098
0.612898
0.702431
0.749832
0.607631
0.539164
0.599731
1
1
1
1
1
1
1
1
1
1
1
1
1
1
1
1
1
1
1
1
1
1
1
1
1
1
1
1
1
1
1
1
1
1
1
1
1
1
1
1
1
1
1
1
1
1
1
1
1
1
1
1
1
1
1
1
1
1
1
1
1
1
1
1
1
1
1
1
1
1
1
1
1
1
1
1
1
1
1
1
1
1
1
1
1
1
1
1
1
1
1
1
1
1
1
1
1
1
1
1
1
1
1
1
1
1
1
1
1
1
1
1
1
1
1
1
1
1
1
1
1
1
1
1
1
1
1
1
1
1
1
1
1
1
1
1
1
1
1
1
1
1
1
1
1
1
1
1
1
1
1
1
1
1
1
1
1
1
1
1
1
1
1
1
1
1
1
1
1
1
1
1
1
1
1
1
1
1
1
1
1
1
1
1
1
1
1
1
1
1
1
1
1
1
1
1
1
1
1
1
1
1
1
1
1
1
1
1
1
1
1
1
1
1
1
1
1
1
1
1
1
1
1
1
1
1
1
1
1
1
1
1
1
1
1
1
1
1
1
1
1
1
1
1
1
1
1
1
1
1
1
1
1
1
1
1
1
1
1
1
1
1
1
1
1
1
1
1
1
1
1
1
0.468532
0.430693
0.463241
0.430467
0.384702
0.44212
0.446022
0.467211
0.443532
0.473537
0.420699
0.426138
0.418358
0.410519
0.473797
0.466251
0.473928
0.433788
0.397959
0.373514
0.378179
0.444556
0.398934
0.39981
0.422569
0.384736
0.373215
0.388241
0.387933
0.418432
0.416313
0.416134
0.468532
0.433788
0.376198
0.417324
0.465147
0.432375
0.398934
0.48005
0.405417
0.407993
0.427821
0.361172
0.386144
0.376891
0.33893
0.441193
0.406483
0.390471
0.405212
0.294655
0.345566
0.471354
0.390625
0.431906
0.434003
0.437593
0.434944
0.404483
0.45773
0.353154
0.367672
0.411122
0.487417
0.362624
0.4306
0.342847
0.402096
0.427503
0.385085
0.419068
0.45306
0.38685
0.425447
0.41531
0.411199
0.396673
0.425157
0.408616
0.409181
0.362624
0.423346
0.461134
0.410792
0.388525
0.418323
0.425487
0.3997
0.429136
0.368467
0.41531
0.436254
0.414476
0.438422
0.431169
0.673566
0.702971
0.786022
0.798473
0.628212
0.75882
0.831037
0.817055
0.771314
0.879484
0.800568
0.761793
0.668911
0.758669
0.845234
0.761943
1
1
1
1
1
1
1
1
1
1
1
1
1
1
1
1
1
1
1
1
1
1
1
1
1
1
1
1
1
1
1
1
1
1
1
1
1
1
1
1
1
1
1
1
1
1
1
1
1
1
1
1
1
1
1
1
1
1
1
1
1
1
1
1
1
1
1
1
1
1
1
1
1
1
1
1
1
1
1
1
1
1
1
1
1
1
1
1
1
1
1
1
1
1
1
1
1
1
1
1
1
1
1
1
1
1
1
1
1
1
1
1
1
1
1
1
1
1
1
1
1
1
1
1
1
1
1
1
1
1
1
1
1
1
1
1
1
1
1
1
1
1
1
1
1
1
1
1
1
1
1
1
1
1
1
1
1
1
1
1
1
1
1
1
1
1
1
1
1
1
1
1
1
1
1
1
1
1
1
1
1
1
1
1
1
1
1
1
1
1
1
1
1
1
1
1
1
1
1
1
1
1
1
1
1
1
1
1
1
1
1
1
1
1
1
1
1
1
1
1
1
1
1
1
1
1
1
1
1
1
1
1
1
1
1
1
1
1
1
1
1
1
1
1
1
1
1
1
1
1
1
1
1
1
1
1
1
1
1
1
1
1
1
1
1
1
1
1
1
1
1
1
0.500906
0.421663
0.468306
0.391513
0.418317
0.446992
0.429136
0.412498
0.412466
0.415554
0.434944
0.476008
0.434848
0.40623
0.41531
0.373534
0.457741
0.434709
0.38636
0.423727
0.356436
0.395833
0.435479
0.450082
0.390705
0.423863
0.453937
0.40968
0.439229
0.39981
0.401776
0.456228
0.417274
0.380354
0.405417
0.443413
0.393565
0.485971
0.422793
0.418432
0.506762
0.346306
0.411202
0.378727
0.382276
0.441535
0.412603
0.46124
0.463137
0.410792
0.403512
0.484575
0.368812
0.44212
0.420679
0.42041
0.394332
0.418323
0.38746
0.427367
0.430467
0.354876
0.404483
0.378546
0.455043
0.393399
0.411135
0.452361
0.378095
0.459173
0.405879
0.404585
0.408839
0.423863
0.385086
0.374305
0.3998
0.415858
0.412603
0.413628
0.433461
0.458625
0.432097
0.491734
0.436882
0.449429
0.41645
0.396673
0.394332
0.415554
0.380338
0.420735
0.303417
0.419068
0.442379
0.463745
0.568351
0.602122
0.61314
0.629539
0.644183
0.551747
0.589824
0.643938
0.695353
0.637145
0.715098
0.801016
0.723996
0.727187
0.686
0.67925
1
1
0.998094
1
1
1
1
1
1
1
1
1
1
1
1
1
1
1
1
1
1
1
1
1
1
1
1
1
1
1
1
1
1
1
1
1
1
1
1
1
1
1
1
1
1
1
1
1
1
1
1
1
1
1
1
1
1
1
1
1
1
1
1
1
1
1
1
1
1
1
1
1
1
1
1
1
1
1
1
1
1
1
1
1
1
1
1
1
1
1
1
1
1
1
1
1
1
1
1
1
1
1
1
1
1
1
1
1
1
1
1
1
1
1
1
1
1
1
1
1
1
1
1
1
1
1
1
1
1
1
1
1
1
1
1
1
1
1
1
1
1
1
1
1
1
1
1
1
1
1
1
1
1
1
1
1
1
1
1
1
1
1
1
1
1
1
1
1
1
1
1
1
1
1
1
1
1
1
1
1
1
1
1
1
1
1
1
1
1
1
1
1
1
1
1
1
1
1
1
1
1
1
1
1
1
1
1
1
1
1
1
1
1
1
1
1
1
1
1
1
1
1
1
1
1
1
1
1
1
1
1
1
1
1
1
1
1
1
1
1
1
1
1
1
1
1
1
1
1
1
1
1
1
1
1
1
1
1
1
1
1
1
1
1
1
1
1
1
1
1
1
1
)
;

boundaryField
{
    inlet
    {
        type            fixedValue;
        value           uniform 1;
    }
    outlet
    {
        type            fixedValue;
        value           uniform 1;
    }
    wall
    {
        type            zeroGradient;
    }
    procBoundary0to1
    {
        type            processor;
        value           nonuniform List<scalar> 
192
(
0.544431
0.44173
0.44963
0.404863
0.399596
0.399596
0.412763
0.41013
0.491764
0.354829
0.389063
0.40223
0.349563
0.378529
0.446997
0.341663
0.431196
0.439097
0.396963
0.44963
0.360096
0.47333
0.375896
0.344296
0.718232
0.673465
0.631331
0.515464
1
1
1
0.997367
1
1
1
1
1
1
1
1
1
1
1
1
1
1
1
1
1
1
1
1
1
1
1
1
1
1
1
1
1
1
1
1
1
1
1
1
1
1
1
1
1
1
1
1
1
1
1
1
1
1
1
1
1
1
1
1
1
1
1
1
1
1
1
1
0.538266
0.442169
0.48043
0.483792
0.418358
0.412498
0.429578
0.441193
0.361088
0.37887
0.389782
0.325923
0.344981
0.34722
0.449477
0.363511
0.395092
0.414476
0.429578
0.383558
0.339612
0.467885
0.387571
0.383558
0.695756
0.728997
0.750164
0.837119
1
1
1
1
1
1
1
1
1
1
1
1
1
1
1
1
1
1
1
1
1
1
1
1
1
1
1
1
1
1
1
1
1
1
1
1
1
1
1
1
1
1
1
1
1
1
1
1
1
1
1
1
1
1
1
1
1
1
1
1
1
1
1
1
1
1
1
1
)
;
    }
    procBoundary0to2
    {
        type            processor;
        value           nonuniform List<scalar> 
192
(
0.420663
0.381163
0.407496
0.357463
0.431196
0.367996
0.41803
0.317962
0.399596
0.40223
0.399596
0.47333
0.41803
0.367996
0.391696
0.407496
0.352196
0.399596
0.428563
0.44173
0.46543
0.391696
0.383796
0.344296
0.644498
0.615531
0.599731
0.604998
1
1
1
1
1
1
1
1
1
1
1
1
1
1
1
1
1
1
1
1
1
1
1
1
1
1
1
1
1
1
1
1
1
1
1
1
1
1
1
1
1
1
1
1
1
1
1
1
1
1
1
1
1
1
1
1
1
1
1
1
1
1
1
1
1
1
1
1
0.454151
0.459973
0.378727
0.458734
0.361088
0.412498
0.341141
0.361005
0.448782
0.517338
0.414102
0.456228
0.409409
0.461951
0.40968
0.436181
0.439834
0.394694
0.367672
0.423652
0.439834
0.499535
0.387571
0.436181
0.754815
0.86351
0.803227
0.794519
1
1
1
1
1
1
1
1
1
1
1
1
1
1
1
1
1
1
1
1
1
1
1
1
1
1
1
1
1
1
1
1
1
1
1
1
1
1
1
1
1
1
1
1
1
1
1
1
1
1
1
1
1
1
1
1
1
1
1
1
1
1
1
1
1
1
1
1
)
;
    }
}


// ************************************************************************* //
