/*--------------------------------*- C++ -*----------------------------------*\
| =========                 |                                                 |
| \\      /  F ield         | OpenFOAM: The Open Source CFD Toolbox           |
|  \\    /   O peration     | Version:  2506                                  |
|   \\  /    A nd           | Website:  www.openfoam.com                      |
|    \\/     M anipulation  |                                                 |
\*---------------------------------------------------------------------------*/
FoamFile
{
    version     2.0;
    format      ascii;
    arch        "LSB;label=32;scalar=64";
    class       surfaceScalarField;
    location    "0.08";
    object      phi;
}
// * * * * * * * * * * * * * * * * * * * * * * * * * * * * * * * * * * * * * //

dimensions      [0 3 -1 0 0 0 0];

oriented        oriented;

internalField   nonuniform List<scalar> 
3120
(
7.63154e-09
1.07725e-09
4.17067e-08
1.03063e-09
-7.91929e-09
-6.50952e-09
7.96668e-08
-6.47182e-09
1.90558e-09
3.65821e-10
3.94744e-08
8.46995e-10
-3.88963e-10
4.18032e-08
1.46743e-09
6.76905e-09
-1.6007e-09
-3.0819e-09
5.79923e-08
-4.6987e-11
-1.51423e-09
4.219e-08
-2.03424e-09
-1.47444e-09
5.1685e-08
3.93247e-09
3.66793e-08
3.37388e-09
1.34742e-10
3.35942e-09
4.37407e-08
1.12487e-09
-1.07757e-09
4.61664e-08
3.55059e-09
4.0408e-09
3.95596e-08
1.39108e-09
5.68306e-08
-2.48433e-09
-4.36655e-09
4.77949e-08
4.11516e-09
2.91086e-08
1.08546e-09
4.64763e-08
4.69619e-08
5.28731e-09
1.2031e-09
-7.42669e-10
3.47235e-08
4.9227e-10
4.90095e-09
5.4525e-09
6.71226e-08
3.39386e-09
1.97908e-09
-1.06121e-09
4.18854e-08
1.57216e-09
4.52957e-10
4.07602e-08
7.91848e-10
1.7773e-09
6.93571e-09
2.74803e-09
4.50712e-08
2.19854e-10
-3.23145e-10
5.46815e-08
3.92321e-09
2.9351e-09
4.39854e-08
-7.51308e-10
3.942e-08
2.38691e-09
1.58128e-09
1.6754e-09
3.91785e-08
5.07141e-09
1.50338e-09
4.08498e-08
1.81955e-09
2.04674e-09
4.36999e-08
6.21613e-09
4.54125e-08
6.27035e-09
3.08576e-09
4.55018e-08
6.53632e-09
2.87027e-08
3.32777e-09
6.01781e-08
5.2415e-08
-6.66952e-10
-5.73428e-09
-2.14017e-10
4.163e-08
-3.04449e-09
3.79462e-09
7.18036e-09
4.66897e-08
3.72373e-09
2.47904e-10
2.42296e-09
4.14555e-08
1.55378e-09
4.25414e-09
4.47942e-08
-2.41692e-09
-5.62329e-09
1.46797e-09
1.54954e-09
4.41098e-08
6.33459e-10
3.27643e-09
5.942e-08
1.19594e-09
-8.31671e-10
4.66776e-08
-3.70067e-10
4.74327e-08
-2.19258e-09
2.36362e-09
2.32115e-09
3.79264e-08
-2.31582e-09
3.50609e-09
4.52996e-08
1.93298e-09
1.65923e-09
3.69602e-08
-9.25035e-10
4.53116e-08
2.58886e-09
4.57125e-09
5.40547e-08
-4.96144e-09
4.86054e-08
-2.75502e-09
6.11121e-08
3.90282e-08
8.91884e-10
-1.68895e-09
-3.22893e-10
4.01979e-08
1.59343e-09
2.39656e-09
1.78328e-09
3.7291e-08
3.52989e-09
8.09248e-10
2.7818e-09
4.26391e-08
-2.37809e-09
2.03457e-09
4.69441e-08
-3.61045e-09
2.35194e-10
-8.95804e-10
5.39393e-09
3.22538e-08
5.08102e-09
6.2965e-09
4.893e-08
1.5618e-09
3.97831e-09
4.90003e-08
7.93262e-10
5.08702e-08
-6.34352e-10
-9.79558e-10
-2.85479e-09
5.46822e-08
1.82075e-09
5.39135e-09
4.34044e-08
-5.43672e-10
-1.11592e-09
4.44188e-08
4.95778e-09
4.23159e-08
-1.71249e-09
7.52017e-09
4.17543e-08
-6.61199e-09
7.18604e-08
5.82927e-09
4.63722e-08
6.17748e-08
-3.92426e-09
-1.61856e-09
-6.8023e-10
4.78459e-08
1.12576e-09
6.91625e-10
-3.69519e-09
3.91655e-08
-4.89403e-10
2.81199e-10
-1.49618e-09
4.54491e-08
-9.03434e-10
1.29673e-09
4.54681e-08
-2.63466e-09
3.09517e-09
-3.42402e-09
-1.49072e-09
3.90508e-08
2.85463e-09
5.99853e-09
3.29576e-08
3.14239e-09
2.80573e-09
4.44107e-08
5.66582e-10
4.49653e-08
9.7775e-09
2.32514e-09
-1.72002e-09
5.0009e-08
-2.28152e-09
-3.6763e-09
5.76859e-08
2.47e-09
-9.73019e-10
4.3446e-08
4.35907e-09
3.97712e-08
1.22227e-09
8.60065e-10
2.80117e-08
-2.32373e-09
6.14388e-08
7.4125e-09
2.8788e-08
7.8429e-08
-1.88761e-09
-2.92006e-10
-1.04788e-08
5.60074e-08
3.15165e-09
-1.90915e-09
-6.15651e-09
4.68882e-08
5.09351e-11
2.89946e-09
-4.48732e-09
3.69809e-08
8.14694e-09
-5.38623e-10
5.22147e-08
1.2599e-09
-4.56838e-09
1.89557e-11
-2.27981e-09
3.42955e-08
-1.17623e-10
-2.98378e-09
2.99215e-08
6.08258e-09
-2.22518e-09
3.59483e-08
1.10121e-10
5.04634e-08
-6.42857e-11
4.90028e-10
1.38601e-09
4.27398e-08
-1.2207e-09
-5.55796e-10
5.69686e-08
6.57909e-09
4.13265e-09
2.92884e-08
1.71641e-09
3.79947e-08
6.74928e-09
-1.58614e-09
2.23505e-08
3.4296e-09
4.83572e-08
4.15009e-09
2.90016e-08
7.11119e-08
2.09913e-09
2.33335e-09
3.17591e-09
5.17799e-08
-2.87819e-10
8.3585e-10
2.04713e-09
4.11454e-08
5.19354e-09
-4.66478e-09
-3.72419e-10
4.47012e-08
-1.84729e-09
5.64243e-10
5.01697e-08
1.08712e-10
-3.29217e-09
3.21633e-10
6.34587e-11
3.85353e-08
-5.1777e-10
-2.07432e-09
3.48822e-08
-1.71481e-09
2.12944e-09
3.46441e-08
2.05577e-09
4.99503e-08
-2.69339e-09
-1.23898e-09
1.84353e-09
4.1905e-08
3.80563e-09
-1.71913e-09
5.15692e-08
-2.83008e-09
5.52243e-10
3.75013e-08
-5.69553e-10
4.37451e-08
-5.9549e-09
-3.90756e-09
3.58781e-08
4.0133e-09
3.61637e-08
-9.53705e-09
4.649e-08
5.42972e-08
3.36622e-09
-2.12321e-09
-1.27977e-08
5.28207e-08
9.6055e-09
7.17647e-10
-1.66292e-08
4.20276e-08
1.29049e-08
7.54674e-09
-1.83663e-08
4.27975e-08
1.34414e-08
-1.26345e-08
5.12904e-08
1.04472e-08
8.6134e-09
-5.87079e-09
-7.51227e-09
3.0995e-08
-2.73911e-10
-1.06046e-08
2.32612e-08
1.1498e-08
-2.08628e-08
2.53685e-08
-9.45789e-09
4.82946e-08
9.97641e-09
-8.77649e-09
-3.88341e-09
3.66856e-08
-7.97375e-09
9.97379e-11
4.00616e-08
1.97782e-08
3.84252e-10
-1.14974e-08
2.23037e-10
4.01414e-08
1.37012e-08
-4.66415e-10
1.57271e-08
-5.33982e-09
3.77884e-08
1.73988e-08
5.31198e-09
5.15567e-08
1.3385e-08
3.91644e-09
9.50975e-09
4.905e-08
-6.49252e-09
-1.61474e-10
8.69278e-09
4.4863e-08
-7.45027e-09
-3.97592e-09
1.15735e-08
4.43635e-08
-9.32409e-09
4.0431e-09
4.84066e-08
-3.15804e-09
-1.97734e-09
4.18422e-09
3.04383e-09
3.99621e-08
-1.05875e-09
2.97548e-10
3.68998e-08
-1.10723e-08
1.0345e-08
3.66105e-08
2.44698e-09
4.66285e-08
-7.80993e-09
4.17851e-09
3.85873e-10
4.03718e-08
7.24887e-09
-3.39595e-09
4.06848e-08
-1.57881e-08
-6.68382e-09
2.8569e-08
-4.77807e-09
4.32506e-08
-1.16723e-08
4.40638e-10
3.51294e-08
2.04569e-09
4.00455e-08
-1.49986e-08
3.24401e-08
4.78858e-08
-8.51403e-09
2.12102e-09
5.31372e-09
4.80215e-08
-4.38797e-09
2.47803e-10
4.73725e-09
4.65366e-08
-4.53706e-09
-1.84567e-09
5.18744e-09
4.6321e-08
-5.05097e-09
1.59894e-09
4.79061e-08
-1.59246e-09
-1.35083e-09
1.89423e-09
2.02056e-09
4.46964e-08
-6.67489e-10
6.72981e-10
4.35257e-08
-5.04602e-09
2.83457e-09
4.33426e-08
2.01925e-10
4.69127e-08
-3.93365e-09
1.4298e-09
-3.21223e-10
4.40104e-08
5.61838e-10
-1.54579e-09
4.37724e-08
-6.58366e-09
-2.86779e-09
4.14168e-08
-2.95414e-09
4.59487e-08
-6.12581e-09
-3.80746e-12
4.30734e-08
-9.89918e-10
4.37077e-08
-6.9642e-09
4.26893e-08
4.73538e-08
-5.07523e-09
8.66298e-10
2.61194e-09
4.81822e-08
-2.47941e-09
-9.79913e-11
2.38005e-09
4.76503e-08
-2.52884e-09
-1.09256e-09
2.31467e-09
4.7626e-08
-2.62442e-09
1.04143e-09
4.82437e-08
-1.29853e-09
-1.17276e-09
7.13719e-10
1.22589e-09
4.68448e-08
-5.0633e-10
7.11809e-10
4.64147e-08
-2.17198e-09
8.87436e-10
4.64356e-08
2.72592e-11
4.7725e-08
-1.97032e-09
4.12625e-10
-2.36543e-10
4.63265e-08
-5.05295e-10
-7.26719e-10
4.61294e-08
-2.76401e-09
-1.28442e-09
4.58474e-08
-1.45933e-09
4.74672e-08
-2.79632e-09
-1.48495e-10
4.61699e-08
-1.09083e-09
4.62401e-08
-3.0117e-09
4.6323e-08
4.79599e-08
-2.66876e-09
3.78623e-10
1.33411e-09
4.85019e-08
-1.40682e-09
-9.50315e-11
1.19558e-09
4.83038e-08
-1.37472e-09
-5.25678e-10
1.03117e-09
4.83239e-08
-1.29792e-09
4.81384e-10
4.85675e-08
-6.97291e-10
-6.33512e-10
2.54951e-10
6.76824e-10
4.79167e-08
-3.38374e-10
4.40115e-10
4.7764e-08
-9.91568e-10
2.84961e-10
4.78352e-08
-1.12412e-10
4.83188e-08
-9.91834e-10
6.84842e-11
-1.50876e-10
4.7637e-08
-5.16202e-10
-4.14901e-10
4.75696e-08
-1.32697e-09
-6.83701e-10
4.7627e-08
-8.45649e-10
4.8255e-08
-1.38151e-09
-2.31478e-10
4.76132e-08
-8.02827e-10
4.7649e-08
-1.50271e-09
4.78246e-08
4.84813e-08
-1.46873e-09
1.55212e-10
6.75262e-10
4.87509e-08
-7.64482e-10
-8.27828e-11
5.79124e-10
4.8674e-08
-7.10751e-10
-2.77177e-10
4.51209e-10
4.86942e-08
-6.26774e-10
1.97286e-10
4.87966e-08
-3.52423e-10
-3.51163e-10
6.09034e-11
3.37076e-10
4.84819e-08
-2.29279e-10
2.03751e-10
4.84299e-08
-4.96222e-10
6.76999e-11
4.84858e-08
-1.37706e-10
4.86802e-08
-5.22707e-10
-6.66878e-11
-9.91432e-11
4.83423e-08
-3.70238e-10
-2.52609e-10
4.83299e-08
-6.8517e-10
-4.0122e-10
4.84112e-08
-5.1873e-10
4.86716e-08
-7.2041e-10
-2.22711e-10
4.83412e-08
-5.22564e-10
4.83763e-08
-8.03349e-10
4.85065e-08
4.87928e-08
-8.0748e-10
5.76689e-11
3.31437e-10
4.89116e-08
-3.98982e-10
-6.15085e-11
2.67084e-10
4.88799e-08
-3.53557e-10
-1.5289e-10
1.84363e-10
4.88932e-08
-2.91694e-10
5.82646e-11
4.89389e-08
-1.58364e-10
-1.94969e-10
-7.14939e-12
1.52662e-10
4.87838e-08
-1.49469e-10
7.19873e-11
4.87675e-08
-2.64871e-10
-1.67368e-11
4.88025e-08
-1.26624e-10
4.88877e-08
-2.8745e-10
-8.6696e-11
-7.71012e-11
4.87159e-08
-2.39642e-10
-1.6614e-10
4.87208e-08
-3.69545e-10
-2.5281e-10
4.87774e-08
-3.28862e-10
4.88952e-08
-3.90614e-10
-1.75424e-10
4.87201e-08
-3.26803e-10
4.87493e-08
-4.44217e-10
4.88301e-08
4.8966e-08
-4.49979e-10
1.4658e-11
1.56671e-10
4.90085e-08
-2.01692e-10
-4.56478e-11
1.14943e-10
4.89949e-08
-1.69457e-10
-9.06725e-11
6.40688e-11
4.90029e-08
-1.28515e-10
-2.07253e-12
4.90249e-08
-6.05235e-11
-1.14036e-10
-2.73878e-11
5.953e-11
4.89467e-08
-9.82438e-11
1.03345e-11
4.89429e-08
-1.51502e-10
-4.3794e-11
4.89637e-08
-1.0442e-10
4.90047e-08
-1.6616e-10
-7.64316e-11
-6.36852e-11
4.89147e-08
-1.52958e-10
-1.15955e-10
4.89231e-08
-2.10047e-10
-1.67091e-10
4.89577e-08
-2.13611e-10
4.90157e-08
-2.21399e-10
-1.28358e-10
4.89202e-08
-2.0403e-10
4.8942e-08
-2.55373e-10
4.89898e-08
4.90594e-08
-2.57802e-10
-4.15339e-12
6.88988e-11
4.90654e-08
-9.76687e-11
-3.52488e-11
4.24459e-11
4.90598e-08
-7.61773e-11
-5.8249e-11
1.1734e-11
4.90647e-08
-5.05538e-11
-2.45067e-11
4.90764e-08
-1.40824e-11
-7.10922e-11
-3.09787e-11
1.48779e-11
4.90355e-08
-6.66509e-11
-1.51784e-11
4.90361e-08
-9.23263e-11
-4.7476e-11
4.90487e-08
-8.15411e-11
4.90702e-08
-1.00775e-10
-6.10003e-11
-5.21815e-11
4.90213e-08
-9.92198e-11
-8.33471e-11
4.90291e-08
-1.25431e-10
-1.13661e-10
4.90499e-08
-1.41317e-10
4.90807e-08
-1.3076e-10
-9.19835e-11
4.90268e-08
-1.29414e-10
4.90423e-08
-1.5231e-10
4.90707e-08
4.91086e-08
-1.52002e-10
-1.19363e-11
2.57949e-11
4.90987e-08
-4.40017e-11
-2.80548e-11
9.21722e-12
4.90969e-08
-3.02247e-11
-4.01222e-11
-9.09527e-12
4.91003e-08
-1.42969e-11
-2.94781e-11
4.91071e-08
5.76737e-12
-4.69222e-11
-2.87505e-11
-4.82795e-12
4.90846e-08
-4.68607e-11
-2.31755e-11
4.90867e-08
-5.94184e-11
-4.23602e-11
4.90947e-08
-6.16856e-11
4.9107e-08
-6.37695e-11
-4.71557e-11
-4.18099e-11
4.9079e-08
-6.61166e-11
-6.05952e-11
4.90855e-08
-7.82474e-11
-7.86355e-11
4.90984e-08
-9.4836e-11
4.91159e-08
-8.01347e-11
-6.58546e-11
4.90839e-08
-8.40573e-11
4.90949e-08
-9.398e-11
4.91124e-08
4.9134e-08
-9.21785e-11
-1.41408e-11
5.48784e-12
4.91186e-08
-1.70798e-11
-2.25462e-11
-4.77577e-12
4.91186e-08
-8.3891e-12
-2.89789e-11
-1.58788e-11
4.91211e-08
1.75801e-12
-2.72516e-11
4.91256e-08
1.23763e-11
-3.2204e-11
-2.45641e-11
-1.21999e-11
4.91123e-08
-3.37478e-11
-2.34056e-11
4.91148e-08
-3.99185e-11
-3.47832e-11
4.91202e-08
-4.5763e-11
4.91278e-08
-4.17698e-11
-3.58003e-11
-3.28809e-11
4.91108e-08
-4.51347e-11
-4.42339e-11
4.9116e-08
-5.05968e-11
-5.49507e-11
4.91243e-08
-6.43316e-11
4.91349e-08
-5.07024e-11
-4.7112e-11
4.91149e-08
-5.57835e-11
4.91229e-08
-5.96962e-11
4.9134e-08
4.91471e-08
-5.73799e-11
-1.35243e-11
-3.23951e-12
4.91306e-08
-4.20956e-12
-1.80163e-11
-9.5832e-12
4.91314e-08
1.40711e-12
-2.12174e-11
-1.61439e-11
4.91335e-08
7.25312e-12
-2.26586e-11
4.91366e-08
1.34604e-11
-2.26295e-11
-1.99257e-11
-1.36901e-11
4.91283e-08
-2.45922e-11
-2.04758e-11
4.91307e-08
-2.74881e-11
-2.71683e-11
4.91345e-08
-3.34128e-11
4.91394e-08
-2.80352e-11
-2.67195e-11
-2.54426e-11
4.91286e-08
-3.12644e-11
-3.22193e-11
4.91327e-08
-3.35403e-11
-3.8509e-11
4.91384e-08
-4.38693e-11
4.91451e-08
-3.28816e-11
-3.34734e-11
4.91322e-08
-3.75081e-11
4.9138e-08
-3.87282e-11
4.91453e-08
4.91534e-08
-3.65077e-11
-1.16464e-11
-6.15874e-12
4.91379e-08
1.36447e-12
-1.39641e-11
-1.00117e-11
4.9139e-08
4.77677e-12
-1.55249e-11
-1.39169e-11
4.91408e-08
8.41034e-12
-1.76628e-11
4.9143e-08
1.1977e-11
-1.60147e-11
-1.55209e-11
-1.24499e-11
4.91375e-08
-1.78455e-11
-1.64979e-11
4.91396e-08
-1.91085e-11
-2.04066e-11
4.91425e-08
-2.39518e-11
4.91459e-08
-1.90555e-11
-1.95672e-11
-1.92109e-11
4.91387e-08
-2.17276e-11
-2.31843e-11
4.91419e-08
-2.2523e-11
-2.68169e-11
4.91459e-08
-2.98419e-11
4.91503e-08
-2.16595e-11
-2.35261e-11
4.91417e-08
-2.53287e-11
4.91459e-08
-2.54391e-11
4.91509e-08
4.91562e-08
-2.35913e-11
-9.26411e-12
-6.23854e-12
4.91422e-08
3.15805e-12
-1.04385e-11
-8.56585e-12
4.91435e-08
5.26033e-12
-1.11502e-11
-1.08749e-11
4.9145e-08
7.46688e-12
-1.30274e-11
4.91466e-08
9.51957e-12
-1.12132e-11
-1.15949e-11
-1.00641e-11
4.91427e-08
-1.27126e-11
-1.24445e-11
4.91446e-08
-1.31886e-11
-1.47095e-11
4.91468e-08
-1.67143e-11
4.91493e-08
-1.29111e-11
-1.39696e-11
-1.39674e-11
4.91442e-08
-1.49528e-11
-1.6268e-11
4.91468e-08
-1.51033e-11
-1.83377e-11
4.91497e-08
-2.00243e-11
4.91528e-08
-1.42908e-11
-1.62605e-11
4.91468e-08
-1.70014e-11
4.915e-08
-1.672e-11
4.91535e-08
4.91572e-08
-1.52933e-11
-6.82204e-12
-5.05389e-12
4.91447e-08
3.10307e-12
-7.38837e-12
-6.43633e-12
4.91459e-08
4.383e-12
-7.67654e-12
-7.78132e-12
4.91473e-08
5.69534e-12
-9.00196e-12
4.91486e-08
6.87261e-12
-7.58268e-12
-8.19958e-12
-7.35562e-12
4.91456e-08
-8.70079e-12
-8.71968e-12
4.91473e-08
-8.81834e-12
-1.0011e-11
4.91491e-08
-1.11277e-11
4.9151e-08
-8.50005e-12
-9.55733e-12
-9.5835e-12
4.91472e-08
-9.97198e-12
-1.08897e-11
4.91493e-08
-9.87414e-12
-1.20497e-11
4.91516e-08
-1.29691e-11
4.9154e-08
-9.20922e-12
-1.08581e-11
4.91494e-08
-1.11177e-11
4.9152e-08
-1.0749e-11
4.91547e-08
4.91574e-08
-9.7027e-12
-4.55947e-12
-3.41135e-12
4.9146e-08
2.27266e-12
-4.80539e-12
-4.20616e-12
4.91472e-08
3.00925e-12
-4.88742e-12
-4.96443e-12
4.91484e-08
3.76044e-12
-5.63395e-12
4.91496e-08
4.42674e-12
-4.75271e-12
-5.3478e-12
-4.72156e-12
4.9147e-08
-5.53854e-12
-5.47026e-12
4.91486e-08
-5.508e-12
-6.17846e-12
4.91502e-08
-6.77982e-12
4.91518e-08
-5.23091e-12
-6.09146e-12
-5.92942e-12
4.91486e-08
-6.23199e-12
-6.63996e-12
4.91505e-08
-6.06951e-12
-7.26522e-12
4.91525e-08
-7.74467e-12
4.91545e-08
-5.58337e-12
-6.79844e-12
4.91506e-08
-6.84689e-12
4.91529e-08
-6.51933e-12
4.91552e-08
4.91574e-08
-5.80996e-12
-2.84375e-12
-1.8832e-12
1.31191e-12
-2.93604e-12
-2.32429e-12
1.72958e-12
-2.92972e-12
-2.73982e-12
2.14284e-12
-3.10065e-12
2.506e-12
-2.79801e-12
-3.27879e-12
-2.51853e-12
-3.3348e-12
-2.93864e-12
-3.26413e-12
-3.32606e-12
-3.65098e-12
-3.05203e-12
-3.69451e-12
-3.1112e-12
-3.71011e-12
-3.50029e-12
-3.56281e-12
-3.836e-12
-4.09186e-12
-3.23926e-12
-4.08021e-12
-4.0371e-12
-3.79567e-12
-3.35499e-12
-1.44819e-09
-7.58016e-09
8.05667e-08
6.1342e-09
-1.71612e-10
6.04105e-08
-9.68465e-10
-9.91766e-09
7.80305e-08
2.15265e-09
3.95164e-08
3.28185e-09
1.72535e-09
5.06606e-09
4.48397e-08
1.91624e-09
-1.48571e-10
6.10916e-08
1.50939e-09
6.14575e-11
4.41513e-08
9.36832e-09
3.4569e-08
5.10456e-10
3.97895e-11
-7.3202e-10
6.21056e-08
2.41591e-09
-1.44596e-09
5.3953e-08
4.77651e-09
-6.53013e-09
5.06427e-08
-1.27222e-08
6.35714e-08
-1.75057e-09
-5.03469e-10
5.72256e-08
1.24019e-10
3.82682e-08
8.60418e-10
3.34503e-08
1.75811e-08
1.63705e-09
-1.15346e-09
2.19235e-09
8.04033e-08
-3.1923e-09
1.73072e-09
5.9969e-08
3.40209e-09
9.88424e-10
7.25328e-08
-9.82689e-09
5.3754e-08
-3.52422e-09
-2.29059e-09
-8.86616e-09
6.44802e-08
-5.3806e-09
-4.61402e-09
7.05265e-08
1.0672e-09
1.96277e-09
3.67293e-08
-4.00462e-09
3.01151e-08
-3.01097e-10
3.38452e-09
-9.38108e-09
6.06964e-08
-3.07248e-10
-6.9077e-09
5.99385e-08
-1.84708e-09
-2.96356e-09
5.71088e-08
1.34917e-09
5.85956e-08
-2.22501e-09
3.07683e-09
3.86224e-08
2.3484e-09
3.54828e-08
1.55907e-09
3.28483e-08
2.169e-08
-4.0881e-10
1.01889e-10
2.29326e-09
8.15721e-08
-1.15613e-09
-1.40718e-09
6.38445e-08
4.24065e-09
2.51826e-09
6.44182e-08
-1.2874e-08
7.53996e-08
-5.52616e-09
-1.30939e-09
2.69789e-09
6.66409e-08
4.67743e-10
7.43635e-09
5.99058e-08
-2.87546e-10
-2.80342e-09
4.28063e-08
-1.03687e-08
2.84192e-08
-1.09694e-09
1.39601e-09
-1.94782e-10
6.4127e-08
-5.8679e-09
3.96056e-10
7.42428e-08
-4.68076e-09
4.56965e-09
4.85486e-08
9.51952e-09
3.33374e-08
6.89268e-10
-1.36806e-10
3.26722e-08
-1.53436e-09
4.10002e-08
-1.25895e-09
3.86964e-08
2.92924e-08
-1.7587e-09
7.68786e-10
2.08985e-09
7.86087e-08
1.9512e-09
-2.85983e-09
6.65222e-08
-4.82364e-09
1.71511e-09
6.95686e-08
4.65095e-09
6.53358e-08
3.48033e-09
-1.28999e-09
9.76383e-09
6.13935e-08
4.00759e-09
8.18679e-09
4.35617e-08
-2.75037e-09
-6.00619e-09
5.72856e-08
-1.54258e-09
2.99724e-08
1.89003e-09
-5.91327e-09
7.33858e-10
8.60436e-08
-2.20255e-09
3.03147e-09
7.56875e-08
-1.01175e-09
-8.78035e-10
4.22297e-08
3.55157e-09
2.62635e-08
9.68071e-10
-1.94627e-09
4.21778e-08
-3.34281e-09
4.89581e-08
7.76272e-10
3.13212e-08
2.82506e-08
1.75928e-09
1.28756e-09
5.60419e-09
7.21193e-08
-5.05157e-09
-3.33558e-09
7.66387e-08
-3.96598e-09
1.67069e-09
6.69048e-08
1.02598e-08
4.59194e-08
5.64396e-09
-1.04072e-09
-2.78486e-09
7.60559e-08
1.43343e-10
-1.04253e-09
4.00846e-08
-7.11624e-10
2.7287e-09
5.70825e-08
1.78428e-09
3.53893e-08
2.34703e-09
-4.18699e-09
9.21971e-09
8.39757e-08
1.50023e-09
5.24735e-09
6.37105e-08
-1.38849e-09
3.51905e-09
4.43281e-08
4.85591e-09
2.08593e-08
9.44048e-10
-3.55519e-09
6.17249e-08
1.30973e-09
4.88512e-08
-2.60624e-10
3.55072e-08
2.79179e-08
2.29325e-09
-4.42688e-10
3.01235e-10
6.89299e-08
-9.76633e-10
9.44085e-09
6.89799e-08
-3.49746e-09
-2.3185e-09
7.14925e-08
9.59015e-09
3.25647e-08
7.46434e-10
2.4705e-09
-1.52775e-09
6.91695e-08
-3.28538e-09
2.97923e-09
5.23021e-08
-7.23575e-10
1.20565e-08
4.01457e-08
1.00108e-08
3.51132e-08
-8.68158e-10
5.65076e-09
3.6908e-09
6.93435e-08
5.48571e-10
-8.36288e-09
8.01548e-08
-1.20606e-09
1.90482e-09
5.62344e-08
4.44244e-09
2.54111e-08
-1.89569e-10
-4.27339e-09
6.82112e-08
5.80146e-09
3.04644e-08
-2.75228e-09
5.41127e-08
3.38384e-08
-2.97033e-09
-9.09182e-10
6.17826e-10
7.00984e-08
3.18187e-10
1.16741e-09
6.72857e-08
2.69936e-09
6.45396e-10
6.61135e-08
-5.36742e-09
3.50456e-08
3.72947e-10
2.33851e-09
-9.21216e-10
6.95847e-08
2.27708e-09
-8.20276e-09
6.17338e-08
-3.10579e-11
-6.0389e-09
4.91379e-08
-4.26969e-09
3.47133e-08
-7.28746e-10
2.35672e-09
-2.37336e-09
6.76556e-08
6.34988e-09
-7.20555e-10
6.86798e-08
3.06262e-09
-1.52329e-09
5.50057e-08
-5.09921e-09
3.07531e-08
-1.44922e-09
3.8156e-09
6.19528e-08
-4.54771e-09
4.33007e-08
1.20692e-09
4.49877e-08
2.98085e-08
2.46167e-10
5.37795e-10
-6.44023e-09
7.49712e-08
8.63353e-10
-7.64866e-09
7.46089e-08
4.7121e-11
-5.94876e-09
7.28788e-08
-4.94774e-09
4.01532e-08
-1.13709e-10
9.362e-10
-7.94366e-09
7.00465e-08
1.88838e-09
-1.01992e-08
6.33322e-08
1.11042e-10
-1.1403e-08
5.63704e-08
-6.83456e-09
3.68287e-08
-1.17712e-10
-6.06655e-10
-8.84942e-09
6.76784e-08
1.47008e-09
-8.86107e-09
6.52648e-08
1.11023e-09
-1.14972e-08
5.546e-08
-9.12825e-09
3.43765e-08
-2.1969e-10
-1.44682e-09
6.19892e-08
-1.99614e-09
4.78936e-08
3.33518e-10
4.46026e-08
3.20793e-08
-6.18435e-10
-1.05022e-09
-1.16578e-09
7.56236e-08
4.6363e-10
6.08247e-10
7.24878e-08
3.29971e-09
3.48124e-09
6.6561e-08
-1.93893e-09
4.46133e-08
7.77616e-10
2.03544e-10
-5.75377e-10
6.87939e-08
7.70368e-10
2.06802e-10
6.3168e-08
2.69213e-09
2.01998e-09
5.59095e-08
-2.39296e-09
3.94637e-08
5.11152e-10
-3.10202e-10
2.2418e-09
6.29709e-08
1.0623e-09
5.50155e-09
5.85977e-08
2.77485e-09
5.94273e-09
4.98252e-08
-3.42166e-10
3.44428e-08
6.56959e-10
2.33822e-09
5.55478e-08
1.10491e-09
4.71794e-08
1.36272e-09
4.09631e-08
2.92622e-08
6.80071e-10
4.13663e-11
5.93899e-10
7.44975e-08
1.04211e-09
1.34196e-09
7.01459e-08
2.43561e-09
2.47398e-09
6.26943e-08
-3.10232e-10
4.68536e-08
5.05378e-10
7.72101e-10
1.28397e-09
6.73688e-08
1.17076e-09
1.61331e-09
6.24989e-08
2.14432e-09
2.63991e-09
5.47705e-08
-1.25502e-10
4.10756e-08
3.46943e-10
8.52365e-10
2.80682e-09
6.03155e-08
1.35077e-09
4.03773e-09
5.56757e-08
1.92799e-09
4.16999e-09
4.77182e-08
6.49598e-10
3.53172e-08
2.78667e-10
1.97853e-09
5.25639e-08
1.31303e-09
4.73461e-08
1.24114e-09
4.01546e-08
2.93725e-08
1.88161e-10
2.36681e-10
5.77576e-10
7.37802e-08
5.04778e-10
7.92037e-10
6.90861e-08
1.01915e-09
1.21451e-09
6.0966e-08
8.7896e-11
4.74852e-08
2.9951e-10
4.68946e-10
1.17938e-09
6.6552e-08
5.32772e-10
1.31703e-09
6.19107e-08
8.90198e-10
1.7199e-09
5.39079e-08
3.81111e-10
4.14438e-08
2.28319e-10
5.96315e-10
1.93519e-09
5.92644e-08
5.60586e-10
2.20244e-09
5.48264e-08
7.02863e-10
2.30582e-09
4.69901e-08
8.5146e-10
3.53885e-08
1.60916e-10
9.48675e-10
5.1715e-08
5.70221e-10
4.73989e-08
4.20296e-10
3.99864e-08
2.92454e-08
1.00516e-10
3.26249e-10
5.04359e-10
7.31635e-08
3.82932e-10
5.47352e-10
6.84827e-08
5.64171e-10
6.70163e-10
6.01148e-08
1.75176e-10
4.77249e-08
1.49066e-10
3.95271e-10
9.28337e-10
6.60197e-08
3.82897e-10
9.41276e-10
6.15297e-08
5.01802e-10
1.0375e-09
5.34216e-08
3.84071e-10
4.16165e-08
1.19576e-10
4.49845e-10
1.27303e-09
5.8815e-08
3.73508e-10
1.28639e-09
5.4558e-08
3.91301e-10
1.2678e-09
4.67419e-08
5.88453e-10
3.54929e-08
8.20124e-11
5.33802e-10
5.15221e-08
3.47758e-10
4.74971e-08
2.46598e-10
4.00575e-08
2.93353e-08
4.77672e-11
2.59627e-10
3.38984e-10
7.27683e-08
2.4522e-10
3.26612e-10
6.81709e-08
2.75716e-10
3.43162e-10
5.97412e-08
1.15047e-10
4.78261e-08
5.92221e-11
2.73673e-10
5.9371e-10
6.57213e-08
2.33618e-10
5.57676e-10
6.13387e-08
2.42512e-10
5.45838e-10
5.32099e-08
2.31212e-10
4.16954e-08
4.69965e-11
2.80835e-10
7.50748e-10
5.86321e-08
2.1119e-10
7.04684e-10
5.44808e-08
1.82537e-10
6.43089e-10
4.66732e-08
3.22195e-10
3.55554e-08
2.87634e-11
2.83519e-10
5.15146e-08
1.75887e-10
4.7599e-08
1.07874e-10
4.01418e-08
2.94032e-08
9.64258e-12
1.70288e-10
1.99565e-10
7.25444e-08
1.42872e-10
1.7869e-10
6.80195e-08
1.28362e-10
1.68234e-10
5.95873e-08
6.17495e-11
4.78772e-08
1.52264e-11
1.6845e-10
3.42067e-10
6.55639e-08
1.31623e-10
3.03327e-10
6.12508e-08
1.1072e-10
2.70302e-10
5.31285e-08
1.17737e-10
4.17399e-08
9.88198e-12
1.60352e-10
4.13676e-10
5.85591e-08
1.11609e-10
3.67341e-10
5.44655e-08
7.88452e-11
3.11666e-10
4.66644e-08
1.55581e-10
3.55983e-08
-2.11739e-12
1.43822e-10
5.1546e-08
8.25109e-11
4.76743e-08
3.96824e-11
4.02046e-08
2.94522e-08
-1.20873e-11
1.00001e-10
1.10906e-10
7.24239e-08
7.66935e-11
9.37955e-11
6.79489e-08
5.45993e-11
7.99518e-11
5.95292e-08
2.88472e-11
4.79096e-08
-6.90239e-12
9.4961e-11
1.86887e-10
6.54842e-08
6.81456e-11
1.57549e-10
6.12137e-08
4.4653e-11
1.28447e-10
5.31033e-08
5.36185e-11
4.17701e-08
-1.05155e-11
8.4794e-11
2.18821e-10
5.85314e-08
5.34992e-11
1.84681e-10
5.44696e-08
2.73862e-11
1.44708e-10
4.66741e-08
6.64305e-11
3.56284e-08
-1.56643e-11
6.79392e-11
5.15769e-08
3.29436e-11
4.77245e-08
6.18865e-12
4.02475e-08
2.94852e-08
-2.09778e-11
5.33451e-11
5.90246e-11
7.23619e-08
3.68117e-11
4.72121e-11
6.79181e-08
1.84292e-11
3.61282e-11
5.95113e-08
1.1146e-11
4.79314e-08
-1.46864e-11
4.8665e-11
9.77536e-11
6.54457e-08
3.07642e-11
7.80722e-11
6.12006e-08
1.24785e-11
5.73909e-11
5.31002e-08
1.97969e-11
4.17907e-08
-1.67471e-11
4.02207e-11
1.1115e-10
5.85228e-08
2.07227e-11
8.85448e-11
5.44786e-08
2.60276e-12
6.22667e-11
4.66874e-08
2.16383e-11
3.5649e-08
-1.97417e-11
2.73123e-11
5.16e-08
7.4876e-12
4.77567e-08
-9.17624e-12
4.02759e-08
2.95068e-08
-2.30005e-11
2.50589e-11
2.99386e-11
7.23319e-08
1.41343e-11
2.23605e-11
6.79066e-08
1.23402e-12
1.49145e-11
5.95092e-08
2.21875e-12
4.79463e-08
-1.58374e-11
2.1448e-11
4.86299e-11
6.54287e-08
1.00067e-11
3.62135e-11
6.11981e-08
-2.20295e-12
2.28844e-11
5.31045e-08
3.45492e-12
4.18048e-08
-1.72946e-11
1.52643e-11
5.34092e-11
5.85221e-08
3.63116e-12
3.89798e-11
5.44875e-08
-7.86813e-12
2.28898e-11
4.66991e-08
1.28766e-12
3.56628e-08
-1.92801e-11
6.11112e-12
5.1616e-08
-5.66102e-12
4.77774e-08
-1.51086e-11
4.02942e-08
2.95208e-08
-2.14464e-11
9.17047e-12
1.42375e-11
7.23184e-08
2.40301e-12
9.52652e-12
6.79038e-08
-5.56934e-12
4.93287e-12
5.95124e-08
-1.42205e-12
4.79567e-08
-1.43566e-11
6.52722e-12
2.24889e-11
6.54222e-08
-5.20485e-13
1.48341e-11
6.12e-08
-7.99715e-12
6.82176e-12
5.31104e-08
-3.22566e-12
4.18145e-08
-1.54746e-11
2.13459e-12
2.34357e-11
5.85244e-08
-5.04026e-12
1.45325e-11
5.44951e-08
-1.16159e-11
4.70375e-12
4.67081e-08
-6.70443e-12
3.5672e-08
-1.69105e-11
-3.92412e-12
5.1627e-08
-1.08132e-11
4.77907e-08
-1.58937e-11
4.03062e-08
2.95296e-08
-1.84533e-11
9.24009e-13
6.11327e-12
7.23134e-08
-3.28714e-12
3.29887e-12
6.79048e-08
-7.84477e-12
5.53619e-13
5.95166e-08
-2.60909e-12
4.79637e-08
-1.19954e-11
-9.19189e-13
9.1665e-12
6.54208e-08
-5.22689e-12
4.5721e-12
6.12031e-08
-9.49723e-12
-1.54369e-13
5.31157e-08
-5.3577e-12
4.18209e-08
-1.28553e-11
-3.8334e-12
8.49015e-12
5.85274e-08
-8.11746e-12
3.07808e-12
5.4501e-08
-1.18024e-11
-2.69121e-12
4.67146e-08
-8.88278e-12
3.5678e-08
-1.39031e-11
-7.85568e-12
5.16345e-08
-1.17616e-11
4.77993e-08
-1.44605e-11
4.03138e-08
2.95351e-08
-1.50006e-11
-2.64685e-12
2.12111e-12
7.23123e-08
-5.21201e-12
4.94989e-13
6.79068e-08
-7.71736e-12
-1.07137e-12
5.95203e-08
-2.66378e-12
4.79683e-08
-9.46553e-12
-3.91393e-12
2.75229e-12
6.54214e-08
-6.52018e-12
7.48421e-14
6.12061e-08
-8.84552e-12
-2.65282e-12
5.31196e-08
-5.3621e-12
4.1825e-08
-1.01234e-11
-5.88948e-12
1.57118e-12
5.85303e-08
-8.41169e-12
-1.65053e-12
5.45053e-08
-1.03378e-11
-5.02869e-12
4.6719e-08
-8.40842e-12
3.56817e-08
-1.08815e-11
-8.49012e-12
5.16395e-08
-1.07568e-11
4.78048e-08
-1.20241e-11
4.03185e-08
2.95385e-08
-1.16527e-11
-3.70629e-12
3.42899e-13
7.23126e-08
-5.2214e-12
-5.73356e-13
6.79088e-08
-6.50781e-12
-1.44801e-12
5.9523e-08
-2.23704e-12
4.79711e-08
-7.08479e-12
-4.56291e-12
8.49326e-15
6.54226e-08
-6.09522e-12
-1.53718e-12
6.12085e-08
-7.27636e-12
-3.07532e-12
5.31224e-08
-4.47956e-12
4.18275e-08
-7.57168e-12
-5.86337e-12
-1.16035e-12
5.85325e-08
-7.32684e-12
-3.05837e-12
5.45082e-08
-8.24438e-12
-5.02297e-12
4.67218e-08
-6.87113e-12
3.5684e-08
-8.10636e-12
-7.54267e-12
5.16428e-08
-8.82351e-12
4.78081e-08
-9.31973e-12
4.03214e-08
2.95405e-08
-8.63599e-12
-3.4399e-12
-3.07345e-13
7.23134e-08
-4.29954e-12
-7.88952e-13
6.79104e-08
-4.90614e-12
-1.26643e-12
5.95248e-08
-1.65024e-12
4.79728e-08
-4.97076e-12
-4.00781e-12
-8.78387e-13
6.54237e-08
-4.86688e-12
-1.74557e-12
6.12102e-08
-5.41383e-12
-2.59809e-12
5.31241e-08
-3.31072e-12
4.1829e-08
-5.31136e-12
-4.84077e-12
-1.79094e-12
5.85341e-08
-5.64816e-12
-2.90786e-12
5.45101e-08
-6.02706e-12
-4.02675e-12
4.67235e-08
-5.03003e-12
3.56853e-08
-5.67187e-12
-5.9015e-12
5.16447e-08
-6.58057e-12
4.78101e-08
-6.69951e-12
4.0323e-08
2.95416e-08
-6.0231e-12
-2.60185e-12
-3.58024e-13
7.2314e-08
-3.02967e-12
-6.37218e-13
6.79113e-08
-3.27263e-12
-8.88746e-13
5.95258e-08
-1.07037e-12
4.79736e-08
-3.17744e-12
-2.94278e-12
-8.62768e-13
6.54244e-08
-3.37345e-12
-1.33415e-12
6.12112e-08
-3.58077e-12
-1.78579e-12
5.31251e-08
-2.13787e-12
4.18298e-08
-3.38902e-12
-3.44475e-12
-1.48425e-12
5.8535e-08
-3.83987e-12
-2.11346e-12
5.45111e-08
-3.94428e-12
-2.71682e-12
4.67245e-08
-3.24255e-12
3.5686e-08
-3.61076e-12
-4.0759e-12
5.16458e-08
-4.38592e-12
4.78112e-08
-4.34028e-12
4.03239e-08
2.95422e-08
-3.82594e-12
-1.74814e-12
-2.73438e-13
-1.9404e-12
-4.05318e-13
-2.00688e-12
-5.23522e-13
-5.99568e-13
-1.8739e-12
-1.9328e-12
-5.72072e-13
-2.12671e-12
-8.14102e-13
-2.17058e-12
-1.04058e-12
-1.20366e-12
-1.98536e-12
-2.21481e-12
-9.21624e-13
-2.38283e-12
-1.25382e-12
-2.36477e-12
-1.56841e-12
-1.83268e-12
-2.10014e-12
-2.56457e-12
-2.67986e-12
-2.57437e-12
-2.21145e-12
2.96022e-09
-1.60048e-09
3.5984e-08
4.92635e-10
-5.15996e-09
4.11754e-08
1.48318e-08
-5.07515e-09
3.2799e-08
-5.19878e-09
7.02827e-08
-5.37832e-09
-2.88411e-09
5.1055e-08
2.55772e-09
1.59218e-09
3.21128e-08
1.31788e-08
1.43936e-09
3.91156e-08
-2.41292e-09
7.06249e-08
1.61044e-10
4.20011e-09
3.79082e-08
2.36045e-09
2.85558e-09
5.19168e-08
6.42804e-09
7.68161e-09
5.21354e-08
4.66754e-09
6.73477e-08
8.11735e-10
6.52403e-08
4.72139e-09
6.01434e-08
1.30456e-09
7.49998e-08
8.66869e-08
2.95917e-09
1.72278e-09
3.26707e-08
-9.84496e-10
1.1618e-09
4.17323e-08
6.79084e-09
1.21149e-09
2.35111e-08
-4.21897e-09
7.73891e-08
4.0614e-09
4.40345e-09
4.67e-08
2.1269e-09
1.38294e-09
3.38262e-08
-5.38014e-09
-9.15752e-10
4.875e-08
-3.95188e-09
6.60049e-08
3.23457e-10
-4.48183e-10
4.87068e-08
-2.07766e-09
3.01022e-09
5.26907e-08
-3.34699e-09
1.42699e-09
5.1062e-08
2.36921e-09
5.86809e-08
3.48982e-09
5.91181e-08
-9.35674e-09
7.70634e-08
-5.51391e-09
6.25176e-08
7.29337e-08
-3.06245e-09
4.29051e-09
2.40607e-08
3.04037e-09
7.8568e-09
2.8462e-08
-6.87979e-09
6.01166e-09
2.63227e-08
8.605e-09
5.83779e-08
6.63027e-09
4.77754e-09
3.73901e-08
6.59581e-09
1.84072e-09
3.98768e-08
-4.42001e-09
8.61574e-10
6.49159e-08
3.9845e-09
6.67659e-08
3.44186e-09
-8.80263e-10
5.35116e-08
5.71944e-09
-3.6332e-09
5.58871e-08
4.12189e-09
-2.40476e-09
5.5926e-08
-6.50582e-09
7.2786e-08
-2.44204e-09
5.86085e-08
9.42467e-09
5.71734e-08
-1.09832e-08
8.59907e-08
4.91498e-08
-3.54089e-09
1.07814e-09
2.8518e-08
3.51541e-09
2.28634e-09
2.00874e-08
-2.07139e-09
1.08473e-09
3.27148e-08
1.11568e-10
6.05477e-08
-6.29964e-11
-1.20261e-09
3.90995e-08
1.14816e-09
1.0073e-09
3.99447e-08
-2.82755e-09
2.52363e-09
6.74527e-08
4.2216e-09
6.02501e-08
3.58504e-09
5.61861e-09
4.13929e-08
3.6983e-09
2.19592e-09
5.45853e-08
6.13965e-10
2.00828e-09
5.95257e-08
1.1424e-09
7.66215e-08
-2.71243e-09
6.12096e-08
-6.06885e-10
5.29079e-08
-2.22452e-09
8.71975e-08
4.91899e-08
-5.17276e-09
7.68161e-09
3.13975e-08
-1.86319e-09
1.88274e-09
1.58392e-08
-4.04258e-09
1.34753e-09
3.58937e-08
1.23224e-09
6.18972e-08
-1.19776e-08
-4.0543e-09
7.25905e-08
-9.61297e-09
-1.87395e-09
4.13367e-08
-7.41017e-09
1.12466e-09
6.54728e-08
1.92208e-09
5.21387e-08
-5.12071e-09
-2.0986e-10
4.38915e-08
-5.53853e-09
1.95313e-09
5.1176e-08
-7.26851e-09
-2.78812e-10
6.26592e-08
3.40817e-09
6.99872e-08
-1.41589e-09
4.93623e-08
-1.15705e-08