/*--------------------------------*- C++ -*----------------------------------*\
| =========                 |                                                 |
| \\      /  F ield         | OpenFOAM: The Open Source CFD Toolbox           |
|  \\    /   O peration     | Version:  2506                                  |
|   \\  /    A nd           | Website:  www.openfoam.com                      |
|    \\/     M anipulation  |                                                 |
\*---------------------------------------------------------------------------*/
FoamFile
{
    version     2.0;
    format      ascii;
    arch        "LSB;label=32;scalar=64";
    class       volVectorField;
    location    "0.08";
    object      Us;
}
// * * * * * * * * * * * * * * * * * * * * * * * * * * * * * * * * * * * * * //

dimensions      [0 1 -1 0 0 0 0];

internalField   nonuniform List<vector> 
1152
(
(0.000159403 0.000162116 0.000345689)
(0.000197089 0.000244031 0.000836055)
(4.34226e-05 -0.000105301 0.00059483)
(0.00122107 0.000741081 -0.000366692)
(9.00505e-05 -0.000166481 3.56805e-06)
(-7.12917e-05 -0.000140095 -2.12252e-05)
(-0.000195616 -0.000642335 -0.00033115)
(-0.000158623 0.000230774 -0.00082571)
(-0.000111219 0.000191164 2.20262e-05)
(0.000780593 -8.67399e-05 -0.000424094)
(0.000964914 0.00101471 -0.000446981)
(-0.000218048 0.000972878 -0.000192922)
(-0.000289934 0.000212872 -5.90765e-05)
(0.000517197 0.000626435 -0.00079589)
(0.00116655 0.00165195 -8.79633e-05)
(0.00110803 0.00070795 0.000135973)
(-0.000537207 0.000143474 0.0083537)
(0.00116746 -2.136e-05 0.0106451)
(9.69025e-05 -0.00024455 0.00930747)
(0.00059324 0.00015148 0.00726079)
(0.000758559 0.000502943 0.0102471)
(0.00123078 0.00115998 0.0110325)
(0.000594367 0.000163431 0.0104019)
(0.000738368 0.00013014 0.00968157)
(-0.00054719 0.000576626 0.0104355)
(0.00116362 0.000483578 0.0105782)
(0.00170906 0.000396748 0.00983574)
(0.00154557 0.000887238 0.010206)
(0.000523864 0.000743643 0.010357)
(0.00176143 0.000407992 0.0100639)
(0.00228958 8.71311e-05 0.0111095)
(-0.000347508 0.00151896 0.0110458)
(0.000326088 0.000583817 0.0100295)
(0.000691769 0.000785855 0.00989379)
(0.000495382 0.00022374 0.0108321)
(6.21564e-05 0.00136902 0.0102618)
(0.000777929 0.00107332 0.0105863)
(0.000686215 0.000940372 0.0102658)
(0.000329987 0.000685873 0.010952)
(0.000575666 0.00127875 0.0111103)
(0.000327707 0.000921606 0.0109221)
(0.000938441 0.000851156 0.0106233)
(0.000552004 0.000574628 0.0105296)
(0.00106912 0.000799356 0.0111959)
(0.000537359 0.000562751 0.0104786)
(0.000755444 -1.14628e-06 0.0104599)
(-0.00030049 0.000313347 0.0113306)
(0.000141737 0.000778687 0.0119248)
(0.000362092 0.000730334 0.0103562)
(0.000443199 0.00106839 0.0100211)
(0.000458957 0.000954567 0.0103176)
(-0.000342295 0.000497281 0.0099188)
(0.000288233 0.000518665 0.0107139)
(0.000159019 0.000497329 0.0105855)
(0.000249196 0.00133235 0.0109636)
(0.000307458 0.000647079 0.0107021)
(0.000568372 0.00044169 0.0110652)
(0.000501764 0.000299179 0.0111621)
(0.000539217 0.000723882 0.0111827)
(0.000655691 0.000774692 0.0115497)
(0.000374165 3.8502e-05 0.0111865)
(0.000269115 0.000429099 0.0115751)
(-1.28389e-05 0.000381581 0.0114507)
(9.17718e-05 0.00075251 0.0120917)
(0.000320229 0.00040334 0.0107243)
(0.000191188 0.000475342 0.0106728)
(0.000259073 0.00113538 0.010614)
(-0.000229574 0.00102169 0.0102646)
(0.000369491 8.28355e-05 0.0110063)
(-5.0704e-06 0.000341686 0.0110148)
(-0.00025864 0.00119133 0.0104167)
(-0.000151196 0.000521855 0.0102126)
(0.000137533 0.000269573 0.011147)
(2.35583e-05 0.000108811 0.0113797)
(0.000202293 0.000457104 0.0112883)
(0.000355678 0.000428831 0.0116903)
(-4.84897e-05 0.000199575 0.0112153)
(-0.000134018 0.000336868 0.0112856)
(-0.0002553 0.000487794 0.0114963)
(-0.000367351 0.000626465 0.0119464)
(0.000167507 -0.000516463 0.0105447)
(-1.72015e-05 -0.000667222 0.0105136)
(2.45532e-06 -1.47634e-05 0.0103186)
(6.04796e-05 0.000763232 0.0100132)
(-1.32798e-05 8.62447e-05 0.0109954)
(9.20721e-05 -0.000268557 0.0109456)
(-0.00020872 0.000335395 0.0101586)
(-0.000300701 0.000652666 0.0107605)
(0.000100775 0.000268254 0.0108091)
(0.00011867 0.00010342 0.0112757)
(0.000123826 0.000371702 0.0114181)
(9.89149e-05 0.000717991 0.0117187)
(-0.000102632 0.00011946 0.0110921)
(-7.76383e-05 6.30079e-06 0.011383)
(-0.000143751 0.00035638 0.0114598)
(-0.000195435 0.000458393 0.0117782)
(0.000483698 -2.42032e-05 0.0105633)
(0.000859544 -8.16494e-05 0.0105717)
(-0.000660802 -0.000589406 0.010317)
(-0.00199762 0.000633145 0.00881147)
(3.93363e-05 0.000507889 0.0110754)
(0.000107259 0.000222369 0.0107009)
(1.93236e-05 5.14077e-05 0.0107143)
(-0.000335121 -4.70153e-05 0.0108466)
(-6.56596e-05 0.00035217 0.0107517)
(-2.69751e-05 2.99358e-06 0.0112519)
(5.01158e-05 0.000294076 0.01131)
(-0.000454043 0.000705529 0.0115035)
(-0.000224332 -6.66831e-05 0.0111054)
(-0.000275404 -0.000154404 0.0114803)
(-0.000416884 0.000282426 0.0115826)
(-0.00076309 0.000711167 0.0120793)
(0 0 0)
(0 0 0)
(0 0 0)
(0 0 0)
(0 0 0)
(0 0 0)
(0 0 0)
(0 0 0)
(0 0 0)
(0 0 0)
(-0.000107807 -0.000165101 0.0116204)
(0 0 0)
(0 0 0)
(-0.000396901 -8.55682e-05 0.0115007)
(-0.00119924 -0.000257627 0.0116175)
(0 0 0)
(0 0 0)
(0 0 0)
(0 0 0)
(0 0 0)
(0 0 0)
(0 0 0)
(0 0 0)
(0 0 0)
(0 0 0)
(0 0 0)
(0 0 0)
(0 0 0)
(0 0 0)
(0 0 0)
(0 0 0)
(0 0 0)
(0 0 0)
(0 0 0)
(0 0 0)
(0 0 0)
(0 0 0)
(0 0 0)
(0 0 0)
(0 0 0)
(0 0 0)
(0 0 0)
(0 0 0)
(0 0 0)
(0 0 0)
(0 0 0)
(0 0 0)
(0 0 0)
(0 0 0)
(0 0 0)
(0 0 0)
(0 0 0)
(0 0 0)
(0 0 0)
(0 0 0)
(0 0 0)
(0 0 0)
(0 0 0)
(0 0 0)
(0 0 0)
(0 0 0)
(0 0 0)
(0 0 0)
(0 0 0)
(0 0 0)
(0 0 0)
(0 0 0)
(0 0 0)
(0 0 0)
(0 0 0)
(0 0 0)
(0 0 0)
(0 0 0)
(0 0 0)
(0 0 0)
(0 0 0)
(0 0 0)
(0 0 0)
(0 0 0)
(0 0 0)
(0 0 0)
(0 0 0)
(0 0 0)
(0 0 0)
(0 0 0)
(0 0 0)
(0 0 0)
(0 0 0)
(0 0 0)
(0 0 0)
(0 0 0)
(0 0 0)
(0 0 0)
(0 0 0)
(0 0 0)
(0 0 0)
(0 0 0)
(0 0 0)
(0 0 0)
(0 0 0)
(0 0 0)
(0 0 0)
(0 0 0)
(0 0 0)
(0 0 0)
(0 0 0)
(0 0 0)
(0 0 0)
(0 0 0)
(0 0 0)
(0 0 0)
(0 0 0)
(0 0 0)
(0 0 0)
(0 0 0)
(0 0 0)
(0 0 0)
(0 0 0)
(0 0 0)
(0 0 0)
(0 0 0)
(0 0 0)
(0 0 0)
(0 0 0)
(0 0 0)
(0 0 0)
(0 0 0)
(0 0 0)
(0 0 0)
(0 0 0)
(0 0 0)
(0 0 0)
(0 0 0)
(0 0 0)
(0 0 0)
(0 0 0)
(0 0 0)
(0 0 0)
(0 0 0)
(0 0 0)
(0 0 0)
(0 0 0)
(0 0 0)
(0 0 0)
(0 0 0)
(0 0 0)
(0 0 0)
(0 0 0)
(0 0 0)
(0 0 0)
(0 0 0)
(0 0 0)
(0 0 0)
(0 0 0)
(0 0 0)
(0 0 0)
(0 0 0)
(0 0 0)
(0 0 0)
(0 0 0)
(0 0 0)
(0 0 0)
(0 0 0)
(0 0 0)
(0 0 0)
(0 0 0)
(0 0 0)
(0 0 0)
(0 0 0)
(0 0 0)
(0 0 0)
(0 0 0)
(0 0 0)
(0 0 0)
(0 0 0)
(0 0 0)
(0 0 0)
(0 0 0)
(0 0 0)
(0 0 0)
(0 0 0)
(0 0 0)
(0 0 0)
(0 0 0)
(0 0 0)
(0 0 0)
(0 0 0)
(0 0 0)
(0 0 0)
(0 0 0)
(0 0 0)
(0 0 0)
(0 0 0)
(0 0 0)
(0 0 0)
(0 0 0)
(0 0 0)
(0 0 0)
(0 0 0)
(0 0 0)
(0 0 0)
(0 0 0)
(0 0 0)
(0 0 0)
(0 0 0)
(0 0 0)
(0 0 0)
(0 0 0)
(0 0 0)
(0 0 0)
(0 0 0)
(0 0 0)
(0 0 0)
(0 0 0)
(0 0 0)
(0 0 0)
(0 0 0)
(0 0 0)
(0 0 0)
(0 0 0)
(0 0 0)
(0 0 0)
(0 0 0)
(0 0 0)
(0 0 0)
(0 0 0)
(0 0 0)
(0 0 0)
(0 0 0)
(0 0 0)
(0 0 0)
(0 0 0)
(0 0 0)
(0 0 0)
(0 0 0)
(0 0 0)
(0 0 0)
(0 0 0)
(0 0 0)
(0 0 0)
(0 0 0)
(0 0 0)
(0 0 0)
(0 0 0)
(0 0 0)
(0 0 0)
(0 0 0)
(0 0 0)
(0 0 0)
(0 0 0)
(0 0 0)
(0 0 0)
(0 0 0)
(0 0 0)
(0 0 0)
(0 0 0)
(0 0 0)
(0 0 0)
(0 0 0)
(0 0 0)
(0 0 0)
(0 0 0)
(0 0 0)
(0 0 0)
(0 0 0)
(0 0 0)
(0 0 0)
(0 0 0)
(0 0 0)
(0 0 0)
(0 0 0)
(0 0 0)
(4.54013e-05 0.000130156 -5.97956e-05)
(0.000271296 0.000292383 -3.35233e-05)
(-6.63238e-05 5.39625e-05 0.000484511)
(0.000927654 0.000308882 -0.00028683)
(7.97092e-05 -6.06195e-05 0.000185473)
(0.000121369 -0.000524572 0.000145014)
(1.67077e-05 -4.96061e-05 0.00031288)
(-0.000209607 0.000483476 -0.000306394)
(-9.45899e-05 0.000100851 -0.000595066)
(1.87e-05 -3.37215e-05 0.00028431)
(4.8894e-05 -3.76083e-05 6.18614e-06)
(0.000397449 0.000389638 -0.000232254)
(-0.000135259 -0.000125277 -9.88851e-05)
(0.000494543 9.72747e-05 -0.000235835)
(0.000495213 8.88228e-05 -7.20442e-05)
(0.000693503 -0.000234755 0.000159846)
(0.00021911 -0.000334826 0.0081479)
(-0.00117125 -0.000652116 0.00888937)
(-0.000365175 0.000618453 0.00770577)
(0.000824297 -0.000582181 0.00741145)
(0.000304675 -0.000629086 0.00862083)
(-0.00178543 -0.000943676 0.00961929)
(-0.000996795 0.000505352 0.00947524)
(0.00199001 -0.000851385 0.0089329)
(0.00133105 -0.000569704 0.00876292)
(0.000650126 -9.81526e-05 0.00953299)
(0.000668231 -9.94363e-05 0.010718)
(-0.00209825 -0.000419389 0.0122172)
(0.000279778 -0.00126804 0.00866805)
(0.000792247 -0.000953238 0.00822534)
(0.00121216 -0.000436122 0.00862585)
(0.000613521 0.000562615 0.00965532)
(-0.000151136 -0.000145752 0.00999203)
(-0.000211821 0.000444292 0.00828628)
(-0.000129604 -0.000156268 0.0077127)
(0.000454306 -0.000100005 0.00969888)
(0.000642008 0.000582795 0.0103541)
(-0.000325627 -0.000105149 0.00847861)
(-9.76343e-05 0.000225027 0.00867159)
(0.000620624 -0.00059892 0.00777355)
(0.00102418 0.000617407 0.0108839)
(-0.00048989 0.000855415 0.0102728)
(-0.00110115 0.000362958 0.0101205)
(0.000159678 0.00118577 0.00909632)
(-0.00103185 0.000876068 0.0101003)
(-0.000523679 0.000210777 0.00974123)
(-0.000454302 0.000337697 0.0103665)
(-0.000600996 0.00122966 0.0101481)
(-0.000338151 0.00025708 0.00783799)
(4.23782e-05 0.000417588 0.00781981)
(-0.000608932 -0.000285436 0.00789619)
(0.000113737 0.00137828 0.00872274)
(-0.000360138 0.00106356 0.0101215)
(-0.000244799 0.000830506 0.00889226)
(-0.000331054 0.00027417 0.00864926)
(-0.000201542 0.000490267 0.0073295)
(-0.000408857 0.0012911 0.0117934)
(-0.000885237 0.000948748 0.00988861)
(-0.000263593 2.61781e-05 0.00914717)
(0.000258099 0.000408875 0.00901042)
(0.000230752 0.000957554 0.0100763)
(0.000228986 0.00113967 0.00975289)
(-0.000215878 0.000483102 0.0100228)
(-0.000760166 0.000379701 0.00907575)
(0.000486386 0.000146758 0.00672597)
(-0.000728152 -3.43117e-05 0.00769763)
(-0.000662753 -0.000316216 0.0087088)
(0.000954585 0.0010146 0.00681114)
(0.000772006 0.000210529 0.00853876)
(0.000988595 0.000126651 0.00883042)
(0.00050593 0.000175108 0.00831266)
(-9.46692e-05 0.000818962 0.00611448)
(0.00044548 0.000302954 0.0104688)
(0.000411571 0.000561675 0.00935055)
(-0.000270801 -0.000295801 0.00951214)
(-0.000294253 0.000447087 0.00853517)
(0.000185729 0.000724463 0.0101965)
(0.00020288 0.000590145 0.0100456)
(0.000115264 0.000958564 0.010108)
(-0.000788492 0.000722422 0.00961941)
(-0.000103462 -0.000402932 0.00630636)
(-9.5072e-05 0.000436917 0.00756756)
(0.000437623 0.000115939 0.00560687)
(0.00033254 0.000510523 0.00434598)
(-0.000679631 -0.00120725 0.00845965)
(0.000800375 0.000752031 0.00863158)
(0.000197669 0.000604985 0.00660817)
(-0.000325421 -0.000124077 0.00598495)
(0.000911542 0.000499047 0.00968708)
(0.00132357 0.000324229 0.00971451)
(0.000526816 0.000481316 0.00904492)
(-4.69131e-05 0.000186846 0.00777921)
(0.000224497 -0.000439364 0.0102805)
(-0.000111466 -0.000757036 0.00995061)
(-7.5363e-05 0.000572342 0.00993347)
(0.000252768 0.000388778 0.00858308)
(-0.000113331 0.000345258 0.00720377)
(-0.000527429 4.5552e-05 0.00618789)
(0.00134279 -4.45776e-05 0.00497781)
(0.00157843 -0.000846899 0.00442847)
(5.88579e-05 0.000703792 0.0088071)
(0.00114067 0.000280787 0.00876433)
(0.000896315 -9.32796e-05 0.00636175)
(0.000460446 -0.00195489 0.0067313)
(0.000300626 -0.000763802 0.00926859)
(0.00237293 -0.00119426 0.00896346)
(0.00230382 -0.000473 0.00762422)
(0.000747389 -0.00128015 0.00711838)
(0.000570847 -0.000429545 0.0103609)
(-3.90998e-06 -0.00273107 0.00897611)
(0.000642434 -0.000137426 0.00972629)
(0.000980169 -0.000619688 0.00831351)
(0 0 0)
(0 0 0)
(0 0 0)
(0 0 0)
(0 0 0)
(0 0 0)
(0 0 0)
(0 0 0)
(0 0 0)
(0 0 0)
(0 0 0)
(0 0 0)
(0 0 0)
(0 0 0)
(0 0 0)
(0 0 0)
(0 0 0)
(0 0 0)
(0 0 0)
(0 0 0)
(0 0 0)
(0 0 0)
(0 0 0)
(0 0 0)
(0 0 0)
(0 0 0)
(0 0 0)
(0 0 0)
(0 0 0)
(0 0 0)
(0 0 0)
(0 0 0)
(0 0 0)
(0 0 0)
(0 0 0)
(0 0 0)
(0 0 0)
(0 0 0)
(0 0 0)
(0 0 0)
(0 0 0)
(0 0 0)
(0 0 0)
(0 0 0)
(0 0 0)
(0 0 0)
(0 0 0)
(0 0 0)
(0 0 0)
(0 0 0)
(0 0 0)
(0 0 0)
(0 0 0)
(0 0 0)
(0 0 0)
(0 0 0)
(0 0 0)
(0 0 0)
(0 0 0)
(0 0 0)
(0 0 0)
(0 0 0)
(0 0 0)
(0 0 0)
(0 0 0)
(0 0 0)
(0 0 0)
(0 0 0)
(0 0 0)
(0 0 0)
(0 0 0)
(0 0 0)
(0 0 0)
(0 0 0)
(0 0 0)
(0 0 0)
(0 0 0)
(0 0 0)
(0 0 0)
(0 0 0)
(0 0 0)
(0 0 0)
(0 0 0)
(0 0 0)
(0 0 0)
(0 0 0)
(0 0 0)
(0 0 0)
(0 0 0)
(0 0 0)
(0 0 0)
(0 0 0)
(0 0 0)
(0 0 0)
(0 0 0)
(0 0 0)
(0 0 0)
(0 0 0)
(0 0 0)
(0 0 0)
(0 0 0)
(0 0 0)
(0 0 0)
(0 0 0)
(0 0 0)
(0 0 0)
(0 0 0)
(0 0 0)
(0 0 0)
(0 0 0)
(0 0 0)
(0 0 0)
(0 0 0)
(0 0 0)
(0 0 0)
(0 0 0)
(0 0 0)
(0 0 0)
(0 0 0)
(0 0 0)
(0 0 0)
(0 0 0)
(0 0 0)
(0 0 0)
(0 0 0)
(0 0 0)
(0 0 0)
(0 0 0)
(0 0 0)
(0 0 0)
(0 0 0)
(0 0 0)
(0 0 0)
(0 0 0)
(0 0 0)
(0 0 0)
(0 0 0)
(0 0 0)
(0 0 0)
(0 0 0)
(0 0 0)
(0 0 0)
(0 0 0)
(0 0 0)
(0 0 0)
(0 0 0)
(0 0 0)
(0 0 0)
(0 0 0)
(0 0 0)
(0 0 0)
(0 0 0)
(0 0 0)
(0 0 0)
(0 0 0)
(0 0 0)
(0 0 0)
(0 0 0)
(0 0 0)
(0 0 0)
(0 0 0)
(0 0 0)
(0 0 0)
(0 0 0)
(0 0 0)
(0 0 0)
(0 0 0)
(0 0 0)
(0 0 0)
(0 0 0)
(0 0 0)
(0 0 0)
(0 0 0)
(0 0 0)
(0 0 0)
(0 0 0)
(0 0 0)
(0 0 0)
(0 0 0)
(0 0 0)
(0 0 0)
(0 0 0)
(0 0 0)
(0 0 0)
(0 0 0)
(0 0 0)
(0 0 0)
(0 0 0)
(0 0 0)
(0 0 0)
(0 0 0)
(0 0 0)
(0 0 0)
(0 0 0)
(0 0 0)
(0 0 0)
(0 0 0)
(0 0 0)
(0 0 0)
(0 0 0)
(0 0 0)
(0 0 0)
(0 0 0)
(0 0 0)
(0 0 0)
(0 0 0)
(0 0 0)
(0 0 0)
(0 0 0)
(0 0 0)
(0 0 0)
(0 0 0)
(0 0 0)
(0 0 0)
(0 0 0)
(0 0 0)
(0 0 0)
(0 0 0)
(0 0 0)
(0 0 0)
(0 0 0)
(0 0 0)
(0 0 0)
(0 0 0)
(0 0 0)
(0 0 0)
(0 0 0)
(0 0 0)
(0 0 0)
(0 0 0)
(0 0 0)
(0 0 0)
(0 0 0)
(0 0 0)
(0 0 0)
(0 0 0)
(0 0 0)
(0 0 0)
(0 0 0)
(0 0 0)
(0 0 0)
(0 0 0)
(0 0 0)
(0 0 0)
(0 0 0)
(0 0 0)
(0 0 0)
(0 0 0)
(0 0 0)
(0 0 0)
(0 0 0)
(0 0 0)
(0 0 0)
(0 0 0)
(0 0 0)
(0 0 0)
(0 0 0)
(0 0 0)
(0 0 0)
(0 0 0)
(0 0 0)
(0 0 0)
(0 0 0)
(0 0 0)
(0 0 0)
(0 0 0)
(0 0 0)
(0 0 0)
(0 0 0)
(0 0 0)
(0 0 0)
(0 0 0)
(5.27019e-05 0.00077569 -0.000229914)
(-0.000191187 -0.000224091 -6.43101e-05)
(-0.000228774 -0.000476832 7.6847e-06)
(0.000196944 -2.4083e-05 -8.23074e-05)
(0.000385032 -0.000284122 0.00041759)
(0.000237713 -4.41567e-05 0.00014779)
(0.000268043 0.000112987 0.00111849)
(1.66228e-05 -4.30837e-05 0.000355569)
(-0.000600783 -0.000731142 5.7872e-05)
(-0.00020506 9.95409e-05 0.00039331)
(8.87463e-05 6.85078e-05 0.00046654)
(-5.15727e-05 -6.55512e-05 0.000121522)
(0.000370227 -0.000323688 -0.000221451)
(-0.000245469 -0.000583903 0.000197751)
(-5.71194e-05 -0.000463481 -8.63034e-05)
(7.85424e-05 0.000140948 0.000605781)
(0.000957703 -0.000296991 0.0111674)
(0.000201848 -0.000637171 0.0101029)
(-0.000216365 0.000113524 0.00705192)
(-0.000697435 -0.00104408 0.0108149)
(0.00130523 0.00079164 0.0101006)
(0.00118474 0.000387787 0.00916318)
(-0.000183793 0.00025417 0.00874762)
(-0.00115511 -0.00138486 0.00867784)
(0.00112655 0.000611401 0.0105583)
(0.000576686 0.00105504 0.0101561)
(-2.35979e-05 0.000861412 0.00921282)
(-0.000407364 8.86948e-05 0.00873565)
(0.000491881 0.000559197 0.00995516)
(-0.000178079 0.00092625 0.0105094)
(-0.000859 0.00179666 0.00905898)
(-4.90676e-05 0.00290372 0.00941549)
(-0.000318083 0.00157666 0.00986317)
(-0.000237217 0.00158307 0.00924843)
(-1.66445e-05 0.000959524 0.00879968)
(0.000996408 0.00246423 0.0100192)
(0.00048224 0.00197726 0.010714)
(0.00126975 0.000575132 0.010335)
(7.61562e-05 0.000469905 0.0107205)
(0.000456062 0.00133036 0.00836867)
(0.000649339 0.000866666 0.0114622)
(0.000353605 0.000582331 0.0102728)
(0.000170297 -0.000205879 0.00927381)
(0.000204489 -2.5864e-05 0.00870106)
(-0.000609461 0.000941436 0.0117341)
(6.19423e-05 0.00132152 0.0116373)
(-0.000103176 -0.000332985 0.0105248)
(-0.000297382 0.000587755 0.00771386)
(-0.000270674 0.00127448 0.00900669)
(-0.000156535 0.00108803 0.00978356)
(0.000753069 0.00197708 0.00998965)
(0.000364154 0.000971528 0.00855643)
(-9.34294e-05 0.00143915 0.0090495)
(0.00107131 0.000763417 0.00964957)
(0.000485717 0.000588872 0.0128276)
(0.000394191 0.00106267 0.00918806)
(0.000779821 0.000471526 0.0117595)
(0.00127082 0.00100497 0.0115922)
(0.000188001 0.0016462 0.01058)
(0.000234705 0.000953493 0.00945211)
(0.000241227 0.00194668 0.0114948)
(-0.00127635 0.00140154 0.0103883)
(-0.000954584 0.000751193 0.00981935)
(-0.000643118 0.000815576 0.00775884)
(-0.000444766 0.00134235 0.0092308)
(-0.000484842 0.00151959 0.007709)
(0.000634704 0.00203936 0.009293)
(0.00177643 0.00272303 0.00861155)
(-0.000809293 0.000873233 0.0100886)
(-0.00127069 0.000889182 0.00942143)
(-0.000523606 0.000357022 0.0103622)
(0.000294181 0.000540029 0.00878735)
(-0.000987205 0.000581415 0.0120768)
(-0.00127414 0.00046599 0.0116003)
(-0.000987047 0.00172234 0.0101662)
(-0.000533416 0.00108285 0.00843981)
(-0.000151944 0.000716921 0.0115574)
(-0.000961746 0.000917633 0.0107065)
(-0.000690993 0.000911616 0.00984851)
(-0.000292836 0.00100655 0.00769912)
(-0.000772647 0.000280859 0.00918903)
(-0.000601237 0.000577228 0.00750546)
(-0.000741677 0.000601714 0.00644388)
(0.000667631 0.00109571 0.00670646)
(-0.000317527 0.000936568 0.0106262)
(-0.00144984 0.000769833 0.00995248)
(-0.00161309 0.000920461 0.00799416)
(-0.000941917 -0.000711633 0.00694962)
(-0.000753397 0.00147987 0.0112958)
(-0.00178013 0.00171141 0.0101036)
(-0.0012638 0.00158313 0.00875901)
(-5.19986e-05 -2.2697e-05 0.00695095)
(-0.000430246 0.000143945 0.0116133)
(-0.000813819 0.000368686 0.0099011)
(0.000243532 0.000925821 0.00896068)
(0.000236912 0.00100989 0.00710664)
(-0.00151694 0.000113983 0.00767371)
(-0.00115216 -0.00238336 0.00731129)
(0.000400808 -0.00093806 0.00594259)
(0.000203403 0.000274989 0.00520952)
(-0.000806956 0.000862826 0.0102725)
(-0.000809595 0.000863073 0.00976058)
(-0.00191496 0.000918029 0.00699012)
(-0.000598829 0.00019135 0.00550854)
(-0.000548534 0.000645422 0.0113896)
(0.000545048 0.00129161 0.0101427)
(0.000835434 0.00122315 0.00828959)
(-0.000299754 0.000597267 0.00577578)
(0.00045068 -3.31817e-05 0.0118718)
(0.00198168 -0.00132732 0.00939933)
(0.000663785 0.000589099 0.00861312)
(0.000261136 0.000826304 0.00626915)
(0 0 0)
(0 0 0)
(0 0 0)
(0 0 0)
(0 0 0)
(0 0 0)
(0 0 0)
(0 0 0)
(0 0 0)
(0 0 0)
(0 0 0)
(0.000994876 0.00204768 0.00497546)
(0 0 0)
(0 0 0)
(0 0 0)
(0 0 0)
(0 0 0)
(0 0 0)
(0 0 0)
(0 0 0)
(0 0 0)
(0 0 0)
(0 0 0)
(0 0 0)
(0 0 0)
(0 0 0)
(0 0 0)
(0 0 0)
(0 0 0)
(0 0 0)
(0 0 0)
(0 0 0)
(0 0 0)
(0 0 0)
(0 0 0)
(0 0 0)
(0 0 0)
(0 0 0)
(0 0 0)
(0 0 0)
(0 0 0)
(0 0 0)
(0 0 0)
(0 0 0)
(0 0 0)
(0 0 0)
(0 0 0)
(0 0 0)
(0 0 0)
(0 0 0)
(0 0 0)
(0 0 0)
(0 0 0)
(0 0 0)
(0 0 0)
(0 0 0)
(0 0 0)
(0 0 0)
(0 0 0)
(0 0 0)
(0 0 0)
(0 0 0)
(0 0 0)
(0 0 0)
(0 0 0)
(0 0 0)
(0 0 0)
(0 0 0)
(0 0 0)
(0 0 0)
(0 0 0)
(0 0 0)
(0 0 0)
(0 0 0)
(0 0 0)
(0 0 0)
(0 0 0)
(0 0 0)
(0 0 0)
(0 0 0)
(0 0 0)
(0 0 0)
(0 0 0)
(0 0 0)
(0 0 0)
(0 0 0)
(0 0 0)
(0 0 0)
(0 0 0)
(0 0 0)
(0 0 0)
(0 0 0)
(0 0 0)
(0 0 0)
(0 0 0)
(0 0 0)
(0 0 0)
(0 0 0)
(0 0 0)
(0 0 0)
(0 0 0)
(0 0 0)
(0 0 0)
(0 0 0)
(0 0 0)
(0 0 0)
(0 0 0)
(0 0 0)
(0 0 0)
(0 0 0)
(0 0 0)
(0 0 0)
(0 0 0)
(0 0 0)
(0 0 0)
(0 0 0)
(0 0 0)
(0 0 0)
(0 0 0)
(0 0 0)
(0 0 0)
(0 0 0)
(0 0 0)
(0 0 0)
(0 0 0)
(0 0 0)
(0 0 0)
(0 0 0)
(0 0 0)
(0 0 0)
(0 0 0)
(0 0 0)
(0 0 0)
(0 0 0)
(0 0 0)
(0 0 0)
(0 0 0)
(0 0 0)
(0 0 0)
(0 0 0)
(0 0 0)
(0 0 0)
(0 0 0)
(0 0 0)
(0 0 0)
(0 0 0)
(0 0 0)
(0 0 0)
(0 0 0)
(0 0 0)
(0 0 0)
(0 0 0)
(0 0 0)
(0 0 0)
(0 0 0)
(0 0 0)
(0 0 0)
(0 0 0)
(0 0 0)
(0 0 0)
(0 0 0)
(0 0 0)
(0 0 0)
(0 0 0)
(0 0 0)
(0 0 0)
(0 0 0)
(0 0 0)
(0 0 0)
(0 0 0)
(0 0 0)
(0 0 0)
(0 0 0)
(0 0 0)
(0 0 0)
(0 0 0)
(0 0 0)
(0 0 0)
(0 0 0)
(0 0 0)
(0 0 0)
(0 0 0)
(0 0 0)
(0 0 0)
(0 0 0)
(0 0 0)
(0 0 0)
(0 0 0)
(0 0 0)
(0 0 0)
(0 0 0)
(0 0 0)
(0 0 0)
(0 0 0)
(0 0 0)
(0 0 0)
(0 0 0)
(0 0 0)
(0 0 0)
(0 0 0)
(0 0 0)
(0 0 0)
(0 0 0)
(0 0 0)
(0 0 0)
(0 0 0)
(0 0 0)
(0 0 0)
(0 0 0)
(0 0 0)
(0 0 0)
(0 0 0)
(0 0 0)
(0 0 0)
(0 0 0)
(0 0 0)
(0 0 0)
(0 0 0)
(0 0 0)
(0 0 0)
(0 0 0)
(0 0 0)
(0 0 0)
(0 0 0)
(0 0 0)
(0 0 0)
(0 0 0)
(0 0 0)
(0 0 0)
(0 0 0)
(0 0 0)
(0 0 0)
(0 0 0)
(0 0 0)
(0 0 0)
(0 0 0)
(0 0 0)
(0 0 0)
(0 0 0)
(0 0 0)
(0 0 0)
(0 0 0)
(0 0 0)
(0 0 0)
(0 0 0)
(0 0 0)
(0 0 0)
(0 0 0)
(0 0 0)
(0 0 0)
(0 0 0)
(0 0 0)
(0 0 0)
(0 0 0)
(0 0 0)
(0 0 0)
(0 0 0)
(0 0 0)
(0 0 0)
(0 0 0)
(0 0 0)
(0 0 0)
(0 0 0)
(0 0 0)
(0 0 0)
(0 0 0)
(0 0 0)
(0 0 0)
(0 0 0)
(0 0 0)
(0 0 0)
(0 0 0)
)
;

boundaryField
{
    inlet
    {
        type            zeroGradient;
    }
    outlet
    {
        type            zeroGradient;
    }
    wall
    {
        type            zeroGradient;
    }
    procBoundary1to0
    {
        type            processor;
        value           nonuniform List<vector> 
192
(
(-0.000489309 -0.000174119 -6.95417e-05)
(-0.000122692 0.000102213 0.000210313)
(-9.286e-06 4.61301e-05 0.00021518)
(-0.000255039 0.000450828 -5.31742e-05)
(-0.00177407 -0.000555059 0.0103392)
(0.000767436 0.000990778 0.0105233)
(0.000669891 -0.000137783 0.00973874)
(0.000623931 -0.000505279 0.00984105)
(0.000993958 0.000555522 0.00998826)
(0.000932344 0.000807241 0.0104905)
(0.00100934 0.000201626 0.0107779)
(0.000434511 0.000503772 0.0104876)
(0.00152216 0.000189029 0.0108717)
(0.000830112 0.000370002 0.0104)
(0.000718669 9.66311e-05 0.0108424)
(0.000378711 8.9544e-07 0.0112783)
(0.000422986 0.000467076 0.0106241)
(0.000285077 0.000237256 0.0107458)
(0.000217275 0.000173286 0.0108969)
(4.31021e-05 8.49936e-05 0.0111327)
(0.000524903 7.02877e-06 0.0108914)
(6.17666e-05 0.000210757 0.0109502)
(2.51743e-05 0.000280723 0.0109739)
(2.85984e-05 0.000194429 0.0110063)
(0.000794419 -0.000253292 0.0104262)
(0.000326673 0.00013634 0.0106633)
(3.23702e-05 6.37741e-05 0.0109439)
(-0.000100731 -4.01107e-05 0.0110775)
(0 0 0)
(0 0 0)
(0 0 0)
(0 0 0)
(0 0 0)
(0 0 0)
(0 0 0)
(0 0 0)
(0 0 0)
(0 0 0)
(0 0 0)
(0 0 0)
(0 0 0)
(0 0 0)
(0 0 0)
(0 0 0)
(0 0 0)
(0 0 0)
(0 0 0)
(0 0 0)
(0 0 0)
(0 0 0)
(0 0 0)
(0 0 0)
(0 0 0)
(0 0 0)
(0 0 0)
(0 0 0)
(0 0 0)
(0 0 0)
(0 0 0)
(0 0 0)
(0 0 0)
(0 0 0)
(0 0 0)
(0 0 0)
(0 0 0)
(0 0 0)
(0 0 0)
(0 0 0)
(0 0 0)
(0 0 0)
(0 0 0)
(0 0 0)
(0 0 0)
(0 0 0)
(0 0 0)
(0 0 0)
(0 0 0)
(0 0 0)
(0 0 0)
(0 0 0)
(0 0 0)
(0 0 0)
(0 0 0)
(0 0 0)
(0 0 0)
(0 0 0)
(0 0 0)
(0 0 0)
(0 0 0)
(0 0 0)
(0 0 0)
(0 0 0)
(0 0 0)
(0 0 0)
(0 0 0)
(0 0 0)
(-2.74917e-05 -6.63568e-05 0.000154241)
(0.000347492 0.000106343 0.000362344)
(-0.000278318 -0.000326879 -0.000309549)
(-3.49089e-05 -0.000291988 1.96992e-06)
(0.00116905 -0.000201057 0.0100403)
(0.00222072 0.00171029 0.00928036)
(0.00128395 0.000471829 0.00900766)
(0.000220079 0.000352949 0.00939099)
(0.00238985 0.000431687 0.0107265)
(0.000966288 0.00120623 0.0100046)
(0.000656947 0.000965992 0.0100744)
(0.000170997 0.00027667 0.0101279)
(-0.000623755 0.000724755 0.00957985)
(-0.000735828 0.00125392 0.00955677)
(0.000433633 0.000926121 0.0100425)
(0.000489242 0.000778846 0.0100924)
(-0.000383522 0.000788282 0.00682516)
(0.000285584 0.000382331 0.00821683)
(0.000733126 -8.15929e-05 0.0097839)
(0.000450394 0.00033969 0.0103233)
(-0.000258207 -0.000420671 0.00632167)
(0.000665358 0.000103251 0.00831499)
(0.00105942 -7.25753e-05 0.00937246)
(0.000384278 0.000504894 0.0102239)
(-1.31209e-05 -0.000668087 0.00661045)
(0.00108572 -0.000612983 0.0083751)
(0.000282315 -0.000599125 0.00893562)
(0.000690151 -0.000699797 0.0101071)
(0 0 0)
(0 0 0)
(0 0 0)
(0 0 0)
(0 0 0)
(0 0 0)
(0 0 0)
(0 0 0)
(0 0 0)
(0 0 0)
(0 0 0)
(0 0 0)
(0 0 0)
(0 0 0)
(0 0 0)
(0 0 0)
(0 0 0)
(0 0 0)
(0 0 0)
(0 0 0)
(0 0 0)
(0 0 0)
(0 0 0)
(0 0 0)
(0 0 0)
(0 0 0)
(0 0 0)
(0 0 0)
(0 0 0)
(0 0 0)
(0 0 0)
(0 0 0)
(0 0 0)
(0 0 0)
(0 0 0)
(0 0 0)
(0 0 0)
(0 0 0)
(0 0 0)
(0 0 0)
(0 0 0)
(0 0 0)
(0 0 0)
(0 0 0)
(0 0 0)
(0 0 0)
(0 0 0)
(0 0 0)
(0 0 0)
(0 0 0)
(0 0 0)
(0 0 0)
(0 0 0)
(0 0 0)
(0 0 0)
(0 0 0)
(0 0 0)
(0 0 0)
(0 0 0)
(0 0 0)
(0 0 0)
(0 0 0)
(0 0 0)
(0 0 0)
(0 0 0)
(0 0 0)
(0 0 0)
(0 0 0)
)
;
    }
    procBoundary1to3
    {
        type            processor;
        value           nonuniform List<vector> 
192
(
(0.00042298 0.000722958 -7.32314e-07)
(0.000278245 7.56276e-06 -0.000102801)
(-0.000913562 0.00119615 0.000104749)
(-0.000507622 -5.95273e-06 -0.000180417)
(0.00087862 0.000333108 0.010086)
(0.00119568 -0.000365215 0.0104673)
(0.0028753 -0.000596871 0.00930302)
(0.000648265 -0.000431757 0.00967603)
(0.00023629 0.000114549 0.0108703)
(4.47876e-05 -0.000427683 0.0113634)
(0.00128984 -0.000132955 0.0114545)
(0.000230603 4.5389e-05 0.0115973)
(3.5708e-05 0.000194143 0.0111468)
(8.22837e-05 0.000521953 0.0113521)
(-1.09124e-05 0.000682662 0.0115193)
(-0.000297457 0.000542209 0.0116091)
(-0.000154522 0.000284677 0.0112814)
(-0.000169828 0.000300981 0.0114207)
(-0.000169181 0.000371352 0.0117074)
(-0.00031131 0.000400057 0.0119161)
(-9.85024e-05 0.000184585 0.0113024)
(-0.000182766 -0.000101975 0.0114108)
(-0.000342193 0.000240644 0.0116922)
(-0.000250257 0.000326996 0.0117471)
(-0.0001126 -8.69025e-05 0.0112844)
(-0.000264303 -0.000203713 0.0112781)
(-0.000538233 0.000146148 0.0116276)
(-0.000410179 0.000755735 0.0112198)
(0 0 0)
(0 0 0)
(0 0 0)
(0 0 0)
(0 0 0)
(0 0 0)
(0 0 0)
(0 0 0)
(0 0 0)
(0 0 0)
(0 0 0)
(0 0 0)
(0 0 0)
(0 0 0)
(0 0 0)
(0 0 0)
(0 0 0)
(0 0 0)
(0 0 0)
(0 0 0)
(0 0 0)
(0 0 0)
(0 0 0)
(0 0 0)
(0 0 0)
(0 0 0)
(0 0 0)
(0 0 0)
(0 0 0)
(0 0 0)
(0 0 0)
(0 0 0)
(0 0 0)
(0 0 0)
(0 0 0)
(0 0 0)
(0 0 0)
(0 0 0)
(0 0 0)
(0 0 0)
(0 0 0)
(0 0 0)
(0 0 0)
(0 0 0)
(0 0 0)
(0 0 0)
(0 0 0)
(0 0 0)
(0 0 0)
(0 0 0)
(0 0 0)
(0 0 0)
(0 0 0)
(0 0 0)
(0 0 0)
(0 0 0)
(0 0 0)
(0 0 0)
(0 0 0)
(0 0 0)
(0 0 0)
(0 0 0)
(0 0 0)
(0 0 0)
(0 0 0)
(0 0 0)
(0 0 0)
(0 0 0)
(6.69463e-05 -6.41237e-05 4.24677e-05)
(0.00025438 -0.000631614 -0.000151738)
(-6.13425e-05 -0.000167444 0.000300928)
(-0.000131398 -0.000114014 -4.82884e-05)
(-0.000198539 0.000634577 0.00985511)
(-7.32649e-07 0.000915488 0.00917679)
(0.00105236 0.0031263 0.00966992)
(0.000323395 0.00286084 0.00783291)
(-7.39891e-06 0.00108884 0.00994304)
(0.000160542 0.00113688 0.00987487)
(-0.000402449 0.00110152 0.00986608)
(-0.000822744 0.0012971 0.00727272)
(-0.000885071 0.00028427 0.0108188)
(-0.000939908 0.000648498 0.0102811)
(-0.00182128 -0.00016964 0.0106291)
(-0.000164744 -0.000388567 0.00728676)
(-0.000498697 8.9193e-05 0.0111681)
(-0.000878034 0.000404272 0.011576)
(-0.000262292 1.34855e-05 0.00968391)
(0.000262855 -1.78925e-05 0.00871087)
(-0.000426606 7.27248e-05 0.0120775)
(-0.000961003 0.00113192 0.0107123)
(-0.00146352 0.00115632 0.0101179)
(-0.000503852 0.00114307 0.00831154)
(-0.000506319 -0.000137111 0.0117469)
(0.000393425 0.000306634 0.0102494)
(-0.000651635 0.00127943 0.0101178)
(-0.000592205 0.00231474 0.00836553)
(0 0 0)
(0 0 0)
(0 0 0)
(0 0 0)
(0 0 0)
(0 0 0)
(0 0 0)
(0 0 0)
(0 0 0)
(0 0 0)
(0 0 0)
(0 0 0)
(0 0 0)
(0 0 0)
(0 0 0)
(0 0 0)
(0 0 0)
(0 0 0)
(0 0 0)
(0 0 0)
(0 0 0)
(0 0 0)
(0 0 0)
(0 0 0)
(0 0 0)
(0 0 0)
(0 0 0)
(0 0 0)
(0 0 0)
(0 0 0)
(0 0 0)
(0 0 0)
(0 0 0)
(0 0 0)
(0 0 0)
(0 0 0)
(0 0 0)
(0 0 0)
(0 0 0)
(0 0 0)
(0 0 0)
(0 0 0)
(0 0 0)
(0 0 0)
(0 0 0)
(0 0 0)
(0 0 0)
(0 0 0)
(0 0 0)
(0 0 0)
(0 0 0)
(0 0 0)
(0 0 0)
(0 0 0)
(0 0 0)
(0 0 0)
(0 0 0)
(0 0 0)
(0 0 0)
(0 0 0)
(0 0 0)
(0 0 0)
(0 0 0)
(0 0 0)
(0 0 0)
(0 0 0)
(0 0 0)
(0 0 0)
)
;
    }
}


// ************************************************************************* //
