/*--------------------------------*- C++ -*----------------------------------*\
| =========                 |                                                 |
| \\      /  F ield         | OpenFOAM: The Open Source CFD Toolbox           |
|  \\    /   O peration     | Version:  2506                                  |
|   \\  /    A nd           | Website:  www.openfoam.com                      |
|    \\/     M anipulation  |                                                 |
\*---------------------------------------------------------------------------*/
FoamFile
{
    version     2.0;
    format      ascii;
    arch        "LSB;label=32;scalar=64";
    class       volScalarField;
    location    "0.08";
    object      voidfraction;
}
// * * * * * * * * * * * * * * * * * * * * * * * * * * * * * * * * * * * * * //

dimensions      [0 0 0 0 0 0 0];

internalField   nonuniform List<scalar> 
1152
(
0.502297
0.53653
0.462797
0.44963
0.52863
0.439097
0.483863
0.43383
0.470697
0.486497
0.404863
0.491764
0.494397
0.420663
0.38643
0.38643
0.328496
0.478597
0.399596
0.420663
0.389063
0.43383
0.423296
0.407496
0.412763
0.378529
0.436463
0.42593
0.391696
0.362729
0.462797
0.470697
0.412763
0.43383
0.420663
0.40223
0.420663
0.439097
0.39433
0.391696
0.367996
0.412763
0.378529
0.412763
0.42593
0.344296
0.420663
0.383796
0.378529
0.378529
0.354829
0.40223
0.383796
0.44173
0.41803
0.423296
0.389063
0.391696
0.375896
0.381163
0.423296
0.44963
0.439097
0.362729
0.389063
0.373263
0.420663
0.412763
0.317962
0.367996
0.412763
0.407496
0.444363
0.40223
0.42593
0.396963
0.354829
0.46543
0.336396
0.47333
0.43383
0.396963
0.389063
0.40223
0.431196
0.362729
0.404863
0.40223
0.383796
0.47333
0.381163
0.381163
0.354829
0.404863
0.360096
0.46543
0.662931
0.612898
0.568131
0.676098
0.502297
0.523364
0.533897
0.620798
0.541797
0.557597
0.45753
0.568131
0.44173
0.560231
0.507564
0.657665
1
1
1
1
1
1
1
1
1
1
0.986833
1
1
0.9842
0.989467
1
1
1
1
1
1
1
1
1
1
1
1
1
1
1
1
1
1
1
1
1
1
1
1
1
1
1
1
1
1
1
1
1
1
1
1
1
1
1
1
1
1
1
1
1
1
1
1
1
1
1
1
1
1
1
1
1
1
1
1
1
1
1
1
1
1
1
1
1
1
1
1
1
1
1
1
1
1
1
1
1
1
1
1
1
1
1
1
1
1
1
1
1
1
1
1
1
1
1
1
1
1
1
1
1
1
1
1
1
1
1
1
1
1
1
1
1
1
1
1
1
1
1
1
1
1
1
1
1
1
1
1
1
1
1
1
1
1
1
1
1
1
1
1
1
1
1
1
1
1
1
1
1
1
1
1
1
1
1
1
1
1
1
1
1
1
1
1
1
1
1
1
1
1
1
1
1
1
1
1
1
1
1
1
1
1
1
1
1
1
1
1
1
1
1
1
1
1
1
1
1
1
1
1
1
1
1
1
1
1
1
1
1
1
1
1
1
1
1
1
1
1
1
1
1
1
1
1
1
1
1
1
1
1
1
1
1
1
1
1
1
1
1
1
1
1
1
1
1
1
1
1
1
1
1
1
1
0.45952
0.428286
0.502109
0.428065
0.380848
0.41645
0.464045
0.455446
0.471586
0.465808
0.454332
0.481374
0.511357
0.447793
0.457583
0.395419
0.463099
0.435909
0.486889
0.428065
0.418432
0.467194
0.41045
0.421411
0.436211
0.427821
0.465412
0.546656
0.413628
0.409896
0.390182
0.408562
0.432675
0.407323
0.428186
0.452346
0.45206
0.446051
0.369035
0.375
0.416313
0.453937
0.443252
0.401586
0.348476
0.355758
0.419068
0.3998
0.434465
0.424475
0.421663
0.490115
0.368979
0.384736
0.412886
0.387377
0.416313
0.449189
0.382315
0.408839
0.363511
0.426138
0.40302
0.430467
0.423727
0.405417
0.458625
0.417274
0.428323
0.369936
0.449429
0.396659
0.482641
0.449189
0.410014
0.332677
0.408616
0.40719
0.345248
0.377895
0.427306
0.464495
0.395573
0.430763
0.446126
0.369936
0.405578
0.421411
0.407469
0.354222
0.374005
0.376198
0.456228
0.426138
0.425487
0.421705
0.651015
0.647443
0.654303
0.535978
0.65185
0.672282
0.573673
0.582302
0.66836
0.757833
0.75071
0.590177
0.706814
0.57231
0.784959
0.688947
1
1
1
1
1
1
1
1
1
1
1
1
1
1
1
1
1
1
1
1
1
1
1
1
1
1
1
1
1
1
1
1
1
1
1
1
1
1
1
1
1
1
1
1
1
1
1
1
1
1
1
1
1
1
1
1
1
1
1
1
1
1
1
1
1
1
1
1
1
1
1
1
1
1
1
1
1
1
1
1
1
1
1
1
1
1
1
1
1
1
1
1
1
1
1
1
1
1
1
1
1
1
1
1
1
1
1
1
1
1
1
1
1
1
1
1
1
1
1
1
1
1
1
1
1
1
1
1
1
1
1
1
1
1
1
1
1
1
1
1
1
1
1
1
1
1
1
1
1
1
1
1
1
1
1
1
1
1
1
1
1
1
1
1
1
1
1
1
1
1
1
1
1
1
1
1
1
1
1
1
1
1
1
1
1
1
1
1
1
1
1
1
1
1
1
1
1
1
1
1
1
1
1
1
1
1
1
1
1
1
1
1
1
1
1
1
1
1
1
1
1
1
1
1
1
1
1
1
1
1
1
1
1
1
1
1
1
1
1
1
1
1
1
1
1
1
1
1
1
1
1
1
1
1
1
1
1
1
1
1
1
1
1
1
1
1
1
1
1
1
1
1
0.456753
0.423346
0.464728
0.425368
0.47684
0.434943
0.439684
0.489063
0.426138
0.465808
0.473537
0.504514
0.486298
0.389782
0.519316
0.51142
0.483039
0.492255
0.402847
0.53328
0.470421
0.379545
0.398269
0.467322
0.420724
0.41595
0.388964
0.393983
0.466251
0.493696
0.418432
0.477417
0.386657
0.394332
0.356436
0.414576
0.40302
0.407244
0.429939
0.408618
0.442379
0.434944
0.418565
0.409229
0.426158
0.434
0.424366
0.375406
0.386657
0.368945
0.35953
0.430763
0.40302
0.390625
0.44212
0.456451
0.40719
0.401705
0.405879
0.451155
0.411122
0.361039
0.463929
0.370037
0.426086
0.339931
0.412129
0.460439
0.393391
0.396164
0.432375
0.378179
0.353052
0.411202
0.41645
0.422569
0.436181
0.418524
0.444148
0.389723
0.421705
0.347184
0.415223
0.463137
0.531403
0.418323
0.461609
0.443405
0.426138
0.385086
0.403764
0.441626
0.353487
0.38536
0.355132
0.371826
0.631994
0.590177
0.55755
0.587236
0.650157
0.670383
0.590726
0.543418
0.775328
0.717472
0.720911
0.483552
0.604074
0.743531
0.643938
0.636697
1
1
1
1
1
1
1
1
1
1
1
0.98666
1
1
1
1
1
1
1
1
1
1
1
1
1
1
1
1
1
1
1
1
1
1
1
1
1
1
1
1
1
1
1
1
1
1
1
1
1
1
1
1
1
1
1
1
1
1
1
1
1
1
1
1
1
1
1
1
1
1
1
1
1
1
1
1
1
1
1
1
1
1
1
1
1
1
1
1
1
1
1
1
1
1
1
1
1
1
1
1
1
1
1
1
1
1
1
1
1
1
1
1
1
1
1
1
1
1
1
1
1
1
1
1
1
1
1
1
1
1
1
1
1
1
1
1
1
1
1
1
1
1
1
1
1
1
1
1
1
1
1
1
1
1
1
1
1
1
1
1
1
1
1
1
1
1
1
1
1
1
1
1
1
1
1
1
1
1
1
1
1
1
1
1
1
1
1
1
1
1
1
1
1
1
1
1
1
1
1
1
1
1
1
1
1
1
1
1
1
1
1
1
1
1
1
1
1
1
1
1
1
1
1
1
1
1
1
1
1
1
1
1
1
1
1
1
1
1
1
1
1
1
1
1
1
1
1
1
1
1
1
1
1
1
1
1
1
1
1
1
1
1
1
1
1
1
1
1
1
1
1
1
)
;

boundaryField
{
    inlet
    {
        type            fixedValue;
        value           uniform 1;
    }
    outlet
    {
        type            fixedValue;
        value           uniform 1;
    }
    wall
    {
        type            zeroGradient;
    }
    procBoundary1to0
    {
        type            processor;
        value           nonuniform List<scalar> 
192
(
0.43383
0.45753
0.439097
0.539164
0.44963
0.423296
0.389063
0.460163
0.383796
0.370629
0.462797
0.44963
0.483863
0.360096
0.404863
0.317962
0.399596
0.507564
0.373263
0.383796
0.407496
0.396963
0.444363
0.475963
0.649764
0.560231
0.547064
0.604998
1
1
1
1
1
1
1
1
1
1
1
1
1
1
1
1
1
1
1
1
1
1
1
1
1
1
1
1
1
1
1
1
1
1
1
1
1
1
1
1
1
1
1
1
1
1
1
1
1
1
1
1
1
1
1
1
1
1
1
1
1
1
1
1
1
1
1
1
0.429096
0.513382
0.420735
0.371029
0.463099
0.444148
0.440633
0.411122
0.398671
0.428323
0.376516
0.443699
0.393302
0.444148
0.422946
0.416134
0.416568
0.333373
0.31461
0.355993
0.418358
0.384804
0.378727
0.37604
0.672491
0.774494
0.736899
0.696791
1
1
1
1
1
1
1
1
1
1
1
1
1
1
1
1
1
1
1
1
1
1
1
1
1
1
1
1
1
1
1
1
1
1
1
1
1
1
1
1
1
1
1
1
1
1
1
1
1
1
1
1
1
1
1
1
1
1
1
1
1
1
1
1
1
1
1
1
)
;
    }
    procBoundary1to3
    {
        type            processor;
        value           nonuniform List<scalar> 
192
(
0.420663
0.470697
0.560231
0.41013
0.44963
0.491764
0.43383
0.367996
0.370629
0.354829
0.428563
0.475963
0.41803
0.38643
0.378529
0.454897
0.468063
0.270562
0.431196
0.370629
0.412763
0.46543
0.41803
0.360096
0.644498
0.573397
0.602364
0.768265
1
1
1
1
1
1
1
1
1
1
1
1
1
1
1
1
1
1
1
1
1
1
1
1
1
1
1
1
1
1
1
1
1
1
1
1
1
1
1
1
1
1
1
1
1
1
1
1
1
1
1
1
1
1
1
1
1
1
1
1
1
1
1
1
1
1
1
1
0.416134
0.471586
0.418432
0.411199
0.413628
0.411891
0.525251
0.411199
0.378546
0.376516
0.355132
0.443413
0.350982
0.403047
0.408541
0.436254
0.368523
0.414102
0.394694
0.414778
0.483792
0.442844
0.448104
0.46131
0.726861
0.747953
0.647894
0.693967
1
1
1
1
1
1
1
1
1
1
1
1
1
1
1
1
1
1
1
1
1
1
1
1
1
1
1
1
1
1
1
1
1
1
1
1
1
1
1
1
1
1
1
1
1
1
1
1
1
1
1
1
1
1
1
1
1
1
1
1
1
1
1
1
1
1
1
1
)
;
    }
}


// ************************************************************************* //
