/*--------------------------------*- C++ -*----------------------------------*\
| =========                 |                                                 |
| \\      /  F ield         | OpenFOAM: The Open Source CFD Toolbox           |
|  \\    /   O peration     | Version:  2506                                  |
|   \\  /    A nd           | Website:  www.openfoam.com                      |
|    \\/     M anipulation  |                                                 |
\*---------------------------------------------------------------------------*/
FoamFile
{
    version     2.0;
    format      ascii;
    arch        "LSB;label=32;scalar=64";
    class       volVectorField;
    location    "0.007";
    object      U;
}
// * * * * * * * * * * * * * * * * * * * * * * * * * * * * * * * * * * * * * //

dimensions      [0 1 -1 0 0 0 0];

internalField   nonuniform List<vector> 
512
(
(9.98084 0.00939566 0.010354)
(9.95034 0.00980741 0.0224445)
(9.81249 -0.051683 -0.0561042)
(9.8056 0.00152167 -0.00517096)
(9.86112 0.0325985 0.0370285)
(9.85709 0.0242407 0.0367809)
(9.80303 -0.027386 -0.0394699)
(9.77822 -0.0178138 -0.0464299)
(9.77204 0.0289459 0.0399831)
(9.89138 0.0144155 0.0028436)
(9.93454 -0.00622257 -0.0562307)
(9.89403 0.000468362 -0.0305948)
(9.84898 0.00570767 0.0412413)
(9.88287 0.0080564 0.0313582)
(9.90795 0.00111611 -0.0154368)
(9.86826 0.00955396 -0.00553041)
(9.85654 0.00902074 -0.00206383)
(9.83629 0.0094566 0.0265541)
(9.83003 0.00643281 0.0557537)
(9.93516 -0.0216188 0.0199771)
(9.96199 -0.0190767 -0.00496234)
(9.85569 -0.00525504 -0.0665147)
(9.80886 -0.00884403 -0.0535693)
(9.82761 -0.0036097 -0.0613631)
(9.81569 0.00348733 -0.114478)
(9.75363 0.0184562 -0.0173309)
(9.74854 0.0349487 0.0917572)
(9.81559 -0.00951376 0.0480289)
(9.79982 -0.0270654 0.0159482)
(9.82722 -0.0259169 0.00938972)
(9.81104 -0.0052192 0.0283416)
(9.93555 0.0112836 0.0151079)
(10.0912 0.0485156 0.0307391)
(10.0876 -0.00108899 -0.0100783)
(9.93302 -0.025648 -0.0315058)
(9.83524 -0.00928021 -0.0201942)
(9.89614 0.0283946 0.0145944)
(10.0098 0.0659573 0.0255155)
(9.94147 -0.0049712 -0.00038878)
(9.92762 -0.0345368 -0.0360269)
(9.98987 0.00233125 0.00303142)
(10.0074 -0.0126238 -0.00621274)
(9.96936 -0.0135811 -0.0262059)
(9.94791 0.00936135 -0.0269262)
(9.9606 -0.000901724 0.0352918)
(10.0089 -0.00782664 0.0196635)
(10.0438 0.00920349 -0.00875473)
(10.0099 0.00994609 0.00610489)
(9.98368 -0.00244328 0.00230142)
(9.97676 -0.00553337 -0.00522653)
(9.93132 0.0214543 0.02576)
(9.97574 0.0490765 0.0622604)
(10.0813 0.00249251 -0.0170388)
(10.0427 -0.0329726 -0.0652454)
(9.98876 -0.0491809 -0.0373086)
(9.99694 -0.0201016 -0.0450374)
(9.95441 0.024666 -0.0939446)
(9.9228 0.0499359 -0.0201736)
(9.96041 0.0283489 0.0583009)
(9.96326 0.00762102 0.0492469)
(9.87679 -0.0126023 0.0280194)
(9.88394 -0.00627806 0.0284931)
(9.92435 -0.039316 0.0146808)
(10.1104 0.0143103 0.0103362)
(10.0989 0.00967075 -0.00368645)
(10.1118 0.0421368 0.0169817)
(9.97107 0.010866 0.00281679)
(9.8974 0.00711097 -0.0132455)
(9.91792 0.0110336 0.0076819)
(9.98114 0.00915772 0.0374091)
(9.93415 -0.0324212 -0.00112189)
(9.94536 -0.0615617 -0.0463036)
(10.0015 -0.0138728 -0.00982599)
(10.03 0.00974313 -0.00297034)
(10.0108 0.024212 -0.0469941)
(9.96714 0.000110265 -0.0372086)
(9.96821 -0.000437723 0.0184437)
(9.99452 0.0101023 0.0287014)
(10.0044 0.0105435 -0.0086786)
(9.99417 -0.0105336 -0.000581205)
(9.98882 -0.032392 0.00639153)
(9.96511 -0.0225837 0.0185947)
(9.99102 0.04252 0.0432555)
(10.0679 0.0340649 -0.00655016)
(10.07 -0.00335405 -0.0311008)
(9.98958 -0.0497104 -0.0204865)
(9.92828 -0.0508487 0.00687665)
(9.97264 -0.0188521 -0.0111255)
(10.0169 -0.00573215 -0.0572652)
(9.9527 0.0099227 -0.016796)
(9.95424 0.0127272 0.0130974)
(9.94174 0.0629752 0.0189131)
(9.86547 0.0777067 0.0157136)
(9.87746 0.0607231 0.0105357)
(9.95639 -0.0534332 0.0132266)
(10.1183 -0.0423722 -0.00356141)
(10.0645 -0.0508804 0.0161226)
(10.0552 0.0279724 -0.0191641)
(9.96304 0.0571503 -0.00139925)
(9.93574 0.0898943 0.0288854)
(9.96639 0.059806 0.0523678)
(9.99272 -0.0172283 0.0486887)
(9.92301 -0.0720493 -0.0244871)
(9.95102 -0.0670185 -0.0314816)
(10.0106 -0.024474 -0.0136227)
(10.0831 0.0395829 -0.0322267)
(10.0526 0.0290951 -0.0327224)
(9.94573 -0.0390674 0.0279846)
(9.97111 -0.00172866 0.0391697)
(10.0203 0.0435979 -0.000811391)
(9.95026 0.0107791 -0.00521284)
(9.88905 -0.0298734 0.00603899)
(9.92933 -0.0718799 0.0278185)
(10.0228 0.00356981 -0.000983475)
(10.0409 0.0550927 -0.00848235)
(10.0378 0.044799 0.0106892)
(10.0171 -0.0590198 0.00634819)
(9.97288 -0.0687594 -0.00629315)
(9.91746 -0.0401076 0.00367055)
(10.0031 -0.0378607 -0.00604268)
(10.0119 -0.0529451 -0.0228377)
(9.92209 -0.0105416 -0.0056001)
(9.94746 -0.0181841 -0.000123736)
(9.98272 0.0824487 0.010551)
(9.92844 0.122659 0.0134792)
(9.93488 0.0994409 0.0108732)
(9.93835 -0.0329956 0.00951221)
(10.0674 -0.0734971 0.00525654)
(10.007 0.00398488 0.0107733)
(9.96799 0.0328322 0.00767312)
(9.91006 0.0457244 0.0125293)
(9.93042 0.0651763 0.0147195)
(10.1006 0.0743463 -0.00446767)
(9.98155 -0.0301531 -0.0137098)
(9.88906 -0.0824367 -0.0404136)
(9.94277 -0.0816928 -0.00233156)
(10.1152 0.0713501 -0.0102391)
(10.0904 0.0655402 -0.0405121)
(10.0356 0.00772158 -0.0442513)
(9.96539 -0.0429591 0.0207848)
(10.0152 -0.0221665 0.0190958)
(10.0752 0.00183642 -0.00903853)
(9.99041 -0.00627007 0.00420502)
(9.94303 -0.000783658 0.0118394)
(9.97986 0.0254808 0.0341691)
(10.0423 -0.00459792 -0.00892958)
(10.0415 0.00674736 -0.0155904)
(10.0028 -0.0218422 -0.0004474)
(9.98773 -0.0476154 -0.0188216)
(9.9581 -0.0412482 -0.0224443)
(9.91326 -0.0152861 0.0277497)
(9.98626 -0.0218026 0.00503639)
(9.96358 -0.0159225 -0.0218143)
(9.93974 0.0295092 -0.0113691)
(9.98482 0.0439577 0.00283758)
(10.069 0.00298873 0.00201603)
(9.99282 0.0464212 0.00460539)
(9.93405 0.0710243 0.0168475)
(9.91909 -0.02542 0.0133018)
(9.97844 -0.0707718 0.00772944)
(10.0973 0.0421184 -0.0103113)
(10.0916 0.0535179 -0.065855)
(9.94331 -0.0310116 -0.00173307)
(9.93479 -0.0242092 0.0290716)
(9.94458 -0.0407744 0.0356092)
(9.84533 -0.0737868 0.01472)
(9.82112 -0.0656031 -0.0236231)
(9.97561 -0.0147464 -0.00783651)
(10.1091 0.0331348 -0.0249325)
(10.0917 0.0106089 -0.045384)
(10.0416 -0.0176189 -0.0325801)
(9.97236 -0.0385818 0.0410709)
(10.0314 -0.0215914 0.0332001)
(10.0803 0.00925046 -0.0124025)
(10.0249 0.0216405 0.0116467)
(9.98906 0.0124501 0.00608087)
(9.98434 0.00450439 -0.00202796)
(9.97122 -0.0179478 0.0233871)
(9.95864 -0.0060206 0.0401557)
(9.96526 -0.0424842 9.17325e-05)
(10.0021 -0.0440425 -0.0487001)
(10.0013 -0.0307616 -0.0383269)
(9.94865 -0.00572938 0.00983403)
(9.98177 0.0102073 0.0277118)
(9.99367 0.00761874 -0.00701321)
(9.93979 0.0364781 -0.01823)
(9.91718 0.0195003 0.00306194)
(9.99346 -0.00813434 0.00999069)
(10.0547 0.0219496 -0.00481049)
(9.98472 0.0536743 0.00278295)
(9.88103 -0.023634 0.0378586)
(9.97838 -0.0644365 0.047016)
(9.96192 -0.0221688 -0.00346586)
(9.95735 0.0653683 0.00145867)
(9.836 0.0187359 0.0469687)
(9.82609 -0.0340678 0.0532235)
(9.93218 -0.0360019 -0.0243462)
(9.89818 0.00504466 -0.0396634)
(9.88631 0.0120248 -0.0449449)
(9.99173 -0.00203322 -0.0190395)
(10.1149 0.00516055 -0.0152398)
(10.1062 0.0115208 -0.0390005)
(10.0446 0.00385366 -0.0286868)
(9.97221 -0.00580709 0.0397958)
(10.0328 -0.00601174 0.0288264)
(10.0876 0.0180057 -0.0239412)
(10.0279 0.0190529 -0.0169648)
(9.9351 -0.0414538 0.0270596)
(9.97704 -0.0173677 0.0296756)
(10.0211 0.0219608 0.0263644)
(9.95125 -0.0012681 0.0282906)
(9.92684 -0.0668839 0.00645283)
(10.004 -0.039702 -0.034802)
(10.0081 -0.0235013 -0.0423319)
(10.0067 0.018393 0.00620548)
(10.0215 0.0499796 0.010644)
(9.99341 0.00572214 -0.0163336)
(9.91719 0.019005 -0.0196531)
(9.90718 0.0321617 -0.000821585)
(10.0546 -0.0153258 0.00862896)
(10.0982 0.00365806 0.00400849)
(10 0.0646082 0.00023709)
(9.92995 0.0596238 -0.00704419)
(9.93266 -0.0647922 -0.0054015)
(9.94661 0.0120969 -0.0238845)
(9.95273 0.040895 -0.0289526)
(9.72271 -0.00943103 0.0788769)
(9.67791 -0.0404374 0.0968077)
(9.81548 0.00173248 -0.0310941)
(9.80194 0.0272183 -0.0669521)
(9.79328 0.0204778 -0.0507288)
(9.81412 -0.00105776 -0.00669353)
(9.97668 -0.00395859 0.0112153)
(10.0069 0.00990482 -0.036135)
(9.91411 0.00646829 -0.028423)
(9.82714 0.00123876 0.0384383)
(9.89595 -0.00138083 0.033386)
(9.94066 0.00415875 -0.0204105)
(9.88848 0.00530467 -0.017247)
(9.80272 -0.00982797 0.0405362)
(9.85722 0.0063784 0.0254135)
(9.90831 0.0177804 0.00419397)
(9.80102 -0.00393806 0.0180319)
(9.71877 -0.0418932 0.0381326)
(9.84809 -0.0205563 -0.00655982)
(9.94019 -0.0172397 -0.0625059)
(9.96132 0.018186 -0.018947)
(9.93446 0.036917 0.011239)
(9.84039 0.022549 0.00184204)
(9.6624 0.00271245 -0.00339009)
(9.77687 0.0121678 0.00359381)
(9.92147 0.00505363 0.0149164)
(9.90108 -0.0701628 -0.00806694)
(9.81692 -0.0564484 -0.00235637)
(9.76523 0.00714286 -0.0123439)
(9.82618 -0.0122869 -0.00388301)
(10.0767 0.0324515 0.0258882)
(10.068 -0.0278406 0.00988483)
(9.93152 -0.0320251 -0.0274814)
(9.83283 -0.0043637 -0.0290953)
(9.88958 0.0131249 0.0392754)
(9.99668 0.0188417 0.0911443)
(9.92361 0.00528955 0.0371036)
(9.87291 -0.00245228 -0.0114731)
(9.96486 -0.00220413 -0.0108125)
(10.0121 -0.00448953 -0.0103909)
(9.99456 -0.00254131 -0.0491521)
(9.96416 0.00191376 -0.0320665)
(9.96278 0.00224294 0.0102449)
(9.98737 -0.00754469 0.00802917)
(9.98235 0.0110514 -0.0292726)
(9.97958 0.0298464 -0.0281149)
(9.97735 0.0163463 -0.00551127)
(9.97126 -0.0271043 0.00698287)
(9.97868 -0.0286238 0.0319145)
(9.98027 -0.0106373 0.0205154)
(9.9188 -0.00244314 -0.0340798)
(9.9774 -0.0174614 -0.0202164)
(10.0307 -0.00417075 0.0146598)
(9.97208 -0.00682683 -0.00960172)
(9.89923 0.0252924 -0.0592175)
(9.92346 0.0428799 -0.0255545)
(9.97549 0.0166137 0.0391599)
(9.96251 -0.00720157 -0.00269752)
(9.90496 -0.0176049 0.00166805)
(9.9347 -0.0103581 0.0310661)
(9.89028 -0.0195552 0.0613395)
(10.0516 0.00633919 0.0242508)
(10.2051 0.030624 0.0467979)
(10.2303 0.00542373 0.0497383)
(10.1043 -0.020178 -0.0484577)
(10.0399 -0.013053 -0.0733309)
(10.0622 0.00434114 0.00436174)
(10.1174 0.0207574 0.0585748)
(10.0376 -0.013287 0.0365672)
(10.0077 -0.0328359 0.00629081)
(10.0969 -0.0186677 -0.00901409)
(10.1228 -0.0110534 -0.00287621)
(10.1366 -0.0201481 -0.0385545)
(10.1224 -0.0206632 -0.0283325)
(10.1195 -0.00134565 0.00711051)
(10.139 -0.0138375 0.00342909)
(10.1472 0.010342 -0.0255652)
(10.1361 0.0252333 -0.0128102)
(10.0929 0.0178292 -0.00960774)
(10.0148 0.00955613 -0.00237821)
(10.0534 -0.00300947 0.0198987)
(10.0996 -0.00764559 0.0356882)
(10.082 0.0290014 -0.0085273)
(10.1247 0.0150003 -0.031225)
(10.1753 -0.0494356 0.0126534)
(10.1468 -0.0681535 0.00536454)
(10.0557 0.0795625 -0.0594039)
(10.0749 0.0878489 -0.0345699)
(10.1099 0.00468318 0.0275163)
(10.0846 -0.0146528 0.00701348)
(10.0084 -0.0117883 0.0325606)
(10.0298 -0.00120954 0.0647096)
(10.0563 -0.065095 0.0464116)
(10.2009 -0.00914706 0.00798378)
(10.2238 -0.0116537 -0.0013667)
(10.1946 0.0182176 0.0507238)
(10.0764 0.0505564 -0.00761181)
(10.0589 0.0697037 -0.0309832)
(10.0852 0.0612943 0.0275265)
(10.1348 0.0183081 0.0548513)
(10.0568 -0.0578536 0.0168601)
(10.0556 -0.0706281 -0.00886752)
(10.1357 -0.0423667 0.00236264)
(10.126 -0.0191077 0.0167731)
(10.1197 0.0139909 -0.0148834)
(10.1624 0.0144804 -0.0773473)
(10.1577 0.0246759 -0.0169744)
(10.148 0.0260443 0.0128003)
(10.1409 0.00594249 -0.0093155)
(10.083 -0.0155203 0.00192498)
(10.0327 -0.0282601 -0.0100905)
(10.0662 -0.00349122 -0.00351541)
(10.0777 0.0180726 -0.000635629)
(10.0591 0.0268003 -0.0208473)
(10.0756 0.0219273 -0.0413656)
(10.1249 0.0081028 -0.0545871)
(10.1266 -0.0489341 0.0130743)
(10.1514 -0.0328023 -0.00243121)
(10.1126 0.0338477 -0.0788037)
(10.095 0.00528449 -0.0421494)
(10.096 -0.0351929 0.0399443)
(10.064 0.031625 0.0539845)
(9.99718 0.075444 0.0608807)
(10.0179 0.0557502 0.0574595)
(10.0821 -0.0583217 0.0290845)
(10.2299 -0.0467337 -0.0160519)
(10.169 -0.0160932 0.0129976)
(10.1117 0.0211764 0.00161842)
(10.061 0.0554611 -0.00364148)
(10.0995 0.0730986 0.0306371)
(10.1934 0.0181782 0.0273788)
(10.1319 -0.0672859 0.00101522)
(9.98216 -0.0945914 -0.00826775)
(9.99431 -0.073278 -0.00396247)
(10.1302 0.0292779 0.0281174)
(10.212 0.049938 0.0359703)
(10.1872 0.0323133 -0.0266087)
(10.1546 0.011217 -0.0384858)
(10.1128 0.000451852 -0.00917847)
(10.0792 0.00332858 -0.00953264)
(10.0735 -0.00985583 0.0103671)
(10.0264 -0.0336474 0.0280327)
(10.0097 -0.0366721 -0.0125856)
(10.08 -0.0262296 -0.00139845)
(10.1373 -0.00234876 0.0243964)
(10.124 0.00968551 -0.0110053)
(10.1157 -0.0294352 -0.0363769)
(10.0889 -0.0581092 -0.0283585)
(10.0465 -0.0229364 0.0205937)
(10.109 -0.0184644 -0.0229306)
(10.0782 -0.0183131 -0.048325)
(10.0629 -0.0180109 0.000549087)
(10.1202 -0.0296689 0.0140692)
(10.1556 0.0772207 0.0168829)
(10.0842 0.11235 0.0340546)
(10.0721 0.101996 0.0567217)
(10.0765 -0.0443164 0.00382409)
(10.1645 -0.0691922 -0.0128584)
(10.159 0.00434869 -0.0132535)
(10.1044 0.0269608 -0.0333266)
(10.0482 0.0609974 0.00551645)
(10.0781 0.0927537 0.065025)
(10.1793 0.00740528 0.0542775)
(10.073 -0.10047 0.0333255)
(9.99663 -0.106068 0.0205442)
(10.0086 -0.0672955 0.0109431)
(10.1954 0.070881 -0.0324807)
(10.1799 0.0594499 -0.0482355)
(10.1306 -0.00970035 -0.021581)
(10.1464 -0.0292299 -0.0118003)
(10.1714 -0.0161976 -0.000948551)
(10.1382 -0.0071437 -0.0126249)
(10.1273 -0.00963571 0.00763612)
(10.0721 -0.0211576 0.0321998)
(10.0516 -0.0212493 0.0189943)
(10.1233 0.0324519 -0.00246224)
(10.1214 0.0244372 -0.00951886)
(10.1263 -0.0296053 0.0130516)
(10.0802 -0.0805676 -0.0103831)
(10.0515 -0.0372921 -0.0325508)
(10.0563 0.0203771 -0.00754832)
(10.1049 0.0159763 4.8704e-05)
(10.0711 0.00846398 -0.0107019)
(10.0698 0.0223589 -0.00508112)
(10.1479 0.0460488 0.00531214)
(10.187 0.000348996 -0.00779842)
(10.1073 0.0404576 -0.000570825)
(10.0521 0.0727264 0.0332195)
(10.0371 0.00942059 0.0521275)
(10.1147 -0.0386295 0.0362476)
(10.2625 0.0801383 -0.0162445)
(10.2216 0.110918 -0.0413966)
(10.0731 0.0249384 0.0212174)
(10.0536 0.00870026 0.0345016)
(10.0585 -0.04787 0.00698763)
(9.97731 -0.110245 0.0248418)
(9.97125 -0.0727978 0.0258954)
(9.98927 -0.041902 0.00811144)
(10.2048 0.0247073 -0.0539126)
(10.1975 0.0216088 -0.0468052)
(10.139 -0.0185573 0.00122337)
(10.1524 -0.0279182 -0.00370329)
(10.1981 -0.0138483 0.0173648)
(10.1704 -0.0091409 0.0100524)
(10.1325 -0.0150002 0.0087468)
(10.0748 -0.00532455 -0.000615964)
(10.0474 0.0144445 -0.0197552)
(10.1337 0.0225805 -0.00512613)
(10.1567 0.0250895 0.000350672)
(10.044 -0.0399142 -0.00054454)
(10.0341 -0.0605387 -0.0112891)
(10.0466 -0.0554472 -0.064676)
(10.1906 0.0361632 0.0102028)
(10.2152 0.0416984 0.0384341)
(10.1902 -0.0126283 0.0157481)
(10.057 0.0181704 -0.0146053)
(10.0219 0.019085 0.00305504)
(10.0832 -0.0035473 0.00418742)
(10.118 0.00954181 -0.0084716)
(10.0848 0.0359036 -0.0145722)
(10.0534 -0.0375895 -0.01088)
(10.1252 -0.0389568 0.000957297)
(10.1148 -0.0783832 -0.0403268)
(10.1367 0.0780848 -0.01005)
(9.96435 0.122044 0.07564)
(9.91001 0.0893926 0.0574008)
(9.97841 -0.101827 -0.00515616)
(10.0066 -0.104294 0.0179163)
(10.0437 -0.0521079 0.0377611)
(10.0913 -0.00464323 0.0117976)
(10.2307 0.0293601 -0.0506853)
(10.2044 0.0269795 -0.037902)
(10.1425 -0.0114891 0.00613377)
(10.1622 -0.0150696 0.0116535)
(10.1942 0.0020006 0.0123697)
(10.175 0.00316742 -0.000566053)
(10.0888 -0.0212486 -0.00598775)
(10.0809 -0.0201174 -0.00162206)
(10.142 0.027724 0.0105134)
(10.1496 0.0193237 0.0219139)
(10.1339 -0.0194006 0.00742049)
(9.98882 -0.0264897 0.0160926)
(9.98856 -0.0230885 -0.00125831)
(10.046 -0.0158518 -0.0572843)
(10.2147 0.0163576 0.0159312)
(10.2217 0.0299 0.023352)
(10.1482 -0.0053343 -0.00379897)
(10.0586 0.0348156 -0.0170691)
(10.019 0.0318393 -0.00510635)
(10.1349 -0.0116755 -0.000292416)
(10.2051 -0.0035618 -0.015051)
(10.1159 0.0331983 -0.0201296)
(10.0707 0.0244803 -0.0302736)
(10.0887 -0.121552 -0.0501362)
(10.027 -0.026794 -0.0221426)
(10.0114 0.0298616 -0.00951116)
(9.8605 0.0630685 0.072126)
(9.80965 0.0385851 0.0371958)
(9.86295 -0.0213511 -0.00871346)
(9.87108 -0.005203 0.0254675)
(9.86101 0.00678386 0.0393294)
(10.0632 0.0280452 0.0143809)
(10.1247 0.0189807 -0.0404272)
(10.0583 0.0148056 -0.0408773)
(9.97302 -0.0056716 0.00772257)
(9.99764 -0.00870055 0.0217853)
(10.0464 0.00369596 0.0120284)
(10.0426 0.0043651 0.00298867)
(9.94211 0.00284364 -0.0102428)
(9.93632 0.005109 -0.0122834)
(9.99323 0.00322925 -0.000999844)
(9.99761 0.00249476 0.00133525)
(9.97961 -0.0142685 -0.00159217)
(9.86906 -0.0104487 0.0376696)
(9.86775 -0.00661647 0.022431)
(9.9135 -0.00241232 -0.015563)
(10.1186 -0.00519827 -0.0187375)
(10.1361 0.0342622 0.00490867)
(10.0313 0.0379941 0.00593089)
(9.84806 0.0267101 -0.0109721)
(9.95005 0.0263025 -0.00146104)
(10.0709 -0.00110296 0.00776881)
(10.0197 -0.0664177 -0.00360116)
(9.90976 -0.0253882 0.00879802)
(9.89635 -0.0121398 -0.0352355)
(9.9517 -0.0473231 -0.0604057)
)
;

boundaryField
{
    wall
    {
        type            fixedValue;
        value           uniform (0 0 0);
    }
    outlet
    {
        type            cyclic;
    }
    inlet
    {
        type            cyclic;
    }
    procBoundary0to1
    {
        type            processor;
        value           nonuniform List<vector> 
256
(
(10.0142 0.0222528 0.0624411)
(9.99429 0.0183368 0.046494)
(9.89698 -0.0140887 -0.0571942)
(9.88307 -0.0246244 -0.0652234)
(9.96367 0.00269229 -0.00655353)
(10.0311 0.0386758 0.0139949)
(9.93874 0.0114301 -0.0150364)
(9.9468 -0.00419527 -0.00942791)
(9.99571 -0.00908833 0.0373376)
(9.89583 -0.00466794 -0.0163338)
(9.84565 -0.00343918 -0.0798888)
(10.0458 0.000738518 0.0191753)
(10.0731 0.00317292 0.0755353)
(9.99093 -0.00640727 0.0544565)
(9.94824 0.00622731 -0.0710938)
(9.99149 0.0199862 -0.0815976)
(10.0051 0.0133559 -0.0206015)
(10.0125 -0.00449305 0.00942033)
(10.023 -0.017513 -0.0172358)
(10.0256 -0.00426839 -0.0307536)
(9.92068 0.00919756 -0.0139454)
(9.91884 0.00162246 -0.0548907)
(9.97632 -0.008428 -0.0615352)
(9.91808 -0.0062957 -0.0282859)
(9.85754 0.00390039 0.0256633)
(9.92553 0.0151892 0.0376135)
(9.96339 0.0172342 0.0183232)
(9.89363 0.00049995 -0.0378117)
(9.88535 -0.013484 -0.0450638)
(9.98382 -0.0143983 0.0518172)
(9.94608 -0.0218486 0.0425979)
(9.99807 0.0026773 0.0151715)
(10.1519 0.0357444 0.0249185)
(10.094 0.0444562 0.0798103)
(10.0357 0.0140766 0.00727107)
(10.0416 -0.00129358 -0.00871443)
(10.1287 0.0103566 0.0128756)
(10.1816 0.0155644 -0.00233612)
(10.0907 -0.0240143 -0.041106)
(10.0979 -0.0357257 -0.0393773)
(10.1367 -0.0161024 0.0229065)
(10.0248 0.0103788 0.00643484)
(9.96327 0.0311274 -0.0343306)
(10.1651 -0.0231892 0.000696419)
(10.1809 -0.0292989 0.0605959)
(10.1325 0.000408364 0.0465592)
(10.1466 0.0435285 -0.0555386)
(10.1593 0.023093 -0.0908249)
(10.1585 -0.00748039 -0.0456278)
(10.0941 -0.00909505 0.0122355)
(10.0874 -0.00577641 0.00331902)
(10.1378 -0.0131283 -0.0117874)
(10.0917 -0.0176253 0.00987978)
(10.104 -0.0322911 -0.0243977)
(10.1475 -0.024848 -0.0711203)
(10.0858 -0.0144878 -0.0478629)
(10.0197 0.0218044 0.0429109)
(10.064 0.0212215 0.0339645)
(10.0909 0.0172913 -0.0129924)
(9.99238 0.0416307 -0.0268033)
(9.95737 0.0514696 -0.0116381)
(10.102 -0.0394086 0.0486162)
(10.0977 -0.0711931 0.0283195)
(10.1368 -0.021387 -0.02205)
(10.1621 -0.0259161 0.00115197)
(10.1018 -0.00515665 -0.00144171)
(10.0402 0.0766227 0.0333496)
(10.0771 0.112384 0.0666926)
(10.1488 0.0365741 0.0574081)
(10.2048 -0.0553312 0.0351749)
(10.0916 -0.0779842 -0.0274235)
(10.1047 -0.0687705 -0.0402876)
(10.136 -0.0254813 0.00965718)
(10.1203 0.0408717 0.0289803)
(10.0212 0.0720058 -0.0122415)
(9.98961 0.0350618 -0.00815668)
(10.1317 -0.035395 0.0226471)
(10.1901 -0.0229785 0.0328387)
(10.2 0.0357782 -0.0440222)
(10.1996 0.0324171 -0.0410802)
(10.1407 -0.000468961 -0.032409)
(10.1322 0.0091856 -0.0495141)
(10.1327 0.0312576 -0.0635813)
(10.1226 -0.0260929 -0.0221522)
(10.0889 -0.0310709 -0.0174714)
(10.1086 -0.0240356 -0.0489859)
(10.1446 -0.0662224 -0.033217)
(10.1092 -0.0836455 -0.0439182)
(10.052 0.0192152 -0.00224689)
(10.0752 0.0248049 0.0292326)
(10.1059 0.0121062 0.0133621)
(10.0769 0.0696025 -0.0104552)
(10.0442 0.0814216 0.0308866)
(10.0758 0.0213521 0.0881144)
(10.0349 -0.0920894 0.0356105)
(10.122 -0.0782215 -0.0286486)
(10.167 -0.0389513 0.0128998)
(10.1159 -0.0240239 0.0219916)
(10.0107 0.0659684 0.0404301)
(10.0724 0.110362 0.0426581)
(10.2097 0.0805196 0.0229723)
(10.1634 -0.020832 0.0181847)
(10.0139 -0.0690422 -0.0143818)
(10.0511 -0.057882 -0.0141204)
(10.1194 -0.0526285 0.0251024)
(10.0901 -0.0156668 0.0218573)
(10.0992 0.0697695 0.0160796)
(10.1273 0.0680755 0.0137485)
(10.1205 -0.0063928 -0.0302478)
(10.1375 -0.0359254 -0.0462368)
(10.2009 -0.00994459 -0.00341545)
(10.1854 -0.00323548 -0.00907488)
(10.1693 0.0281047 -0.0106233)
(10.1754 0.0183607 -0.00763718)
(10.1718 0.00017475 -0.00422313)
(10.0708 0.00289044 -0.0133849)
(10.0524 -0.00504275 -0.0193974)
(10.0697 -0.00660832 -0.0379164)
(10.1013 -0.0358128 -0.0159767)
(10.1115 -0.0329175 -0.0275058)
(10.0914 0.0221383 -0.0113057)
(10.1103 0.0154842 0.0291841)
(10.1427 -0.0164134 0.0347148)
(10.1279 0.0311205 -0.0125805)
(10.0522 0.0685218 0.00218618)
(10.0485 0.0354847 0.0470355)
(10.0399 -0.00269281 0.019046)
(10.1474 -0.0359996 -0.0229588)
(10.1903 0.0231148 0.0142321)
(10.1273 0.0471677 -0.00556099)
(10.1033 0.0355139 -0.014139)
(10.1138 0.0370153 0.0298307)
(10.137 0.0554673 0.0318995)
(10.082 -0.028824 0.00743208)
(10.0403 -0.0762244 0.017176)
(10.0536 -0.078397 0.0197292)
(10.0563 -0.0330766 0.00946659)
(10.0439 -0.0107781 -0.00397231)
(10.1904 0.0183839 -0.00355167)
(10.2198 0.0140833 0.0119124)
(10.1463 0.012943 -0.0106095)
(10.0607 0.0154778 -0.0403232)
(10.1494 -0.00790964 -0.0411958)
(10.2174 -0.0229073 -0.0151273)
(10.1923 0.000694993 0.0252311)
(10.1317 -0.00334099 -0.0137986)
(10.0728 -0.00793989 -0.0648048)
(10.1075 -0.00840449 -0.0359733)
(10.131 -0.0166691 -0.0240477)
(10.1147 -0.0130149 -0.00154379)
(10.103 -0.0137251 0.0170265)
(10.1191 0.0387369 -0.0061125)
(10.0913 0.0529708 -0.0192344)
(10.0933 0.0230981 0.0135101)
(10.1285 0.0230206 0.0306642)
(10.1567 -0.00854771 -0.00632258)
(10.1025 0.0127528 0.00454678)
(10.0669 0.0320132 0.0537675)
(10.0673 -0.0533708 0.0317361)
(10.1141 -0.0580515 0.01927)
(10.1195 -0.0570505 -0.0402272)
(10.1209 0.195324 0.049686)
(10.0584 0.196469 0.102923)
(10.034 0.0790594 0.0616881)
(10.0385 -0.0819507 -0.0797626)
(10.0694 -0.0967656 -0.0846228)
(10.0619 -0.0623369 0.02154)
(10.0454 -0.0537607 0.0879456)
(10.0632 -0.000187474 0.0592994)
(10.1572 0.0845842 -0.00311626)
(10.1989 -0.00240442 -0.0353432)
(10.1821 -0.0239556 -0.0213317)
(10.1678 0.00776248 -0.00808883)
(10.1655 0.0314978 -0.0234104)
(10.1431 0.00445921 -0.0561132)
(10.1344 0.00053727 -0.0392145)
(10.1409 -0.0317377 0.0230857)
(10.1461 -0.0302809 -0.00211029)
(10.1304 0.0210179 -0.0169629)
(10.1039 0.00405453 0.0233177)
(10.0584 -0.0461216 0.0394691)
(10.0397 -0.0261161 0.0394903)
(10.0929 0.0366035 0.0316911)
(10.1568 0.0380102 0.00111003)
(10.1363 -0.00835141 -0.0444408)
(10.1121 0.00591083 -0.0284574)
(10.0621 0.00641509 -0.00551563)
(10.1034 -0.00938898 -0.00394811)
(10.1025 0.0328101 0.000629312)
(10.0743 0.0307504 -0.0249906)
(10.0975 -0.0555247 -0.0435662)
(10.0941 -0.119371 -0.0354599)
(10.1118 -0.075366 -0.049436)
(10.0894 0.0668105 0.00975205)
(9.99213 0.0902484 0.0620682)
(9.99941 -0.0125592 -0.0150221)
(10.0566 -0.0325168 -0.0392376)
(10.0979 0.0133067 0.0188526)
(10.0383 0.00418078 0.109008)
(10.0041 -0.0195051 0.103908)
(10.1125 0.0194473 0.0504242)
(10.1977 0.0418564 -0.0431326)
(10.1752 -0.00208471 -0.0440892)
(10.165 -0.0105836 -0.0109552)
(10.1597 -0.000426571 0.0168177)
(10.1568 -0.00337371 0.0100852)
(10.1551 -0.0106145 -0.0493647)
(10.1528 -0.00783658 -0.040599)
(10.1466 -0.00520246 -0.021549)
(10.1306 -0.0102985 -0.0219345)
(10.1193 -0.0313475 -0.01084)
(10.0652 -0.0388044 0.0109697)
(10.0727 -0.0146512 0.0234308)
(10.0848 -0.00232188 0.0353731)
(10.1623 0.0253091 -0.0126475)
(10.1791 0.029081 -0.00422344)
(10.112 0.0106177 0.0149309)
(10.0572 0.0314707 0.0256216)
(10.0361 0.0169971 0.0278674)
(10.1536 -0.0352404 -0.00599567)
(10.2043 0.00634427 -0.0389269)
(10.1053 0.0517861 -0.0311268)
(10.0664 0.0270167 -0.0192129)
(10.0789 -0.116026 -0.047649)
(10.0154 0.00580132 -0.0093498)
(9.95658 0.0230747 -0.0357669)
(9.79006 -0.0069333 -0.0451137)
(9.79258 -0.015734 -0.02573)
(9.92475 0.0122518 0.0234244)
(9.97981 0.0478388 0.0905447)
(9.94032 0.0333869 0.10992)
(9.88583 0.00551842 0.0713737)
(10.0163 0.0221036 0.0150721)
(10.0436 0.0176793 -0.0464445)
(10.0154 0.00038751 -0.0338208)
(10.0191 -0.00640888 0.00522077)
(10.0298 -0.00118112 0.00206548)
(10.0292 -0.000810204 0.00134804)
(10.0047 -0.00650861 -0.0233985)
(10.0072 -0.00953266 -0.0360968)
(10.0078 -0.00974099 -0.0283587)
(9.99824 -0.00750391 -0.0173994)
(9.9737 -0.0264698 -0.0489401)
(9.95246 -0.0295416 -0.0204321)
(9.97801 0.0139837 0.0464553)
(9.98283 0.0149554 0.0773354)
(10.0167 -0.0101519 0.0093881)
(10.0592 0.0300781 -0.0287866)
(9.9952 0.0403943 -0.0018703)
(9.85411 0.0213671 0.014521)
(9.964 0.0213057 0.0262645)
(10.1074 -0.00669094 0.0242712)
(10.0291 -0.0809087 -0.0237594)
(9.88542 0.00413232 -0.0588188)
(9.88398 -0.00215981 -0.0411399)
(9.96139 -0.0453128 -0.0102379)
)
;
    }
}


// ************************************************************************* //
