/*--------------------------------*- C++ -*----------------------------------*\
| =========                 |                                                 |
| \\      /  F ield         | OpenFOAM: The Open Source CFD Toolbox           |
|  \\    /   O peration     | Version:  2506                                  |
|   \\  /    A nd           | Website:  www.openfoam.com                      |
|    \\/     M anipulation  |                                                 |
\*---------------------------------------------------------------------------*/
FoamFile
{
    version     2.0;
    format      ascii;
    arch        "LSB;label=32;scalar=64";
    class       volVectorField;
    location    "0.007";
    object      U_0;
}
// * * * * * * * * * * * * * * * * * * * * * * * * * * * * * * * * * * * * * //

dimensions      [0 1 -1 0 0 0 0];

internalField   nonuniform List<vector> 
512
(
(10.1322 0.00760918 0.0230697)
(9.99684 -0.0114886 0.00185865)
(9.8366 -0.0695998 -0.0790256)
(9.79618 0.0406602 0.0320253)
(9.86604 0.0566654 0.0635929)
(9.87904 0.0120356 0.0348716)
(9.81769 -0.0569363 -0.0608608)
(9.75274 -0.0051187 -0.00180562)
(9.78188 0.034632 0.0735568)
(9.99946 0.00471704 -0.0364639)
(9.99331 -0.00498823 -0.0876892)
(9.89187 0.00476765 0.000646709)
(9.87378 0.00655887 0.0583698)
(9.95683 0.0102767 0.00258976)
(9.96217 0.00614177 -0.0294003)
(9.89381 0.0222992 0.00962683)
(9.89311 0.01774 0.000889341)
(9.85089 0.0195382 0.0346092)
(9.87488 0.0108537 0.0650525)
(10.0388 -0.0292514 0.0180327)
(10.0182 -0.0288113 -0.0393135)
(9.89078 -0.0133874 -0.103459)
(9.85899 -0.019865 -0.0434929)
(9.90226 -0.0107881 -0.0636121)
(9.81715 0.00533308 -0.147699)
(9.68398 0.0329187 0.0393472)
(9.73333 0.0395309 0.096212)
(9.85836 -0.0120153 0.0378101)
(9.80559 -0.0240253 0.0204847)
(9.83969 -0.0209445 0.0220843)
(9.84267 -0.00673359 0.0464793)
(10.1254 0.000639474 0.0175147)
(10.2105 0.067972 0.0503624)
(10.1467 -0.0327008 -0.0371009)
(9.86209 -0.0502775 -0.0518057)
(9.80768 -0.00597066 -0.0265523)
(9.95656 0.0818839 0.0359397)
(10.0339 0.078103 0.0396484)
(9.89281 -0.0648442 0.00751411)
(9.91273 -0.0548109 -0.0195668)
(10.0049 0.0136285 0.0447503)
(10.0298 -0.0305304 -0.0278219)
(9.97616 -0.0285133 -0.0624489)
(9.95993 0.00979071 -0.0234491)
(9.99169 0.00826717 0.0510282)
(10.0821 0.0163777 -0.00564053)
(10.0873 0.0313054 -0.0267579)
(10.0145 0.0139422 0.0167879)
(10.0043 -0.00542736 0.00845524)
(9.96261 0.0205014 0.00359404)
(9.91947 0.038468 0.0257146)
(10.0562 0.0509858 0.0516438)
(10.148 -0.00761467 -0.0428098)
(10.075 -0.0498578 -0.091507)
(10.022 -0.0722116 -0.0295314)
(10.043 -0.0332494 -0.0501026)
(9.94027 0.0212856 -0.125521)
(9.88336 0.0524333 0.0258279)
(9.94229 0.0357205 0.0690777)
(9.92766 0.0269941 0.0473223)
(9.81466 0.0033676 0.0315999)
(9.87508 -0.00562365 0.031802)
(9.98432 -0.0383291 0.026612)
(10.2735 0.0276677 0.0341631)
(10.231 0.0627475 0.00825256)
(10.1526 0.0449734 0.0225216)
(9.90649 -0.0110003 -0.0136706)
(9.88366 -0.00619541 -0.0279754)
(9.9553 0.0105482 0.027304)
(9.98037 0.00691996 0.0502819)
(9.89761 -0.0562758 0.00432736)
(9.94238 -0.0733012 -0.0374957)
(10.0045 -0.00305383 0.0262387)
(10.0398 -0.017985 -0.0141355)
(10.0288 -0.00854658 -0.0565806)
(9.99882 -0.0272914 -0.0438986)
(10.0206 0.00967856 0.0262454)
(10.0378 0.0307692 0.00423176)
(10.0297 0.0304399 -0.0349241)
(10.0068 -0.0327642 0.00760307)
(10.0168 -0.063211 0.0109742)
(9.96534 -0.0156413 0.0282501)
(10.0174 0.0744085 0.0492291)
(10.1432 0.0547036 -0.0205165)
(10.1126 0.00105465 -0.0545764)
(9.95099 -0.0562264 -0.0278069)
(9.92971 -0.0734502 0.00225823)
(10.0494 -0.0386662 -0.0370298)
(10.0587 -0.0353598 -0.064428)
(9.9124 -0.00359539 -0.000697353)
(9.94041 0.0129624 0.0206803)
(9.89768 0.112563 0.0238023)
(9.81622 0.105667 0.0237043)
(9.87487 0.045655 0.0171979)
(10.0276 -0.0406336 0.0253126)
(10.2535 0.00967786 0.0106223)
(10.1643 -0.00181435 0.0176839)
(10.1114 0.0680219 -0.0409892)
(9.92636 0.0739783 -0.00229422)
(9.93163 0.0935455 0.0382328)
(9.99154 0.015712 0.0680952)
(9.96837 -0.0372563 0.0577674)
(9.89231 -0.0775288 -0.00665979)
(9.93871 -0.0964951 -0.00285698)
(10.0123 -0.0215658 0.00990549)
(10.1043 0.0379164 -0.0375553)
(10.061 0.0131955 -0.0363451)
(9.96888 -0.0633559 0.0404264)
(10.0521 0.0242617 0.0171146)
(10.0807 0.0467424 -0.0238401)
(9.89635 -0.0150917 -0.0256731)
(9.87541 -0.0510844 0.0186379)
(9.9793 -0.110061 0.060804)
(10.1208 0.0363346 -0.00103151)
(10.0906 0.0877697 -0.0174628)
(10.0612 0.0322802 0.000109859)
(10.026 -0.081419 -0.0074838)
(9.93131 -0.0735194 -0.0148304)
(9.92063 -0.0536121 0.00151442)
(10.0963 -0.0630471 -0.0174832)
(10.0019 -0.0674318 -0.0283717)
(9.8923 -0.0215807 -0.00303719)
(9.97532 -0.0236261 -0.000693275)
(10.0308 0.133686 0.0138593)
(9.89383 0.165666 0.0224317)
(9.91018 0.0778724 0.017544)
(9.95261 -0.00625602 0.0198146)
(10.1951 -0.0105491 0.0131491)
(10.0842 0.0653062 0.00639262)
(9.98207 0.0706423 -0.00806025)
(9.93439 0.065081 0.00404226)
(10.0194 0.0870456 0.00247161)
(10.1531 0.0808548 -0.00596726)
(9.84661 -0.113953 -0.0105548)
(9.81392 -0.111631 -0.0198143)
(9.9584 -0.100141 0.0418593)
(10.1636 0.0778525 -0.00766072)
(10.1276 0.0705204 -0.0684631)
(10.0151 -0.0162889 -0.0306262)
(9.97975 -0.0600371 0.0433492)
(10.1134 -0.016217 -0.00432294)
(10.1432 -0.00202387 -0.0320766)
(9.93016 -0.0271979 0.00152843)
(9.92402 -0.00119272 0.0255561)
(10.0265 0.0390876 0.0561557)
(10.1257 0.000463052 -0.0161503)
(10.098 0.029499 -0.0350344)
(9.994 -0.0534984 -0.00949118)
(9.99507 -0.0707633 -0.0332636)
(9.9176 -0.0519797 -0.0245042)
(9.91181 -0.0221485 0.0315641)
(10.0647 -0.044235 -0.0173755)
(9.96702 -0.0256423 -0.0296776)
(9.94926 0.0341227 0.00123071)
(10.0499 0.0469618 0.0138686)
(10.1302 -0.00115476 0.0058067)
(9.9445 0.102921 0.0165687)
(9.90829 0.106325 0.0244066)
(9.90498 -0.0240404 0.0188736)
(10.0764 -0.00872136 0.0144383)
(10.204 0.106108 -0.0207477)
(10.0957 0.0426943 -0.0894748)
(9.89814 -0.0423617 0.0127718)
(9.92862 -0.0170767 0.0346704)
(9.93058 -0.0878959 0.042371)
(9.74032 -0.134878 0.0159277)
(9.76043 -0.0886519 -0.0173792)
(10.0471 -0.00720987 0.0206707)
(10.1747 0.0252735 -0.0277703)
(10.1567 -0.00493738 -0.0760686)
(10.0127 -0.0373978 -0.0114484)
(9.97748 -0.0442691 0.0623103)
(10.1214 -0.0111253 0.00851689)
(10.1346 0.00356033 -0.0341241)
(10.0019 0.011226 0.024799)
(9.99513 0.00663351 0.014815)
(10.0116 0.0247242 -0.0015901)
(10.0099 -0.00240885 0.0236939)
(9.9844 0.0104399 0.0361025)
(9.9855 -0.0849592 -0.0295902)
(10.0245 -0.0713113 -0.0655882)
(9.98197 -0.0578874 -0.0586458)
(9.94094 -0.0147206 -0.0110231)
(10.0265 0.00711279 0.0266422)
(10.0352 0.00841057 0.0129318)
(9.94228 0.0523746 -0.0051241)
(9.95522 0.00520645 0.020526)
(10.0725 -0.0131435 0.0134114)
(10.1084 0.0321175 -0.00191004)
(9.91924 0.107217 0.0121505)
(9.84792 0.00922372 0.0521287)
(10.1221 0.00675614 0.0417169)
(10.0374 0.0372415 -0.00452267)
(9.97042 0.110126 0.00423826)
(9.78126 0.00341939 0.0713581)
(9.84254 -0.0797696 0.0453964)
(9.9334 -0.0723396 -0.0161572)
(9.83657 -0.00576021 -0.0303039)
(9.84852 0.0040352 -0.0345336)
(10.0544 0.00858962 0.0025481)
(10.1779 0.0194671 -0.0196759)
(10.171 0.00751378 -0.0656748)
(10.0112 -0.00750723 -0.00779003)
(9.97668 -0.00723199 0.0578759)
(10.12 -0.00186329 0.00604744)
(10.1534 0.0214249 -0.0402417)
(9.98632 -0.000857349 0.0020247)
(9.93102 -0.0579333 0.0385492)
(10.0564 0.0225814 0.0253065)
(10.0781 0.0449592 0.0211161)
(9.91048 -0.0214544 0.0141886)
(9.91591 -0.0844251 0.00583401)
(10.0326 -0.05177 -0.0459183)
(10.0239 -0.0680226 -0.0641341)
(10.0396 0.0256665 0.00348053)
(10.0755 0.0466627 0.00262244)
(9.9832 0.00756532 -0.0202643)
(9.9193 0.0422741 -0.0144138)
(9.95405 0.0184145 0.0110309)
(10.1612 -0.0461539 0.0122532)
(10.1954 0.00931381 0.0031025)
(9.95742 0.12116 -0.00285893)
(9.89428 0.0605058 -0.00507655)
(9.93675 -0.0687373 -0.00121595)
(10.0382 0.0213305 -0.0377699)
(9.98636 0.0533022 -0.0321453)
(9.61836 -0.0180243 0.123715)
(9.64931 -0.0507501 0.121436)
(9.87575 0.0157861 -0.051861)
(9.78389 0.0347559 -0.0715529)
(9.77765 0.017863 -0.041785)
(9.86818 0.0038503 0.00140715)
(10.0715 0.0122893 -0.00680113)
(10.0819 0.0104118 -0.0465349)
(9.88353 0.000973869 -0.00487865)
(9.85024 0.00177521 0.0534469)
(9.99947 -0.000953457 0.0145178)
(10.0238 0.00624693 -0.0352718)
(9.87182 0.00127773 0.00718045)
(9.82582 -0.0148931 0.0587531)
(9.96882 0.0218786 0.00747139)
(10.0001 0.0268904 -0.010075)
(9.72201 -0.0187847 0.00961761)
(9.70271 -0.0446086 0.0394283)
(9.91724 -0.0187048 -0.0260644)
(9.9956 -0.0399331 -0.0613265)
(10.0257 0.0236335 -0.00813476)
(10.0184 0.034278 -0.0055873)
(9.78538 0.014052 -0.0106808)
(9.66201 0.0109154 -0.00351901)
(9.92404 0.0194428 0.00987447)
(9.98834 -0.0251684 0.00958032)
(9.97007 -0.0980422 -0.0154792)
(9.83483 -0.0366699 0.0104398)
(9.79471 0.0260063 -0.00829969)
(9.93049 -0.00285177 -0.00658545)
(10.1872 0.0358374 0.0552195)
(10.1149 -0.058764 -0.00318747)
(9.86205 -0.0389241 -0.0686588)
(9.79818 -0.00465494 -0.0395444)
(9.96258 0.0251207 0.104922)
(10.0466 0.0239186 0.10497)
(9.86955 -0.0036909 -0.000508911)
(9.84633 -0.00160568 -0.00404209)
(9.98569 -0.00325016 0.0183435)
(10.0014 -0.00593656 0.00653977)
(10.0089 -0.0052305 -0.084597)
(9.97878 -0.00477539 -0.0651261)
(9.99565 -0.00241552 0.0264686)
(10.0268 -0.00598387 0.0257204)
(10.0247 0.0207557 -0.0472395)
(10.0084 0.0379729 -0.0332036)
(9.98033 0.013216 -0.0130999)
(9.98234 -0.0190293 -0.00999526)
(10.019 -0.0227543 0.0349654)
(9.98554 -0.0131775 0.0121344)
(9.94667 -0.0125824 -0.041264)
(10.0913 -0.0274645 -0.00721417)
(10.1213 -0.0113892 0.0107243)
(9.90965 -0.00580271 -0.0572641)
(9.84017 0.033172 -0.0959761)
(9.92283 0.0513149 -0.0212191)
(9.99149 0.020513 0.0392185)
(9.96701 -0.00838966 -0.00441394)
(9.87275 -0.0182116 0.0242827)
(9.90729 -0.0132457 0.0648348)
(9.91192 -0.0253339 0.099058)
(10.2335 0.0153364 0.0597236)
(10.3114 0.0570479 0.10618)
(10.2451 -0.0247108 0.016423)
(10.0322 -0.0423026 -0.101853)
(10.01 -0.023265 -0.0961583)
(10.092 0.020758 0.0498603)
(10.1299 0.0264988 0.0741324)
(9.97147 -0.0361249 0.0413175)
(9.96397 -0.0360295 0.02901)
(10.0881 -0.0162681 0.0200684)
(10.088 -0.0109649 0.0110986)
(10.1437 -0.0234297 -0.0821704)
(10.1284 -0.0381566 -0.0671141)
(10.1368 0.00140154 0.015181)
(10.1624 -0.00452242 0.00416587)
(10.1732 0.0275843 -0.0441311)
(10.1611 0.030173 -0.0214402)
(10.0364 0.016154 -0.0258903)
(9.97187 0.0276551 -0.0121252)
(10.0804 -0.00169649 0.0280948)
(10.1092 -0.00510978 0.0247893)
(10.1063 0.051827 -0.0328087)
(10.2091 -0.0304549 -0.0268297)
(10.239 -0.0897561 0.0121341)
(10.0905 -0.0588066 -0.0310046)
(9.98637 0.107958 -0.0970194)
(10.065 0.0794288 -0.035208)
(10.1104 0.00333708 0.0306748)
(10.0235 -0.00208047 0.0185346)
(9.94617 0.00221889 0.0515679)
(10.0004 -0.00911318 0.0827629)
(10.0955 -0.0699111 0.075489)
(10.3322 0.0146664 0.0668729)
(10.3143 0.0206595 0.0339419)
(10.1811 0.0327647 0.053734)
(10.0261 0.0514584 -0.0381013)
(10.0461 0.0732582 -0.0524601)
(10.1159 0.0488008 0.0586201)
(10.1442 0.0174665 0.064707)
(10.0014 -0.0837122 0.0234675)
(10.0088 -0.0739893 0.0089929)
(10.1115 -0.0398629 0.0376973)
(10.0865 -0.0408489 0.0441382)
(10.1245 0.00363181 -0.0505745)
(10.1802 0.01157 -0.101033)
(10.1878 0.033461 -0.014479)
(10.1584 0.0236892 -0.0230631)
(10.1392 0.00796892 -0.0389533)
(10.0524 -0.0280597 -0.00239532)
(10.033 -0.035933 -0.0208897)
(10.0941 0.0126509 -0.0150214)
(10.0657 0.0383857 -0.0150904)
(10.0553 0.0415746 -0.0308426)
(10.1144 0.0357063 -0.0711155)
(10.1558 0.00253614 -0.0710199)
(10.1415 -0.0978275 0.0300126)
(10.1846 -0.0587052 -0.0226193)
(10.0948 0.0402923 -0.114484)
(10.0559 -0.0251716 -0.00987076)
(10.0751 -0.0423749 0.0441746)
(10.0084 0.0937049 0.0672022)
(9.94413 0.104032 0.0763185)
(10.0041 0.0356361 0.0614374)
(10.129 -0.0480726 0.0510015)
(10.3371 -0.0100343 0.0291124)
(10.2425 0.0271745 0.0341322)
(10.0937 0.0294895 -0.0265863)
(10.0581 0.0636472 -0.0227602)
(10.1665 0.0668793 0.0408789)
(10.2387 0.00549571 0.0265698)
(10.0227 -0.105708 0.00806569)
(9.91301 -0.0912893 0.0253533)
(9.97437 -0.0643574 0.0281137)
(10.0994 0.0187617 0.0641492)
(10.1682 0.0154033 0.0421091)
(10.2077 0.0220922 -0.0367827)
(10.1756 0.0122663 -0.0532527)
(10.1112 -0.00149532 -0.0111539)
(10.0795 -0.00245292 -0.0427874)
(10.0888 -0.0101989 -0.0117113)
(10.014 -0.0379129 0.0198796)
(10.0238 -0.0421477 -0.0211852)
(10.127 -0.0309929 0.0284115)
(10.1405 0.00947684 0.0157001)
(10.1367 0.0208522 -0.0299012)
(10.1337 -0.0431704 -0.0626951)
(10.0371 -0.0661889 -0.0299577)
(10.0285 -0.0339304 0.0170021)
(10.1772 -0.050245 -0.0588303)
(10.0559 -0.0371278 -0.0611739)
(10.0406 -0.0212898 0.0189353)
(10.1494 -0.0127412 0.0172311)
(10.1903 0.118484 0.0298479)
(10.0282 0.149956 0.0607395)
(10.0214 0.0764169 0.0631648)
(10.0572 -0.0254733 0.0164073)
(10.2478 -0.00894158 0.0174838)
(10.1966 0.0571504 -0.0149101)
(10.0922 0.0613084 -0.0495462)
(10.0569 0.0972772 0.0139817)
(10.1427 0.0752629 0.082538)
(10.2132 -0.0138843 0.0622694)
(9.95798 -0.182041 0.0278488)
(9.9007 -0.131667 0.0258559)
(9.98178 -0.064751 0.0243408)
(10.1995 0.0482168 -0.00459216)
(10.173 0.0370957 -0.0614368)
(10.1442 -0.0101211 -0.0536736)
(10.1765 -0.0273166 -0.0104091)
(10.1878 -0.0217133 0.0135859)
(10.1435 -0.00761375 -0.0368685)
(10.1451 -0.0116384 -0.00780628)
(10.0309 -0.0224296 0.0221899)
(10.0461 -0.0234903 0.026279)
(10.1662 0.0412426 0.0165361)
(10.1393 0.0261751 -0.0279275)
(10.1397 -0.0449054 -0.00474254)
(10.0335 -0.10808 -0.0421165)
(10.0093 -0.0615806 -0.0584427)
(10.0815 -0.00303441 -0.00397166)
(10.1481 -0.00302071 -0.00755608)
(10.0693 0.0130989 -0.0181975)
(10.0776 0.0473795 0.00807371)
(10.1891 0.0567128 0.0149979)
(10.2142 0.00273242 0.00384477)
(10.0421 0.0979981 0.029069)
(10.0121 0.0991179 0.0458038)
(10.0212 0.0175033 0.0715406)
(10.1863 0.0155437 0.0396128)
(10.3445 0.155144 -0.0214137)
(10.1376 0.110049 -0.0639858)
(10.0202 0.0261795 0.0268483)
(10.046 0.0214289 0.0367682)
(10.0551 -0.099065 -0.00894983)
(9.88447 -0.180433 0.0373215)
(9.87107 -0.0965852 0.0366072)
(9.98934 -0.0538243 0.0243601)
(10.2468 0.00906699 -0.0243967)
(10.2068 0.00681252 -0.053055)
(10.1524 -0.0312292 -0.0397551)
(10.1883 -0.0299377 -0.00658567)
(10.2202 -0.00815205 0.0319057)
(10.1622 -0.00765539 -0.00725595)
(10.1491 -0.0207828 -0.000931896)
(10.0321 -0.00802422 -0.00871205)
(10.0361 0.0270124 -0.0244374)
(10.2004 0.0435358 0.00180163)
(10.1919 0.0347204 -0.0135707)
(9.95873 -0.0687937 -0.00472526)
(9.97464 -0.0827039 -0.0372511)
(10.0409 -0.0795998 -0.087544)
(10.2945 0.036706 0.0323112)
(10.2965 0.0233489 0.0397877)
(10.1461 -0.0258223 0.000993648)
(10.0044 0.0280517 -0.0128178)
(10.0146 0.0124291 0.0103563)
(10.1312 -0.0195556 0.0114422)
(10.1414 0.0225067 0.000518428)
(10.0561 0.0931074 -0.0137807)
(10.0269 -0.0274326 0.000996289)
(10.2522 0.063402 0.0334031)
(10.166 0.0118483 -0.0375746)
(10.1224 0.136558 0.00851358)
(9.90956 0.15209 0.119087)
(9.89262 0.0234831 0.0509884)
(9.95381 -0.15713 -0.00448583)
(9.96047 -0.128441 0.0488048)
(9.98509 -0.0589452 0.0454607)
(10.0916 -0.00434764 0.0180165)
(10.2719 0.0352043 -0.0312908)
(10.2073 0.0273546 -0.0421948)
(10.1523 -0.0147951 -0.0225162)
(10.1971 -0.0112569 0.00676827)
(10.2177 0.00836448 0.0190661)
(10.151 0.000602257 -0.0132926)
(10.0784 -0.0234382 -0.0204046)
(10.1024 -0.0116585 -0.000472849)
(10.1779 0.0477088 0.0190608)
(10.1639 0.019369 0.0139765)
(10.1048 -0.0291358 -0.0103346)
(9.90644 -0.034094 0.0238919)
(9.95173 -0.0236135 -0.016248)
(10.087 -0.00431361 -0.0624713)
(10.289 0.0125942 0.0218494)
(10.2961 -0.0018029 0.0177344)
(10.0878 -0.0223537 -0.0216073)
(10.0185 0.045275 -0.0189151)
(10.0122 0.00828788 0.00219819)
(10.2379 -0.0540208 0.000268889)
(10.2913 -0.0111938 -0.0164721)
(10.0767 0.0893704 -0.02286)
(10.0251 0.00818804 -0.035644)
(10.0634 -0.128671 -0.0504013)
(10.0615 -0.00360534 -0.0284561)
(10.0369 0.0497828 -0.00113712)
(9.86233 0.076628 0.107792)
(9.79839 0.0178327 0.0224339)
(9.80945 -0.0313542 -0.00297351)
(9.80388 -0.004392 0.0496934)
(9.84246 0.0041486 0.0522133)
(10.1448 0.0249855 0.00803102)
(10.1712 0.0212832 -0.0382923)
(10.0453 0.0181657 -0.0427338)
(9.98531 -0.00531758 -0.00479952)
(10.0575 -0.00589244 0.0163117)
(10.0984 0.00727126 0.0155752)
(10.0448 0.00652988 -0.00182087)
(9.94652 0.00643074 -0.0232379)
(9.98373 0.00882455 -0.0107044)
(10.0403 0.00614852 0.00631538)
(10.0219 -0.00135092 -0.0165694)
(9.9792 -0.0209156 -0.0177556)
(9.81593 -0.0115741 0.0528395)
(9.84493 -0.00466095 0.0175933)
(9.98173 0.00133216 -0.0165868)
(10.2005 -0.000952487 -0.00875963)
(10.2327 0.0232485 0.00209738)
(9.96174 0.0242929 -0.0137494)
(9.82664 0.0325937 -0.023125)
(10.0617 0.020292 0.00550793)
(10.11 -0.0325123 0.00591163)
(10.0614 -0.0945958 -0.00636168)
(9.92216 -0.00252917 0.0321518)
(9.90425 -0.00262537 -0.0548817)
(9.98646 -0.0517764 -0.0723765)
)
;

boundaryField
{
    wall
    {
        type            fixedValue;
        value           uniform (0 0 0);
    }
    outlet
    {
        type            cyclic;
    }
    inlet
    {
        type            cyclic;
    }
    procBoundary0to1
    {
        type            processor;
        value           nonuniform List<vector> 
256
(
(10.2233 0.0311681 0.122561)
(10.1503 0.00861034 0.0100315)
(10.0202 -0.0231193 -0.0991047)
(10.0334 -0.0353761 -0.0876658)
(10.1787 0.0199353 0.0180186)
(10.2056 0.047272 0.0159132)
(10.0527 -0.000778329 -0.0263074)
(10.0817 -0.0125196 0.00916258)
(10.0873 -0.00662349 0.0505204)
(9.90705 -0.00175967 -0.0467159)
(9.99225 -0.00185574 -0.108916)
(10.3293 -0.000370534 0.0290386)
(10.2796 -0.00348322 0.0867156)
(10.0985 -0.0154724 0.0268475)
(10.0992 0.00950285 -0.0807393)
(10.1647 0.0270809 -0.095014)
(10.147 0.0143947 -0.0141361)
(10.1761 0.00965875 0.000232564)
(10.2152 -0.0152705 -0.0240261)
(10.1788 -0.0136581 -0.0250989)
(10.0672 -0.00623739 0.000875662)
(10.1357 -0.0141285 -0.0887749)
(10.197 -0.0190026 -0.0914388)
(9.98465 -0.00588457 -0.038605)
(9.94808 0.00864847 0.0138979)
(10.084 0.0236245 0.0455015)
(10.1045 0.0248088 0.0236689)
(9.9959 0.000689456 -0.0659544)
(10.0483 -0.0170863 -0.0367575)
(10.1912 -0.0151782 0.0941243)
(10.1683 -0.0214708 0.086933)
(10.2552 0.0161081 0.0744765)
(10.3439 0.0444394 0.0726741)
(10.2158 0.0382799 0.100476)
(10.1355 -0.00531444 -0.015476)
(10.1942 -0.0149964 -0.0257136)
(10.3192 0.0201802 0.00916809)
(10.3456 0.0232646 -0.0130806)
(10.1765 -0.0443531 -0.0628837)
(10.2033 -0.0387298 -0.0244463)
(10.2032 -0.0121133 0.0402566)
(10.0062 0.0200479 -0.00931911)
(10.0855 0.0433296 -0.050049)
(10.4217 -0.0295829 0.00716556)
(10.363 -0.0439703 0.0738655)
(10.2605 -0.0113347 0.018405)
(10.3038 0.0386622 -0.0825932)
(10.3101 0.0284539 -0.109065)
(10.2885 -0.00595794 -0.0514862)
(10.2116 0.0139926 -0.00880321)
(10.2377 0.00127238 -0.00935307)
(10.3316 -0.0313079 0.00460969)
(10.2481 -0.0315856 0.03952)
(10.3134 -0.0537922 -0.0650042)
(10.343 -0.0455876 -0.102959)
(10.1527 -0.0107899 -0.0434401)
(10.1086 0.0324415 0.0418639)
(10.1928 0.0254273 0.0211719)
(10.2146 0.0291003 -0.0110252)
(10.0368 0.0704102 -0.0339791)
(10.0853 0.0556143 -0.00116931)
(10.3192 -0.0594432 0.0824849)
(10.3127 -0.0668347 0.0698995)
(10.3685 0.0156799 0.0398738)
(10.3699 -0.0188154 0.0344071)
(10.208 0.0170898 0.0114658)
(10.1564 0.0850547 0.0461806)
(10.2572 0.117678 0.0851231)
(10.3497 -0.00661224 0.0523877)
(10.3474 -0.0610199 0.0263839)
(10.1658 -0.0810504 -0.0481516)
(10.1971 -0.076371 -0.0531675)
(10.2125 -0.0105199 0.0254474)
(10.1755 0.0531955 0.0113029)
(10.1038 0.0704665 -0.0277097)
(10.1681 0.0076917 0.00457012)
(10.3528 -0.0505822 0.0291095)
(10.3737 -0.0233616 0.00753269)
(10.3798 0.0443122 -0.070308)
(10.3336 0.025642 -0.0441772)
(10.2642 -0.00118236 -0.0467347)
(10.2381 0.028922 -0.0862565)
(10.252 0.050209 -0.08186)
(10.2499 -0.0272368 -0.00675933)
(10.2108 -0.00758543 -0.0187691)
(10.2938 -0.0505759 -0.0696576)
(10.3296 -0.105733 -0.0391775)
(10.2273 -0.110857 -0.0451477)
(10.1485 0.0476765 -0.00380493)
(10.2088 0.024711 0.018873)
(10.2522 0.0178891 0.00663935)
(10.1962 0.112961 -0.0108876)
(10.1324 0.107329 0.0662477)
(10.1719 -0.00803922 0.109665)
(10.19 -0.0924299 0.0638682)
(10.3786 -0.0443656 0.0170473)
(10.343 -0.0179279 0.0451369)
(10.1928 -0.00854507 0.0289058)
(10.1121 0.0947589 0.0541888)
(10.2971 0.131548 0.0394635)
(10.3829 0.0818967 0.0198876)
(10.2168 -0.0801101 0.00607667)
(10.0815 -0.0880829 -0.0257356)
(10.1578 -0.0815943 -0.0265878)
(10.1977 -0.0773159 0.012032)
(10.194 -0.0140396 0.0173424)
(10.2826 0.056748 0.0357009)
(10.3037 0.0502063 0.0104768)
(10.2591 -0.0164214 -0.0596485)
(10.3346 -0.0164094 -0.0588326)
(10.389 0.00436504 -0.0159682)
(10.3116 -0.00784329 -0.0272763)
(10.2907 0.0373738 -0.0210623)
(10.305 0.0207747 -0.0212611)
(10.2965 0.00872799 -0.014093)
(10.1731 0.0173114 -0.025543)
(10.1754 -0.00694527 -0.0471759)
(10.2334 -0.0122117 -0.0540653)
(10.2588 -0.0749973 0.000594017)
(10.259 -0.0723029 -0.0245593)
(10.2086 0.0368155 -0.0131852)
(10.2435 0.00555836 0.0433559)
(10.2734 -0.00760422 0.0403325)
(10.2656 0.0734999 -0.013924)
(10.126 0.106234 0.0299628)
(10.1332 0.0343842 0.0787129)
(10.194 0.00798163 0.0286599)
(10.3616 -0.000358345 0.0142233)
(10.3548 0.0791637 0.0309744)
(10.2315 0.0591548 -0.0144923)
(10.2541 0.0471744 -0.0125167)
(10.2872 0.0584888 0.0543207)
(10.2908 0.0641787 0.035855)
(10.1225 -0.122791 -0.0187948)
(10.0754 -0.125934 0.00793518)
(10.1421 -0.103339 0.00672326)
(10.1339 -0.0364046 0.00478772)
(10.1911 -0.0245851 -0.0066858)
(10.4259 -0.00520613 -0.00967573)
(10.4047 0.011652 0.00961236)
(10.209 0.0218528 -0.0320711)
(10.1989 0.0232032 -0.0568849)
(10.3714 -0.0101295 -0.0583256)
(10.3764 -0.0157178 -0.0233514)
(10.3529 0.00783479 0.0215086)
(10.2082 -0.00795829 -0.0502712)
(10.1792 -0.0046743 -0.0760491)
(10.2674 -0.0118732 -0.0293155)
(10.28 -0.0294334 -0.0306992)
(10.2208 -0.0258815 0.00943411)
(10.2386 -0.0267857 0.0309956)
(10.304 0.0429625 -0.00483977)
(10.2197 0.0507533 -0.0146844)
(10.2162 0.0114441 0.0358232)
(10.2962 0.0250829 0.040364)
(10.3323 -0.0179235 -0.00556223)
(10.1645 0.0598378 0.0403773)
(10.1683 0.0541602 0.0639813)
(10.2199 -0.0628781 0.0264947)
(10.333 0.02841 0.0451435)
(10.3067 0.0794997 -0.0148725)
(10.2814 0.282348 0.0569756)
(10.1596 0.20002 0.127294)
(10.1886 0.00117812 0.0139438)
(10.165 -0.147319 -0.109414)
(10.1713 -0.148258 -0.0924924)
(10.1129 -0.0813151 0.0776916)
(10.1406 -0.0621827 0.0983397)
(10.2409 0.0272286 0.0598001)
(10.3513 0.0588457 -0.00711254)
(10.3827 -0.0239638 -0.0479258)
(10.3542 -0.0293044 -0.0320776)
(10.3215 0.0160654 -0.0217287)
(10.3226 0.0287983 -0.0552228)
(10.296 -0.000616239 -0.085805)
(10.2823 -0.00244666 -0.0189785)
(10.29 -0.033598 0.0422344)
(10.2962 -0.0129449 -0.00530195)
(10.2791 0.0452297 -0.0159165)
(10.2009 -0.0130664 0.0410116)
(10.1557 -0.063669 0.0389042)
(10.1373 -0.0404297 0.06066)
(10.3069 0.0464945 0.029571)
(10.3572 0.0198092 -0.0141894)
(10.2963 -0.0282146 -0.080235)
(10.2086 0.0133837 -0.0215262)
(10.2043 -0.00385491 -0.0130682)
(10.3089 -0.032176 -0.00764877)
(10.2426 0.0594127 0.00568904)
(10.2007 0.0728582 -0.0228728)
(10.2163 -0.0721379 -0.0433273)
(10.2233 -0.0938938 -0.0135707)
(10.2844 -0.00374771 -0.04098)
(10.2722 0.126171 0.0243214)
(10.1482 0.118875 0.0770603)
(10.0988 -0.0599324 -0.0432528)
(10.1509 -0.061423 -0.0446304)
(10.204 -0.00263332 0.0459479)
(10.0848 -0.0146608 0.142224)
(10.1107 -0.0289054 0.122964)
(10.338 0.0296844 0.051559)
(10.389 0.0388095 -0.0469923)
(10.3426 -0.00485073 -0.0547187)
(10.3143 -0.00792912 -0.0144844)
(10.3004 0.000530253 0.00304199)
(10.3149 0.000917709 -0.0214484)
(10.3095 -0.00774759 -0.0698453)
(10.2784 -0.00771546 -0.0331583)
(10.2706 -0.0032578 -0.0199943)
(10.2682 -0.0140977 -0.0230123)
(10.2705 -0.0339921 -0.00379166)
(10.1385 -0.0362146 0.0256345)
(10.1593 -0.00682645 0.0354414)
(10.238 -0.00954348 0.0455857)
(10.3616 0.0234756 -0.00839457)
(10.3558 0.0199108 0.000537033)
(10.1905 0.00431695 0.0117292)
(10.1536 0.0392412 0.022389)
(10.1957 -0.0121723 0.0301043)
(10.4252 -0.0689241 -0.024667)
(10.4288 -0.000468654 -0.0465318)
(10.1932 0.108795 -0.0304191)
(10.1559 -0.00450201 -0.0258357)
(10.1781 -0.139813 -0.0599098)
(10.2063 0.0164571 -0.0206329)
(10.1201 0.0374506 -0.0636188)
(9.88718 -0.00836792 -0.0649765)
(9.9159 -0.0239719 -0.0172449)
(10.1163 0.0230396 0.056164)
(10.1313 0.045571 0.111945)
(9.98836 0.021372 0.136661)
(9.99011 0.00217871 0.102935)
(10.2378 0.0234708 0.0171114)
(10.2047 0.0182928 -0.0619484)
(10.1682 -0.00086401 -0.0467607)
(10.2162 -0.00559735 0.00018463)
(10.2277 0.00273202 -0.00528213)
(10.2062 0.00491394 0.00647097)
(10.1629 -0.00259961 -0.028867)
(10.1744 -0.0104915 -0.0483027)
(10.1745 -0.00960144 -0.0397699)
(10.1648 -0.00999837 -0.0410044)
(10.1489 -0.0311156 -0.0678557)
(10.0945 -0.0151897 0.009988)
(10.1158 0.0182639 0.055815)
(10.1475 0.0105163 0.0834254)
(10.2593 -0.00775595 0.000219179)
(10.2802 0.0331772 -0.00778456)
(10.0739 0.0280225 0.0118496)
(9.97775 0.019121 0.00845272)
(10.2143 0.0132343 0.0394506)
(10.2969 -0.0337821 0.0222678)
(10.2121 -0.103645 -0.0536038)
(10.0529 0.0417842 -0.0769096)
(9.99955 -0.00528044 -0.0308123)
(10.1171 -0.0551096 -0.00665458)
)
;
    }
}


// ************************************************************************* //
