FoamFile
{version 2.0; format ascii;class Cloud<passiveParticle>; location 0;object  positions;}
2506
(
( -0.00968507 0.0054801 0.000499539 ) 0 
( -0.00617418 0.0118367 0.00124921 ) 0 
( -0.00583726 0.00143266 0.00365323 ) 0 
( -0.00123794 0.00861357 0.0031184 ) 0 
( -0.0087207 0.00307027 0.00109959 ) 0 
( -0.000385264 0.00251045 0.00537805 ) 0 
( -0.00761857 0.00848842 0.00540836 ) 0 
( -0.00915254 0.00684315 0.00183415 ) 0 
( -0.00970028 0.00173915 0.00323881 ) 0 
( -0.00469973 0.00748112 0.00325651 ) 0 
( -0.00417792 0.00505995 0.00494394 ) 0 
( -0.00140331 0.00212415 0.0083079 ) 0 
( -0.00777979 0.00831701 0.0036739 ) 0 
( -0.000888653 0.00788416 0.000499572 ) 0 
( -0.00490359 0.0115027 0.000499719 ) 0 
( -0.000295812 0.00874946 0.000499764 ) 0 
( -0.00828934 0.00239673 0.000499662 ) 0 
( -0.00870247 0.00210616 0.00136352 ) 0 
( -0.00649927 0.00937634 0.000499692 ) 0 
( -0.000860227 0.00168734 0.00750951 ) 0 
( -0.00339193 0.004756 0.00769426 ) 0 
( -0.0129284 0.00327974 0.00174199 ) 0 
( -0.0048661 0.00116358 0.0037697 ) 0 
( -0.00755081 0.00545674 0.00141766 ) 0 
( -0.00140914 0.00500948 0.00522101 ) 0 
( -0.00754107 0.00886408 0.00448307 ) 0 
( -0.0010449 0.010077 0.00399462 ) 0 
( -0.000611449 0.00432956 0.00359141 ) 0 
( -0.0070762 0.0038714 0.000701141 ) 0 
( -0.00328817 0.00092556 0.00697409 ) 0 
( -0.0107449 0.00601094 0.00701418 ) 0 
( -0.00386343 0.00178286 0.00126376 ) 0 
( -0.012457 0.00384413 0.00601721 ) 0 
( -0.000198824 0.0106063 0.00494689 ) 0 
( -0.00226913 0.0106261 0.000499801 ) 0 
( -0.00847713 0.00304179 0.00370195 ) 0 
( -0.0017509 0.00344331 0.00332535 ) 0 
( -0.00831093 0.000502421 0.00443013 ) 0 
( -0.00836361 0.00245854 0.00472255 ) 0 
( -0.00453874 0.00749573 0.00740579 ) 0 
( -0.0071444 0.00289454 0.000499483 ) 0 
( -0.00572023 0.00628091 0.00306559 ) 0 
( -0.00342772 0.00183764 0.00275002 ) 0 
( -0.0119646 0.00359779 0.00475011 ) 0 
( -0.00447509 0.00924002 0.00301097 ) 0 
( -0.00500272 0.0062786 0.0020485 ) 0 
( -0.0118034 0.00169558 0.0028697 ) 0 
( -0.00266108 0.00304897 0.00049955 ) 0 
( -0.00221303 0.00855064 0.000499743 ) 0 
( -0.00282238 0.00636601 0.0028152 ) 0 
( -0.00767343 0.00975912 0.00392481 ) 0 
( -0.000117602 0.00839953 0.00305289 ) 0 
( -0.0115408 0.00671083 0.00177595 ) 0 
( -0.00511254 0.0105944 0.00423931 ) 0 
( -0.00986443 0.00899536 0.00366723 ) 0 
( -0.0107314 0.00184096 0.00433284 ) 0 
( -0.0130398 0.00281205 0.00403062 ) 0 
( -0.00993081 0.00644941 0.000499803 ) 0 
( -0.00306617 0.00281212 0.0076964 ) 0 
( -0.00209628 0.0123676 0.00685636 ) 0 
( -0.00546916 0.0100464 0.00693196 ) 0 
( -0.00459727 0.00219887 0.00752485 ) 0 
( -2.19214e-05 0.0133489 0.00591553 ) 0 
( -0.0034947 0.00617198 0.0079992 ) 0 
( -0.00970916 0.00264996 0.00729171 ) 0 
( -0.010714 5.10315e-05 0.00208583 ) 0 
( -0.00211017 0.00565163 0.00491085 ) 0 
( -0.00922558 0.00085433 0.00423145 ) 0 
( -0.00711038 0.00185036 0.00698844 ) 0 
( -0.00220288 0.00748488 0.00407221 ) 0 
( -0.00554311 0.000103944 0.00678539 ) 0 
( -0.00135025 0.0106239 0.00478358 ) 0 
( -0.00987993 0.00174386 0.00114863 ) 0 
( -0.00951223 0.00430684 0.00609842 ) 0 
( -0.00862957 0.00791665 0.00332137 ) 0 
( -0.00369201 0.00613265 0.00049985 ) 0 
( -5.81948e-05 0.0102272 0.00391762 ) 0 
( -0.010763 0.00164341 0.00329217 ) 0 
( -0.00916372 0.00885617 0.00163226 ) 0 
( -9.2252e-05 0.00233711 0.00100833 ) 0 
( -0.00232082 0.000824649 0.000499599 ) 0 
( -0.0083812 0.00792944 0.000499807 ) 0 
( -0.00851792 0.00443538 0.00614051 ) 0 
( -0.0103164 0.000788861 0.0046314 ) 0 
( -0.0077777 0.00790146 0.00461434 ) 0 
( -0.00629 0.0042427 0.00704253 ) 0 
( -0.00362078 0.00193236 0.00747965 ) 0 
( -0.00214068 0.012429 0.000499728 ) 0 
( -0.00983625 0.00552893 0.00435448 ) 0 
( -0.000699408 0.00493906 0.00813191 ) 0 
( -0.00897133 0.00873648 0.000499623 ) 0 
( -0.00637496 0.00018988 0.0038661 ) 0 
( -0.0021964 0.00085262 0.00351706 ) 0 
( -0.00137438 0.0063254 0.00137523 ) 0 
( -0.0078089 0.0107358 0.00355713 ) 0 
( -0.00226743 0.00592373 0.00396156 ) 0 
( -0.00365608 0.00323024 0.00171952 ) 0 
( -0.00980817 0.00752476 0.00215841 ) 0 
( -0.00994443 0.00761625 0.00613583 ) 0 
( -0.00389674 0.011636 0.00511454 ) 0 
( -0.00472579 0.00627862 0.000499707 ) 0 
( -0.00518612 0.00552439 0.00658139 ) 0 
( -0.00066128 0.00201299 0.00357475 ) 0 
( -0.00909894 0.00968166 0.00524401 ) 0 
( -0.00754168 0.00173171 0.00463722 ) 0 
( -0.00397369 6.00498e-05 0.00134823 ) 0 
( -0.00962932 0.00225633 0.00831486 ) 0 
( -0.00990781 0.00254492 0.00555611 ) 0 
( -0.000411004 0.00398197 0.00812338 ) 0 
( -0.00224284 0.00161654 0.0085009 ) 0 
( -0.00200396 0.00770452 0.00667071 ) 0 
( -0.00975151 0.00366137 0.00215555 ) 0 
( -0.00654695 0.00156497 0.00620757 ) 0 
( -0.00259405 0.00907552 0.00219641 ) 0 
( -0.00317773 0.00976841 0.00280391 ) 0 
( -0.00615832 0.00801826 0.00178563 ) 0 
( -0.012324 0.00478106 0.00569416 ) 0 
( -0.00626542 0.0054777 0.0033055 ) 0 
( -0.011805 0.00622785 0.00486192 ) 0 
( -0.00807157 0.00457453 0.00124982 ) 0 
( -0.00133222 0.00255571 0.00735862 ) 0 
( -0.00409133 0.00854751 0.00614946 ) 0 
( -0.00407827 0.00506935 0.00394779 ) 0 
( -0.0126683 0.00421155 0.00199457 ) 0 
( -0.0089499 0.000388749 0.00628319 ) 0 
( -0.00125598 0.00378496 0.00413042 ) 0 
( -0.000852598 0.00862331 0.00581914 ) 0 
( -0.00254032 0.00602639 0.0084086 ) 0 
( -0.00952614 0.00790485 0.000499551 ) 0 
( -0.00781423 0.0108233 0.00455317 ) 0 
( -0.00993721 0.00213311 0.00646674 ) 0 
( -0.00670727 0.0019543 0.0031007 ) 0 
( -0.00288627 0.00748145 0.00708438 ) 0 
( -0.00268487 0.0073867 0.00518373 ) 0 
( -0.00978464 0.00664175 0.00573414 ) 0 
( -0.0116535 0.00159683 0.000499807 ) 0 
( -0.00249294 0.0083018 0.00304388 ) 0 
( -0.0120305 0.00018875 0.00342749 ) 0 
( -0.0103708 0.0042882 0.00349461 ) 0 
( -0.0111624 0.000718702 0.00410291 ) 0 
( -0.00432685 0.0043013 0.00335772 ) 0 
( -0.0114573 0.00252884 0.00419667 ) 0 
( -0.00268846 0.00427742 0.0012553 ) 0 
( -0.00348547 0.000280269 0.00501221 ) 0 
( -0.00289966 0.0023849 0.00358858 ) 0 
( -0.00636154 0.00230951 0.000709337 ) 0 
( -0.00900936 0.00786216 0.00639074 ) 0 
( -0.00911171 0.000556337 0.00725618 ) 0 
( -0.00155388 0.00562323 0.00724051 ) 0 
( -0.00401077 0.00591086 0.00335276 ) 0 
( -0.00284876 0.0116857 0.00211065 ) 0 
( -0.0104274 0.00833699 0.000499674 ) 0 
( -0.00452992 0.00329107 0.00221548 ) 0 
( -0.0021463 0.00955218 0.00435061 ) 0 
( -0.000272501 0.00119925 0.00686447 ) 0 
( -0.0074153 0.00654927 0.00678403 ) 0 
( -0.00534605 0.000392081 0.00331802 ) 0 
( -0.00185187 0.0112915 0.00129008 ) 0 
( -0.00883735 0.00129538 0.00587664 ) 0 
( -0.00475987 0.00162509 0.00167733 ) 0 
( -0.00808978 0.00816846 0.00663906 ) 0 
( -0.000618175 0.0112798 0.00636591 ) 0 
( -0.00870381 0.00629318 0.00388746 ) 0 
( -0.011582 0.00159424 0.00386376 ) 0 
( -0.00362052 0.00422732 0.00161365 ) 0 
( -0.00951719 0.00123751 0.00661186 ) 0 
( -0.00299752 0.0101376 0.00402619 ) 0 
( -0.00341461 0.00882575 0.00306289 ) 0 
( -0.00463948 0.00536654 0.00223846 ) 0 
( -0.00493841 0.0115606 0.00193335 ) 0 
( -0.00568255 0.00094374 0.00731466 ) 0 
( -0.00595567 0.00143184 0.00540823 ) 0 
( -0.00381314 0.000541423 0.00773328 ) 0 
( -0.00949449 0.00544018 0.00202684 ) 0 
( -0.00293856 0.0072004 0.00200912 ) 0 
( -0.011396 0.00533184 0.0054661 ) 0 
( -0.0107274 0.00197386 0.000499657 ) 0 
( -0.0033431 0.00785853 0.00579985 ) 0 
( -0.0077332 0.00178385 0.00292238 ) 0 
( -0.00450998 0.012468 0.00670426 ) 0 
( -0.00308329 0.00692603 0.000499617 ) 0 
( -0.00259561 0.00429635 0.00275378 ) 0 
( -0.0109781 0.0040315 0.00430479 ) 0 
( -0.0128602 0.00048648 0.00624127 ) 0 
( -0.0128036 0.000353954 0.00427571 ) 0 
( -0.0108631 0.00744415 0.00578035 ) 0 
( -0.0106669 0.00509646 0.00223236 ) 0 
( -0.0056483 0.00549132 0.0021108 ) 0 
( -0.0030792 0.00999104 0.000499842 ) 0 
( -0.00536873 0.0031582 0.00405332 ) 0 
( -0.00536839 0.00750317 0.00681938 ) 0 
( -0.0131827 0.00210796 0.0014889 ) 0 
( -0.0114044 0.00335737 0.00219805 ) 0 
( -0.00166913 0.0117891 0.00413476 ) 0 
( -0.0074257 0.00540255 0.00743087 ) 0 
( -0.00835305 0.00696007 0.0032294 ) 0 
( -0.00191202 0.000129795 0.00414685 ) 0 
( -0.00114265 0.000768598 0.00416434 ) 0 
( -0.00924793 0.00256976 0.00206147 ) 0 
( -0.00124832 0.0112786 0.00338504 ) 0 
( -0.000642647 0.00974331 0.000499657 ) 0 
( -0.0069774 0.00628469 0.00111673 ) 0 
( -0.00661145 0.010852 0.00125964 ) 0 
( -1.22596e-05 0.0133497 0.00371643 ) 0 
( -0.0063362 0.00729935 0.00276966 ) 0 
( -0.00222468 0.0034388 0.00731196 ) 0 
( -0.00757309 0.0044993 0.00452444 ) 0 
( -0.00191338 0.00378838 0.00186238 ) 0 
( -0.000527855 0.00729723 0.0012237 ) 0 
( -0.0115919 0.00119528 0.00176925 ) 0 
( -0.00722386 0.00856192 0.00633028 ) 0 
( -0.0103664 0.00680068 0.00653176 ) 0 
( -8.62944e-05 0.0044334 0.000869438 ) 0 
( -0.000725057 0.00864197 0.00482758 ) 0 
( -0.00890697 0.00711797 0.00568057 ) 0 
( -0.00413224 0.00239839 0.00200423 ) 0 
( -0.00135836 0.00513168 0.000499782 ) 0 
( -0.00974224 0.0090784 0.00571588 ) 0 
( -0.0102244 0.000370771 0.0055366 ) 0 
( -0.00321716 0.00232022 0.00662155 ) 0 
( -0.00357731 0.00427854 0.00683172 ) 0 
( -0.000349755 0.00134229 0.0043719 ) 0 
( -0.00623633 0.00716674 0.00645451 ) 0 
( -0.010829 0.00770489 0.00681561 ) 0 
( -0.00505936 0.0123542 0.00426246 ) 0 
( -0.00787897 0.000362751 0.00697767 ) 0 
( -0.000967442 0.00402885 0.00618648 ) 0 
( -0.00909839 0.00976869 0.00712345 ) 0 
( -0.0073529 0.00742453 0.00381956 ) 0 
( -0.00721008 0.000179301 0.00532705 ) 0 
( -0.00254368 0.00600412 0.00627485 ) 0 
( -0.00164252 0.00984713 0.00049963 ) 0 
( -0.00209936 0.0121819 0.00167261 ) 0 
( -0.00102074 0.013311 0.00338588 ) 0 
( -0.00376358 0.00810024 0.00110747 ) 0 
( -0.00396782 0.00285376 0.00614328 ) 0 
( -0.00395452 0.00116939 0.00517242 ) 0 
( -0.00796323 0.000696308 0.00126853 ) 0 
( -0.00734633 0.00556652 0.00323186 ) 0 
( -0.00682394 0.00819227 0.0029859 ) 0 
( -0.00438682 0.00215931 0.000499689 ) 0 
( -0.000530249 0.00466982 0.00555574 ) 0 
( -0.00247491 0.00455533 0.00735049 ) 0 
( -0.00285708 0.000809517 0.00605079 ) 0 
( -0.00420325 0.00315029 0.00049953 ) 0 
( -0.00426053 0.00790277 0.00540424 ) 0 
( -0.00474174 0.000760722 0.00117505 ) 0 
( -0.000126154 0.00917441 0.00368481 ) 0 
( -0.00368696 0.0121975 0.00192272 ) 0 
( -0.00559332 0.00303246 0.00504619 ) 0 
( -0.0125509 0.0011195 0.00149683 ) 0 
( -0.00224625 0.0109234 0.0071043 ) 0 
( -0.00548132 0.000329791 0.00430694 ) 0 
( -0.00149996 0.0065462 0.00413621 ) 0 
( -0.000472363 0.00897826 0.00206951 ) 0 
( -0.00986895 0.00892593 0.00473584 ) 0 
( -0.00234367 0.0114561 0.00347605 ) 0 
( -0.00146438 0.00557427 0.00823501 ) 0 
( -0.00376634 0.00783215 0.00318044 ) 0 
( -0.00406597 0.00602471 0.00519613 ) 0 
( -0.00220804 0.0068095 0.000968697 ) 0 
( -0.00259126 0.0106366 0.00144618 ) 0 
( -0.00375443 0.0105816 0.00291824 ) 0 
( -0.00210075 0.0103619 0.00566246 ) 0 
( -0.000732174 0.000118101 0.00565644 ) 0 
( -0.00838838 0.0103855 0.00524496 ) 0 
( -0.00585496 0.00497637 0.00515892 ) 0 
( -0.000678755 0.00571656 0.00576458 ) 0 
( -0.0054526 0.00643564 0.00116959 ) 0 
( -0.00226385 0.00648389 0.00544336 ) 0 
( -0.0122506 0.00342594 0.000499722 ) 0 
( -0.00985352 0.00456537 0.00265557 ) 0 
( -0.00373421 0.00948918 0.00374146 ) 0 
( -0.00572688 0.00224951 0.00437792 ) 0 
( -0.0104876 0.00436997 0.000499629 ) 0 
( -0.00325398 0.0113606 0.0012564 ) 0 
( -0.00425309 0.00199841 0.00564542 ) 0 
( -0.00513454 0.00315603 0.00816488 ) 0 
( -0.00311902 0.00528126 0.00670588 ) 0 
( -0.0103339 0.00588208 0.0017111 ) 0 
( -0.00888918 0.00539258 0.00665685 ) 0 
( -0.0116478 0.00599786 0.00782402 ) 0 
( -0.0119298 0.00599193 0.00328895 ) 0 
( -0.00546981 0.00479069 0.00720822 ) 0 
( -0.00642678 0.0107323 0.00300087 ) 0 
( -0.000533464 0.000598791 0.0033878 ) 0 
( -0.00142167 0.0043673 0.00300237 ) 0 
( -0.0057292 0.00392916 0.00458206 ) 0 
( -0.00367815 0.00698853 0.00744363 ) 0 
( -0.00809927 0.00456168 0.0074149 ) 0 
( -0.00308911 0.00332262 0.00682332 ) 0 
( -0.00857175 0.0102349 0.00136143 ) 0 
( -0.00720791 0.00884024 0.00729131 ) 0 
( -0.0039538 0.0116401 0.00661844 ) 0 
( -0.0104303 0.00318049 0.00284803 ) 0 
( -0.00982649 0.00312376 0.0063675 ) 0 
( -0.00775895 0.0085312 0.00269732 ) 0 
( -0.00814808 0.00196089 0.00556274 ) 0 
( -0.00821547 0.0013722 0.000499831 ) 0 
( -0.00503955 0.00534558 0.00375975 ) 0 
( -0.013294 0.00122265 0.00420689 ) 0 
( -0.00696336 0.0104053 0.00609987 ) 0 
( -0.00999122 0.00641989 0.00478125 ) 0 
( -0.0126425 0.00428855 0.00081917 ) 0 
( -0.00281055 0.0110636 0.00560067 ) 0 
( -0.0111109 0.000909131 0.00627412 ) 0 
( -0.0112703 0.00257998 0.00702851 ) 0 
( -0.00329642 0.0107266 0.00479432 ) 0 
( -0.0021742 0.012467 0.004707 ) 0 
( -0.00741786 0.00626117 0.00201409 ) 0 
( -0.0029449 0.0130212 0.00193875 ) 0 
( -0.0133197 0.000895764 0.00515321 ) 0 
( -0.0100946 0.0034004 0.00389908 ) 0 
( -0.0050827 0.00659222 0.00652264 ) 0 
( -0.00114707 0.000981639 0.000791198 ) 0 
( -0.0061557 0.00530635 0.00669504 ) 0 
( -6.82058e-05 0.00656833 0.00217493 ) 0 
( -0.00221933 0.00178699 0.00316154 ) 0 
( -0.000900824 0.00133379 0.00609812 ) 0 
( -0.00833516 0.00722555 0.00686481 ) 0 
( -0.00661902 5.71186e-06 0.00677214 ) 0 
( -1.79321e-05 0.0112198 0.00160163 ) 0 
( -0.0113472 0.00240974 0.00183384 ) 0 
( -0.00200127 0.00517902 0.00321928 ) 0 
( -0.0090862 0.00895838 0.00282498 ) 0 
( -0.00258064 0.00506284 0.00202474 ) 0 
( -0.00473353 0.0105841 0.00331392 ) 0 
( -0.00992945 0.00795523 0.00717693 ) 0 
( -0.00631722 0.003277 0.00375926 ) 0 
( -0.00579514 0.00581541 0.00751842 ) 0 
( -0.00588385 0.0112425 0.000499641 ) 0 
( -0.00196716 0.00866334 0.00381381 ) 0 
( -0.00575326 0.00832499 0.00723871 ) 0 
( -0.00358898 0.00681511 0.00135475 ) 0 
( -0.00130344 0.0120535 0.00502691 ) 0 
( -0.00123416 1.71865e-05 0.00135835 ) 0 
( -0.011104 0.00588022 0.0027363 ) 0 
( -0.00437294 0.00369666 0.00649779 ) 0 
( -0.00746403 0.0110685 0.00267923 ) 0 
( -0.00424891 0.00430341 0.00570928 ) 0 
( -0.00420195 0.011464 0.00307004 ) 0 
( -0.0096928 0.00309888 0.00133099 ) 0 
( -0.00572129 0.000165925 0.00197491 ) 0 
( -0.00171489 0.00449538 0.00118372 ) 0 
( -0.00592545 0.00238007 0.00572744 ) 0 
( -0.0123709 0.00501879 0.00148513 ) 0 
( -0.00224613 0.0123124 0.00296898 ) 0 
( -0.00769967 0.00616987 0.00421786 ) 0 
( -0.00611909 0.000648053 0.00119448 ) 0 
( -0.00549154 0.0121556 0.00652649 ) 0 
( -0.0118794 0.00420106 0.00387759 ) 0 
( -0.00450182 6.37577e-05 0.000499544 ) 0 
( -0.000863546 0.0059629 0.00215456 ) 0 
( -0.00688597 0.00476464 0.00285102 ) 0 
( -0.00292573 0.00110477 0.00509464 ) 0 
( -0.00275403 0.00145737 0.00763105 ) 0 
( -0.00484471 0.00550541 0.00752115 ) 0 
( -0.00129172 0.00758551 0.00367275 ) 0 
( -0.0120161 0.00382225 0.00288279 ) 0 
( -0.000403348 0.0102991 0.00637767 ) 0 
( -0.00489425 0.00981786 0.00484791 ) 0 
( -0.00149718 0.000511309 0.00737396 ) 0 
( -0.000699128 0.00316913 0.00468761 ) 0 
( -0.00507306 0.00781392 0.0041224 ) 0 
( -0.0101976 0.00344351 0.00522702 ) 0 
( -0.0113931 0.00494072 0.0034124 ) 0 
( -0.00708058 0.00564437 0.00652187 ) 0 
( -0.00428757 0.00445483 0.00838048 ) 0 
( -0.00616754 0.0043904 0.00348123 ) 0 
( -0.012486 0.00264984 0.00486759 ) 0 
( -0.000887206 0.000459619 0.00658338 ) 0 
( -0.00900871 0.00446523 0.00701115 ) 0 
( -0.00721206 0.00453646 0.00788262 ) 0 
( -0.0023032 0.0100321 0.00218868 ) 0 
( -0.00500838 0.00977789 0.000992243 ) 0 
( -0.00882635 0.00869894 0.00488484 ) 0 
( -0.00195122 0.00595261 0.00210192 ) 0 
( -0.0042528 0.00606751 0.00135479 ) 0 
( -0.00128178 0.00891474 0.000499701 ) 0 
( -0.0046094 0.0102898 0.00568213 ) 0 
( -0.0124064 0.00153089 0.00686984 ) 0 
( -0.00835818 0.00571215 0.00282293 ) 0 
( -0.00928652 0.00959083 0.00423024 ) 0 
( -0.01097 0.00339292 0.00129827 ) 0 
( -0.00892547 0.00409183 0.00144413 ) 0 
( -0.00218931 0.00337455 0.00521734 ) 0 
( -0.00536766 0.00365862 0.00167404 ) 0 
( -0.0071583 0.00804987 0.00175139 ) 0 
( -0.00794387 0.00493411 0.00217402 ) 0 
( -0.00874764 0.0077094 0.00476332 ) 0 
( -0.0125415 0.0014869 0.00536486 ) 0 
( -0.000405554 0.00955389 0.00457022 ) 0 
( -0.000726956 0.00618476 0.0085237 ) 0 
( -0.00687091 0.00316308 0.00142303 ) 0 
( -0.000983515 0.0131542 0.00207426 ) 0 
( -0.00496202 0.00686102 0.00441186 ) 0 
( -0.000164655 0.00636639 0.00119438 ) 0 
( -0.00688892 0.00113288 0.00366375 ) 0 
( -0.00168991 0.00875333 0.00528495 ) 0 
( -0.00366416 0.00382315 0.00393413 ) 0 
( -0.00390271 0.0109802 0.00586923 ) 0 
( -0.00642499 0.00150423 0.00786263 ) 0 
( -0.00710562 0.00606437 0.00514302 ) 0 
( -0.00688713 0.0113893 0.00404648 ) 0 
( -0.00311394 0.000476931 0.00844464 ) 0 
( -0.0086533 0.00876132 0.00387274 ) 0 
( -0.00415045 0.00892659 0.0046402 ) 0 
( -0.00668872 0.00217772 0.0051087 ) 0 
( -0.00554383 0.00721856 0.00178459 ) 0 
( -0.0107363 0.00792406 0.00461598 ) 0 
( -0.00812055 0.00642655 0.0050881 ) 0 
( -0.00605048 0.00324997 0.000499638 ) 0 
( -0.000655648 0.00980264 0.00311484 ) 0 
( -0.0031942 0.0129562 0.00654822 ) 0 
( -0.00447873 0.00176245 0.00447058 ) 0 
( -0.0063812 0.00783449 0.000499695 ) 0 
( -0.00783389 0.00543141 0.00488073 ) 0 
( -0.00510445 0.00142341 0.000499845 ) 0 
( -0.00813749 8.14739e-05 0.000499631 ) 0 
( -0.0019185 0.00255511 0.00375743 ) 0 
( -0.00227014 0.00997261 0.00745052 ) 0 
( -0.00534961 0.00735942 0.00583001 ) 0 
( -0.00361303 0.00283224 0.00412838 ) 0 
( -0.0072889 0.00708973 0.00538401 ) 0 
( -0.00393611 0.00691626 0.00356908 ) 0 
( -0.00744297 0.00477943 0.000499745 ) 0 
( -0.0127691 0.00159865 0.00262924 ) 0 
( -0.00101443 0.00946583 0.00138521 ) 0 
( -4.90318e-05 0.00262466 0.00413799 ) 0 
( -0.00740269 0.00813543 0.000499858 ) 0 
( -0.00672661 0.00402223 0.00428554 ) 0 
( -0.0028016 0.0121996 0.00397519 ) 0 
( -0.00470574 0.00889439 0.00134904 ) 0 
( -0.00659953 0.00458233 0.00615083 ) 0 
( -0.00522829 0.0107498 0.0010715 ) 0 
( -0.00413479 0.00118061 0.000499702 ) 0 
( -0.00897405 0.00301786 0.00535565 ) 0 
( -0.000757398 0.00634224 0.00748573 ) 0 
( -0.00210451 0.0110282 0.00222693 ) 0 
( -0.00678176 0.0102789 0.00381871 ) 0 
( -0.00959432 0.000117505 0.00479792 ) 0 
( -0.00122335 0.00813091 0.00722318 ) 0 
( -0.00303383 0.00910282 0.00445181 ) 0 
( -0.0099586 0.00394798 0.00691803 ) 0 
( -0.00725844 0.00443768 0.00688869 ) 0 
( -0.000765011 0.0059705 0.000499772 ) 0 
( -0.0113606 0.00687695 0.00643648 ) 0 
( -0.000841554 0.00721338 0.00448458 ) 0 
( -0.00987987 0.00250447 0.000499744 ) 0 
( -0.00616118 0.0118435 0.00585267 ) 0 
( -0.0023837 0.00485682 0.000499666 ) 0 
( -0.00799559 0.00137146 0.008366 ) 0 
( -0.0119967 0.00322357 0.00665376 ) 0 
( -0.00263399 0.00711499 0.00614908 ) 0 
( -0.00319516 0.00740122 0.00432108 ) 0 
( -0.000536238 0.0133393 0.00119931 ) 0 
( -0.00675906 0.00585581 0.00408887 ) 0 
( -0.0027797 0.00416019 0.00540198 ) 0 
( -0.00413894 0.00906388 0.00700429 ) 0 
( -0.00111203 0.00620363 0.00655668 ) 0 
( -0.00663345 0.00868985 0.00491716 ) 0 
( -0.00288091 0.00967979 0.00143468 ) 0 
( -0.00377114 0.0109617 0.000499603 ) 0 
( -0.00611822 0.00976052 0.00134053 ) 0 
( -0.0022145 0.00229105 0.00774786 ) 0 
( -0.00433116 0.00466193 0.00736522 ) 0 
( -0.000422126 0.00636531 0.00413617 ) 0 
( -0.00564097 0.00438506 0.00594585 ) 0 
( -0.00186524 0.0106275 0.00382729 ) 0 
( -0.0082614 0.00728998 0.0019103 ) 0 
( -0.000296627 0.010609 0.000860727 ) 0 
( -0.00858383 0.00614229 0.000499711 ) 0 
( -0.00820015 0.00368835 0.00555664 ) 0 
( -0.00412062 0.00776643 0.00442325 ) 0 
( -0.00590338 0.00127719 0.00194106 ) 0 
( -0.00350858 0.00388877 0.00294585 ) 0 
( -0.0064598 0.00636793 0.00701589 ) 0 
( -0.00447992 0.00640925 0.00729921 ) 0 
( -0.00282322 0.00831529 0.00653619 ) 0 
( -0.00458053 0.00695829 0.00533178 ) 0 
( -0.00339553 0.0047992 0.0058702 ) 0 
( -0.0033382 0.0119356 0.00588802 ) 0 
( -0.0124633 0.000385271 0.00532922 ) 0 
( -0.0113496 0.00385948 0.00049965 ) 0 
( -0.0061885 0.00458532 0.00049969 ) 0 
( -0.00251559 0.000303575 0.00684283 ) 0 
( -0.00806798 0.00671356 0.00604455 ) 0 
( -0.00033193 0.0116879 0.00276645 ) 0 
( -0.000697936 0.0129368 0.00431596 ) 0 
( -0.00807776 0.00767489 0.00576943 ) 0 
( -0.00513066 0.00366314 0.000499849 ) 0 
( -0.00416801 0.00201011 0.00664177 ) 0 
( -0.00794042 0.00370787 0.00791027 ) 0 
( -0.00220239 0.000686204 0.00148253 ) 0 
( -0.00622802 0.00422957 0.00217947 ) 0 
( -0.00915114 0.00972011 0.000499857 ) 0 
( -0.00667727 0.00217665 0.00407558 ) 0 
( -0.0115863 0.00178002 0.00484796 ) 0 
( -0.00861625 0.00419971 0.000499625 ) 0 
( -0.00168008 0.00190288 0.00636001 ) 0 
( -0.00634697 0.0050001 0.00769268 ) 0 
( -0.00744355 0.00655674 0.00333112 ) 0 
( -0.00969095 0.00100746 0.000499558 ) 0 
( -0.00740073 0.0101323 0.00524311 ) 0 
( -0.00372082 0.00417179 0.00487026 ) 0 
( -0.0034639 0.00574786 0.00435041 ) 0 
( -0.00695932 0.0113926 0.0062621 ) 0 
( -0.0057948 0.012027 0.00215444 ) 0 
( -0.00600912 0.00814594 0.00628581 ) 0 
( -0.00273473 0.00579485 0.00049976 ) 0 
( -0.00803798 0.00699041 0.000499694 ) 0 
( -0.00314256 0.00335355 0.00491604 ) 0 
( -0.00554061 0.005699 0.000499561 ) 0 
( -0.007216 0.00117192 0.00205265 ) 0 
( -0.00386777 0.00554821 0.00731256 ) 0 
( -0.00275152 0.00997077 0.00631385 ) 0 
( -0.00334337 0.00457054 0.000499639 ) 0 
( -0.00167973 0.0132439 0.00709808 ) 0 
( -0.00271071 0.00244591 0.00458654 ) 0 
( -0.00497066 0.00842813 0.00492062 ) 0 
( -0.00417573 0.00532699 0.00621459 ) 0 
( -0.00694122 0.00490013 0.00385767 ) 0 
( -0.000140193 0.00293733 0.0079383 ) 0 
( -0.00268371 0.0043215 0.00638492 ) 0 
( -0.00503417 0.00544457 0.00132309 ) 0 
( -0.0025721 0.00155684 0.00665097 ) 0 
( -0.00257316 0.011579 0.00642403 ) 0 
( -0.00268004 0.00930872 0.00353944 ) 0 
( -0.00306571 0.00559684 0.0034442 ) 0 
( -0.00311111 0.0121117 0.00707701 ) 0 
( -0.0100471 0.00468958 0.00534524 ) 0 
( -0.008176 0.00704703 0.00427915 ) 0 
( -0.000822252 0.00188129 0.000499668 ) 0 
( -0.00113409 0.00390451 0.00520711 ) 0 
( -0.0126267 0.000122587 0.00149446 ) 0 
( -0.0100483 0.00878982 0.00209381 ) 0 
( -0.0101975 0.00231585 0.00224479 ) 0 
( -0.00468979 0.00975402 0.00387116 ) 0 
( -0.012211 0.00242683 0.000499824 ) 0 
( -0.0102383 0.00267359 0.00458481 ) 0 
( -0.00402447 0.000332483 0.00585281 ) 0 
( -0.00320172 0.0111666 0.00390009 ) 0 
( -0.000435742 5.95916e-05 0.00470322 ) 0 
( -0.00140882 0.00347188 0.00105928 ) 0 
( -0.00744491 0.00271538 0.00442264 ) 0 
( -0.00721557 0.00255188 0.00213536 ) 0 
( -0.00750557 0.00110236 0.00753732 ) 0 
( -0.00429425 0.0106641 0.00481 ) 0 
( -0.0108959 2.69677e-06 0.00489354 ) 0 
( -0.0126077 0.00116215 0.000499674 ) 0 
( -0.00312901 0.00205144 0.00834195 ) 0 
( -0.00565154 0.00916488 0.00484956 ) 0 
( -0.0065261 0.0116461 0.00494291 ) 0 
( -0.00469771 0.000223839 0.00201813 ) 0 
( -0.00211174 0.00546997 0.00124109 ) 0 
( -0.0095621 0.00106026 0.00522906 ) 0 
( -0.00414697 0.00337551 0.00530919 ) 0 
( -0.00512497 0.00956366 0.00196203 ) 0 
( -0.00587314 0.0102428 0.000499719 ) 0 
( -0.0105005 0.00251034 0.00131211 ) 0 
( -0.00162706 0.00256455 0.00148304 ) 0 
( -0.0091142 0.00504087 0.00119279 ) 0 
( -0.00226855 0.00259019 0.00678518 ) 0 
( -0.00234727 0.00506787 0.00819993 ) 0 
( -0.00387794 0.0127745 0.000946689 ) 0 
( -0.00314495 0.00460481 0.00354165 ) 0 
( -0.00232554 0.00665804 0.00699907 ) 0 
( -0.0022059 0.00288152 0.00223419 ) 0 
( -0.00442585 0.000430347 0.0067634 ) 0 
( -0.013333 0.000676542 0.00193476 ) 0 
( -0.0133367 0.000597808 0.000886774 ) 0 
( -1.28635e-05 0.00340211 0.00331995 ) 0 
( -0.0121866 0.00204813 0.00142886 ) 0 
( -0.0108258 0.00433306 0.00160646 ) 0 
( -0.00600916 0.00923945 0.00391451 ) 0 
( -0.00990754 0.00407257 0.0012576 ) 0 
( -0.00920615 0.00480157 0.00463324 ) 0 
( -0.00490167 0.0059914 0.00574421 ) 0 
( -0.000658115 0.00690224 0.00600387 ) 0 
( -0.0114822 0.00564742 0.00411434 ) 0 
( -0.00473392 0.00960724 0.00640755 ) 0 
( -0.00418886 0.00849934 0.00210832 ) 0 
( -0.00791481 0.0107107 0.00606338 ) 0 
( -0.00333851 0.0042009 0.00858697 ) 0 
( -0.00563945 0.00825037 0.00337362 ) 0 
( -0.0118199 0.000707995 0.00092641 ) 0 
( -0.00230476 0.00341299 0.00620983 ) 0 
( -0.0075804 0.000232549 0.00366394 ) 0 
( -0.0117795 0.00523609 0.00639889 ) 0 
( -0.00255564 0.0115279 0.00468764 ) 0 
( -0.00067994 0.00284514 0.00163786 ) 0 
( -0.0105506 0.00811636 0.00364998 ) 0 
( -0.0070254 0.00706983 0.000499598 ) 0 
( -0.0018664 0.011305 0.00537674 ) 0 
( -0.000276545 0.00544276 0.00489098 ) 0 
( -0.00443385 0.0032128 0.00370226 ) 0 
( -0.0013597 0.00963998 0.00496157 ) 0 
( -0.00625192 0.00070875 0.00302006 ) 0 
( -0.00610264 0.00136677 0.000499706 ) 0 
( -0.00486901 0.000371346 0.0086372 ) 0 
( -0.00129162 0.00584393 0.00345208 ) 0 
( -0.00940099 0.00353748 0.00763933 ) 0 
( -0.00335399 0.00915424 0.00540559 ) 0 
( -0.0032937 0.00122817 0.00353313 ) 0 
( -0.0121176 0.00266753 0.00261412 ) 0 
( -0.00407723 0.0110862 0.00175265 ) 0 
( -0.00152931 0.0127184 0.00573866 ) 0 
( -0.00679282 0.00772828 0.00467731 ) 0 
( -0.00648715 0.00205172 0.00166719 ) 0 
( -0.00094157 0.0133159 0.00630689 ) 0 
( -0.00252608 0.00571406 0.00745819 ) 0 
( -0.00387021 0.0101004 0.00651289 ) 0 
( -0.00525091 0.00158204 0.00796477 ) 0 
( -0.00597395 0.0118962 0.00414202 ) 0 
( -0.00978975 0.00166831 0.00752244 ) 0 
( -0.00569703 0.00471369 0.00148416 ) 0 
( -0.00302838 0.00285794 0.0057999 ) 0 
( -0.00778474 0.0108454 0.00149576 ) 0 
( -0.0106789 0.00569914 0.00487386 ) 0 
( -0.00449345 0.00841215 0.000499581 ) 0 
( -0.0116668 0.00161306 0.00583236 ) 0 
( -0.00639079 0.00997756 0.00537841 ) 0 
( -0.00189587 0.00433066 0.00467132 ) 0 
( -0.00144768 0.0115607 0.0072663 ) 0 
( -0.00247792 0.00220933 0.00101034 ) 0 
( -0.00912482 0.0018335 0.000499575 ) 0 
( -0.00217556 0.00838533 0.00739027 ) 0 
( -0.00303369 0.00653919 0.00377713 ) 0 
( -0.00983428 0.0090287 0.000911143 ) 0 
( -0.000745724 0.00936533 0.00648081 ) 0 
( -0.00475075 0.0106579 0.00660095 ) 0 
( -0.00369333 0.00981425 0.00469448 ) 0 
( -0.00113219 0.0105926 0.00575906 ) 0 
( -0.00838184 0.00122188 0.00707093 ) 0 
( -0.00855648 0.00565278 0.00175314 ) 0 
( -0.00213664 0.00513196 0.00659352 ) 0 
( -0.0120053 0.000904368 0.0046078 ) 0 
( -0.00688418 0.00961505 0.00455948 ) 0 
( -0.0105081 0.00118312 0.00702417 ) 0 
( -0.00246471 0.00248319 0.00895144 ) 0 
( -0.00545832 0.00056434 0.00541291 ) 0 
( -0.00804794 0.00572816 0.00581306 ) 0 
( -0.00591363 0.00286308 0.00141132 ) 0 
( -0.00746035 0.00488962 0.00574533 ) 0 
( -0.00974007 0.00170669 0.00432456 ) 0 
( -0.0082528 0.00344943 0.00458704 ) 0 
( -0.00682954 0.0100092 0.0020085 ) 0 
( -0.00134593 0.0116613 0.00207386 ) 0 
( -0.00395566 0.0020427 0.00361349 ) 0 
( -0.00801668 0.00216167 0.00381726 ) 0 
( -0.00325969 0.00814725 0.00199687 ) 0 
( -0.00857869 0.00295139 0.00721801 ) 0 
( -0.00135276 0.00113122 0.0082032 ) 0 
( -0.000986483 0.00420307 0.000499841 ) 0 
( -0.00154189 0.00465826 0.00862764 ) 0 
( -0.0118613 0.00612668 0.00585508 ) 0 
( -0.00211235 0.00138642 0.00561956 ) 0 
( -0.00392842 0.0104797 0.00389776 ) 0 
( -0.00947693 0.00710814 0.00688293 ) 0 
( -0.00664527 0.000967144 0.00704629 ) 0 
( -0.00591966 0.00509047 0.00416011 ) 0 
( -0.00900164 0.00200375 0.00700643 ) 0 
( -0.0113412 0.000845484 0.00312187 ) 0 
( -0.000117296 0.00615059 0.00646957 ) 0 
( -0.00921112 0.00359356 0.00432601 ) 0 
( -0.00406061 0.0065756 0.00220322 ) 0 
( -0.00129675 0.00633725 0.00521187 ) 0 
( -0.0122545 0.00226688 0.00355531 ) 0 
( -0.00895512 0.00358416 0.00654153 ) 0 
( -0.00516044 0.00920862 0.00746573 ) 0 
( -0.00120999 0.0121145 0.00646867 ) 0 
( -0.0107288 0.00656388 0.00109585 ) 0 
( -0.00642566 0.00645003 0.001934 ) 0 
( -0.00813375 0.00998079 0.000499565 ) 0 
( -0.00881992 0.00572155 0.00469987 ) 0 
( -0.00087612 0.008479 0.00130303 ) 0 
( -0.00829799 0.00529968 0.00374437 ) 0 
( -0.00762848 0.00284603 0.00751089 ) 0 
( -0.0042844 0.0118917 0.00118159 ) 0 
( -0.00107638 0.00776895 0.00630305 ) 0 
( -0.0122463 0.00529299 0.00743939 ) 0 
( -0.0123066 0.00517443 0.000499623 ) 0 
( -0.0102521 0.00640752 0.00287558 ) 0 
( -0.012327 0.00511402 0.00407286 ) 0 
( -0.00771412 0.0108953 0.000499736 ) 0 
( -0.011263 0.00536645 0.00136034 ) 0 
( -0.00303704 0.00242752 0.00181479 ) 0 
( -0.0100082 0.004236 0.00444146 ) 0 
( -0.0106392 0.00586481 0.00362151 ) 0 
( -0.000337958 0.00851684 0.00681926 ) 0 
( -0.00175449 0.00383679 0.00809925 ) 0 
( -0.00762931 0.00584466 0.000499639 ) 0 
( -0.00582048 0.00806963 0.00530678 ) 0 
( -0.00246005 0.00507503 0.0056491 ) 0 
( -0.00174555 7.08154e-06 0.000499557 ) 0 
( -0.00672076 0.00795013 0.0069706 ) 0 
( -0.0112186 0.0028448 0.000499821 ) 0 
( -9.71134e-05 0.0125463 0.00162258 ) 0 
( -0.0052305 0.00714383 0.000499673 ) 0 
( -0.00543331 0.00810948 0.00066107 ) 0 
( -0.010284 0.00246305 0.0036064 ) 0 
( -0.000138 0.00381677 0.00520305 ) 0 
( -0.00816803 0.00930202 0.00318563 ) 0 
( -0.00685037 0.00511787 0.00483256 ) 0 
( -0.00894854 0.00765617 0.00127677 ) 0 
( -0.00633338 0.0117126 0.00322698 ) 0 
( -0.00321902 0.00177305 0.000499619 ) 0 
( -0.00562162 0.0121087 0.00505344 ) 0 
( -0.00174413 0.00858278 0.00626988 ) 0 
( -0.00222058 0.0033907 0.00421647 ) 0 
( -0.000335702 0.00327092 0.00602523 ) 0 
( -0.00750682 0.0100101 0.00293765 ) 0 
( -0.00692169 0.00379203 0.00313444 ) 0 
( -0.00517796 0.0085565 0.00224329 ) 0 
( -0.0117791 0.00422944 0.00132305 ) 0 
( -0.000146585 0.00741946 0.00324913 ) 0 
( -0.00686161 0.0114518 0.000499817 ) 0 
( -0.00196826 0.00164173 0.00166072 ) 0 
( -0.0043169 0.00535167 0.000499717 ) 0 
( -0.0118638 0.00612135 0.00685558 ) 0 
( -0.0013876 0.00483253 0.00397155 ) 0 
( -0.00134114 0.00705374 0.00704068 ) 0 
( -0.00457337 0.00380582 0.0044972 ) 0 
( -0.00048333 0.00446667 0.00694693 ) 0 
( -0.00682562 0.00933798 0.00322995 ) 0 
( -0.009204 0.00622622 0.00267302 ) 0 
( -0.00480824 0.000613154 0.00766904 ) 0 
( -0.00488912 0.00792685 0.00152142 ) 0 
( -0.00063743 0.00525091 0.00118223 ) 0 
( -0.000136222 0.00795415 0.00601794 ) 0 
( -0.007904 0.00330277 0.00289574 ) 0 
( -0.00772257 0.00265909 0.00128031 ) 0 
( -0.00696764 0.00362193 0.00754229 ) 0 
( -0.00112 0.00690534 0.000499871 ) 0 
( -0.00192219 0.00843042 0.00178531 ) 0 