FoamFile
{version 2.0; format ascii;class Cloud<passiveParticle>; location 0;object  positions;}
2509
(
( -0.0096853 0.00548029 0.000499503 ) 0 
( -0.00617093 0.0118385 0.00124906 ) 0 
( -0.0058556 0.00141513 0.00350701 ) 0 
( -0.00123937 0.00859835 0.00300096 ) 0 
( -0.00872031 0.00306752 0.00110011 ) 0 
( -0.000392915 0.00250709 0.00521607 ) 0 
( -0.00766699 0.00850654 0.00529284 ) 0 
( -0.00915256 0.00684324 0.00183413 ) 0 
( -0.00968606 0.00173079 0.00308533 ) 0 
( -0.00470867 0.00746681 0.00309166 ) 0 
( -0.00419412 0.00506014 0.00479099 ) 0 
( -0.00140895 0.00212482 0.00813691 ) 0 
( -0.00776058 0.00831426 0.00356808 ) 0 
( -0.000888129 0.00788203 0.000499602 ) 0 
( -0.00490292 0.0115026 0.000499806 ) 0 
( -0.000290572 0.00875442 0.000499852 ) 0 
( -0.00828884 0.00239471 0.000499609 ) 0 
( -0.00869948 0.00210358 0.00136452 ) 0 
( -0.00649876 0.00937695 0.000499706 ) 0 
( -0.00086801 0.00168513 0.0073443 ) 0 
( -0.00340652 0.00475052 0.00753928 ) 0 
( -0.0129331 0.00328128 0.00174238 ) 0 
( -0.00488139 0.00112813 0.00363968 ) 0 
( -0.0075475 0.00545666 0.00141741 ) 0 
( -0.00141455 0.00501544 0.00508351 ) 0 
( -0.00754491 0.0088729 0.00437055 ) 0 
( -0.0010517 0.0100857 0.00388143 ) 0 
( -0.000615891 0.00431929 0.00344318 ) 0 
( -0.00707573 0.00387106 0.000700648 ) 0 
( -0.00329549 0.000921093 0.00680749 ) 0 
( -0.0107586 0.00602935 0.00691019 ) 0 
( -0.00386562 0.00178648 0.00126711 ) 0 
( -0.0124278 0.0038211 0.00583486 ) 0 
( -0.000211143 0.0106133 0.00480616 ) 0 
( -0.00227214 0.0106244 0.000499811 ) 0 
( -0.00845248 0.00306225 0.00358575 ) 0 
( -0.00173716 0.00345743 0.00316719 ) 0 
( -0.00832098 0.000504073 0.00430658 ) 0 
( -0.00836493 0.00247463 0.00459309 ) 0 
( -0.00454609 0.0075114 0.00729554 ) 0 
( -0.00714501 0.00289421 0.000499573 ) 0 
( -0.00573531 0.00629148 0.00293302 ) 0 
( -0.00345431 0.00181387 0.00259415 ) 0 
( -0.0119465 0.00361955 0.00459667 ) 0 
( -0.00448629 0.00923471 0.00290358 ) 0 
( -0.00500519 0.00627407 0.00204952 ) 0 
( -0.011814 0.00171844 0.00273309 ) 0 
( -0.00266041 0.00304995 0.000499601 ) 0 
( -0.00220783 0.00855106 0.000499716 ) 0 
( -0.00281189 0.00635782 0.00267068 ) 0 
( -0.00766743 0.00975825 0.00383244 ) 0 
( -0.000109235 0.00838163 0.00293694 ) 0 
( -0.0115408 0.0067108 0.00177614 ) 0 
( -0.00512887 0.0106017 0.00411716 ) 0 
( -0.00986504 0.00899467 0.00354501 ) 0 
( -0.0107164 0.00185294 0.00417028 ) 0 
( -0.0130387 0.00284093 0.00393232 ) 0 
( -0.00993092 0.0064494 0.000499837 ) 0 
( -0.00307424 0.00280795 0.00753045 ) 0 
( -0.00214658 0.0123508 0.00673539 ) 0 
( -0.00548613 0.010036 0.00680738 ) 0 
( -0.00461422 0.00219663 0.00736835 ) 0 
( -4.5656e-05 0.0133503 0.00581184 ) 0 
( -0.00349729 0.00617402 0.0078333 ) 0 
( -0.00972305 0.00266162 0.00714216 ) 0 
( -0.0107913 4.6537e-05 0.00209132 ) 0 
( -0.00212177 0.00564711 0.00476596 ) 0 
( -0.00923059 0.000854452 0.00408365 ) 0 
( -0.00712994 0.00184996 0.00683571 ) 0 
( -0.00220183 0.007488 0.00393146 ) 0 
( -0.00553323 9.70913e-05 0.00664513 ) 0 
( -0.00136992 0.0106348 0.00465414 ) 0 
( -0.00987694 0.00174604 0.0011487 ) 0 
( -0.00952873 0.00430405 0.00595026 ) 0 
( -0.00860917 0.00789203 0.0032424 ) 0 
( -0.00370258 0.00613819 0.000499861 ) 0 
( -6.66754e-05 0.0102296 0.00378694 ) 0 
( -0.0107533 0.00164437 0.00312161 ) 0 
( -0.00916408 0.00885618 0.00163269 ) 0 
( -9.31551e-05 0.00233852 0.0010087 ) 0 
( -0.00232119 0.000824455 0.000499631 ) 0 
( -0.00838088 0.00792982 0.00049988 ) 0 
( -0.00854316 0.00446371 0.00600348 ) 0 
( -0.0103241 0.000777212 0.00448369 ) 0 
( -0.00778753 0.0078997 0.00450724 ) 0 
( -0.00630354 0.00423562 0.00688946 ) 0 
( -0.00363129 0.00193116 0.00731587 ) 0 
( -0.00214043 0.0124291 0.000499721 ) 0 
( -0.00982158 0.00555194 0.00426832 ) 0 
( -0.000712374 0.00494407 0.00796353 ) 0 
( -0.0089713 0.00873657 0.00049961 ) 0 
( -0.00638035 0.000181834 0.00373489 ) 0 
( -0.00221097 0.000846513 0.00334402 ) 0 
( -0.00138595 0.00633347 0.00137676 ) 0 
( -0.00777586 0.0107478 0.00347947 ) 0 
( -0.00226774 0.00592506 0.00381655 ) 0 
( -0.00365221 0.00324245 0.00173089 ) 0 
( -0.00980833 0.00752463 0.00215852 ) 0 
( -0.00998602 0.00764028 0.00601133 ) 0 
( -0.00393777 0.0116292 0.00498431 ) 0 
( -0.00472416 0.00628257 0.000499688 ) 0 
( -0.00520708 0.00551587 0.00641966 ) 0 
( -0.000651539 0.00202743 0.00343203 ) 0 
( -0.00914947 0.00966256 0.0050625 ) 0 
( -0.00754476 0.00172176 0.00452738 ) 0 
( -0.00397409 6.09619e-05 0.00134851 ) 0 
( -0.00964758 0.00228517 0.00817522 ) 0 
( -0.00990187 0.00254934 0.00540777 ) 0 
( -0.000423284 0.00398732 0.00795467 ) 0 
( -0.00224864 0.00161561 0.00832741 ) 0 
( -0.00201712 0.0077004 0.00651609 ) 0 
( -0.00973879 0.00366201 0.00215383 ) 0 
( -0.0065566 0.00155829 0.00607028 ) 0 
( -0.00257546 0.00908165 0.00219596 ) 0 
( -0.00318899 0.00977066 0.00265794 ) 0 
( -0.00615925 0.00802006 0.00178641 ) 0 
( -0.0122698 0.00477083 0.0055653 ) 0 
( -0.00626585 0.00547853 0.0031731 ) 0 
( -0.011786 0.0062671 0.00475741 ) 0 
( -0.008071 0.00457471 0.00124998 ) 0 
( -0.00133894 0.00255328 0.00718987 ) 0 
( -0.00411699 0.00856076 0.00601053 ) 0 
( -0.00408647 0.00506044 0.00379683 ) 0 
( -0.0126681 0.00421165 0.00199518 ) 0 
( -0.0089414 0.000401314 0.00614048 ) 0 
( -0.00126825 0.00379102 0.00398646 ) 0 
( -0.000862626 0.00862893 0.00567105 ) 0 
( -0.00255319 0.00603777 0.00824534 ) 0 
( -0.00952614 0.00790486 0.000499605 ) 0 
( -0.00780728 0.0108197 0.00447645 ) 0 
( -0.00993032 0.00213552 0.00631754 ) 0 
( -0.006706 0.00194119 0.00297257 ) 0 
( -0.00290333 0.00748157 0.00692309 ) 0 
( -0.00270353 0.00737921 0.00504487 ) 0 
( -0.00981331 0.00666017 0.00564162 ) 0 
( -0.0116541 0.00159673 0.00049979 ) 0 
( -0.0024779 0.00828169 0.00290626 ) 0 
( -0.0120083 0.000180638 0.003308 ) 0 
( -0.0103493 0.00429088 0.0033962 ) 0 
( -0.0111676 0.000721126 0.00394961 ) 0 
( -0.00432921 0.00428988 0.00320763 ) 0 
( -0.0114671 0.00252684 0.00407824 ) 0 
( -0.00268604 0.0042785 0.00125632 ) 0 
( -0.00349671 0.000293621 0.00483334 ) 0 
( -0.00288899 0.00239948 0.00342182 ) 0 
( -0.00636295 0.00230883 0.000711744 ) 0 
( -0.00905233 0.00787986 0.00627726 ) 0 
( -0.00913673 0.000552664 0.00710929 ) 0 
( -0.00156951 0.00563518 0.0070828 ) 0 
( -0.00401983 0.00589324 0.00320845 ) 0 
( -0.00284999 0.0116848 0.0021118 ) 0 
( -0.0104274 0.008337 0.000499686 ) 0 
( -0.00450993 0.00333157 0.0022378 ) 0 
( -0.0021368 0.00954323 0.00421651 ) 0 
( -0.00027964 0.00119995 0.00669778 ) 0 
( -0.00744083 0.00656483 0.00666629 ) 0 
( -0.00535127 0.000378553 0.00317056 ) 0 
( -0.00184535 0.0112926 0.00129421 ) 0 
( -0.00884598 0.00130826 0.00573039 ) 0 
( -0.00476147 0.0016244 0.00168041 ) 0 
( -0.00812988 0.00819179 0.00651486 ) 0 
( -0.000652991 0.0113188 0.00623713 ) 0 
( -0.00867823 0.00627851 0.00375713 ) 0 
( -0.0115653 0.00160498 0.00370377 ) 0 
( -0.00361978 0.00423466 0.00161094 ) 0 
( -0.00952389 0.00123351 0.00646159 ) 0 
( -0.00301651 0.0101324 0.00387352 ) 0 
( -0.00341536 0.00883501 0.00292852 ) 0 
( -0.00465216 0.00535918 0.00224492 ) 0 
( -0.00494089 0.0115622 0.00193949 ) 0 
( -0.00569648 0.000940109 0.00715845 ) 0 
( -0.00596602 0.00142339 0.00527476 ) 0 
( -0.00382094 0.000534539 0.00756525 ) 0 
( -0.00951017 0.00543926 0.0020352 ) 0 
( -0.00294894 0.00720974 0.00200578 ) 0 
( -0.0114026 0.00537169 0.0053336 ) 0 
( -0.0107274 0.00197233 0.000499677 ) 0 
( -0.00335543 0.00786795 0.00566259 ) 0 
( -0.00771107 0.00177539 0.00283697 ) 0 
( -0.00451271 0.0124873 0.0065991 ) 0 
( -0.00309085 0.00692961 0.00049957 ) 0 
( -0.00260266 0.00427628 0.00262262 ) 0 
( -0.0109647 0.00405804 0.00420069 ) 0 
( -0.012839 0.000458661 0.00612729 ) 0 
( -0.0128073 0.000355723 0.00415633 ) 0 
( -0.0109024 0.00746837 0.00565004 ) 0 
( -0.0106631 0.00508623 0.00224235 ) 0 
( -0.00565956 0.00549545 0.00211789 ) 0 
( -0.00308555 0.00999721 0.000499716 ) 0 
( -0.00536907 0.00314069 0.00391267 ) 0 
( -0.00538517 0.00751714 0.00667719 ) 0 
( -0.0131827 0.00210836 0.00148895 ) 0 
( -0.011393 0.00333809 0.0022027 ) 0 
( -0.00165824 0.0118088 0.00397802 ) 0 
( -0.00745023 0.0054167 0.00728824 ) 0 
( -0.00834202 0.0069409 0.00308774 ) 0 
( -0.0019213 0.000123771 0.00398308 ) 0 
( -0.0011609 0.000772646 0.00400287 ) 0 
( -0.00924755 0.0025677 0.00206011 ) 0 
( -0.00125289 0.0112721 0.00323814 ) 0 
( -0.000636692 0.00975087 0.000499723 ) 0 
( -0.00697841 0.0062851 0.00111838 ) 0 
( -0.0066123 0.0108524 0.00125988 ) 0 
( -1.60069e-05 0.01335 0.00360537 ) 0 
( -0.00633481 0.00730734 0.00269083 ) 0 
( -0.0022354 0.00343381 0.00715681 ) 0 
( -0.00755845 0.00450801 0.00440655 ) 0 
( -0.00190854 0.00378768 0.00186198 ) 0 
( -0.000521992 0.00730177 0.0012265 ) 0 
( -0.0115921 0.00119897 0.00176695 ) 0 
( -0.00726479 0.00858606 0.0062048 ) 0 
( -0.0103934 0.00683112 0.00643771 ) 0 
( -9.29975e-05 0.00443206 0.000879052 ) 0 
( -0.000729787 0.00863819 0.00468002 ) 0 
( -0.0089283 0.00711555 0.0055467 ) 0 
( -0.00415319 0.00237698 0.00202095 ) 0 
( -0.00136325 0.00513584 0.00049974 ) 0 
( -0.0097708 0.00907426 0.00557988 ) 0 
( -0.0102141 0.000391731 0.00539992 ) 0 
( -0.00323545 0.00232472 0.00646251 ) 0 
( -0.00359553 0.00427835 0.00667845 ) 0 
( -0.000368364 0.00134167 0.00422166 ) 0 
( -0.00625933 0.007187 0.00632202 ) 0 
( -0.0108416 0.00771657 0.00669434 ) 0 
( -0.00510707 0.0123347 0.00414223 ) 0 
( -0.00790572 0.000365737 0.00683204 ) 0 
( -0.000972962 0.00402836 0.00603917 ) 0 
( -0.00909943 0.0097685 0.00701585 ) 0 
( -0.00734903 0.00741363 0.00370749 ) 0 
( -0.00722223 0.000161438 0.0051872 ) 0 
( -0.00256183 0.00601368 0.00611974 ) 0 
( -0.00163736 0.0098496 0.00049956 ) 0 
( -0.00210252 0.0121821 0.00167174 ) 0 
( -0.00103007 0.0133105 0.00330147 ) 0 
( -0.00375956 0.00810597 0.00110742 ) 0 
( -0.00398143 0.00285195 0.00598704 ) 0 
( -0.0039657 0.00117669 0.00501131 ) 0 
( -0.00795979 0.000699 0.00127092 ) 0 
( -0.00732639 0.00556332 0.00310055 ) 0 
( -0.00681361 0.0081832 0.00288865 ) 0 
( -0.00438765 0.00215746 0.000499617 ) 0 
( -0.000535025 0.00466441 0.00540417 ) 0 
( -0.00249193 0.0045503 0.00718916 ) 0 
( -0.00285577 0.000810432 0.00588295 ) 0 
( -0.00419554 0.00314404 0.000499642 ) 0 
( -0.00427533 0.00791197 0.00526643 ) 0 
( -0.00474221 0.00076215 0.00117474 ) 0 
( -0.000133334 0.00916154 0.00356229 ) 0 
( -0.00368917 0.0121957 0.00192599 ) 0 
( -0.00558796 0.00301342 0.00488063 ) 0 
( -0.0125515 0.00111957 0.00149678 ) 0 
( -0.00226722 0.0109206 0.0069586 ) 0 
( -0.00548761 0.000334966 0.00416246 ) 0 
( -0.00149717 0.0065406 0.00398172 ) 0 
( -0.000534194 0.00896137 0.00211274 ) 0 
( -0.0098913 0.00895437 0.00459447 ) 0 
( -0.00234203 0.0114448 0.00334597 ) 0 
( -0.00147572 0.00557928 0.0080765 ) 0 
( -0.00377694 0.00782643 0.00304135 ) 0 
( -0.00407889 0.006023 0.00503656 ) 0 
( -0.0022158 0.00681214 0.000968709 ) 0 
( -0.00258775 0.0106407 0.0014484 ) 0 
( -0.00376693 0.0105841 0.00279515 ) 0 
( -0.00212223 0.0103658 0.0055075 ) 0 
( -0.000721766 0.000109984 0.00549813 ) 0 
( -0.00842497 0.0103502 0.00510726 ) 0 
( -0.00586839 0.00499537 0.00502493 ) 0 
( -0.000691739 0.00571941 0.00562993 ) 0 
( -0.00545144 0.0064359 0.00116959 ) 0 
( -0.00226654 0.00648865 0.0052861 ) 0 
( -0.0122509 0.00342592 0.000499673 ) 0 
( -0.00979479 0.00458348 0.00255495 ) 0 
( -0.00376043 0.00947883 0.00361163 ) 0 
( -0.00573138 0.00223063 0.00423097 ) 0 
( -0.0104889 0.00436982 0.000499644 ) 0 
( -0.00325379 0.011361 0.00125638 ) 0 
( -0.00425209 0.00200764 0.00548807 ) 0 
( -0.00514941 0.00315795 0.00800756 ) 0 
( -0.00314065 0.00528406 0.00653875 ) 0 
( -0.0103506 0.00587622 0.00171511 ) 0 
( -0.00888849 0.00541227 0.00655215 ) 0 
( -0.0116694 0.00602364 0.00772562 ) 0 
( -0.0119074 0.00603639 0.00318641 ) 0 
( -0.0054888 0.00479482 0.00705247 ) 0 
( -0.0064593 0.0107375 0.00286938 ) 0 
( -0.000530224 0.000605665 0.00324513 ) 0 
( -0.00142776 0.0043578 0.00286072 ) 0 
( -0.00572953 0.00390491 0.00444959 ) 0 
( -0.0036927 0.00699115 0.00729088 ) 0 
( -0.00811071 0.00457692 0.0072646 ) 0 
( -0.00310365 0.0033231 0.00667305 ) 0 
( -0.00857142 0.0102351 0.00136134 ) 0 
( -0.00724528 0.00885564 0.00716726 ) 0 
( -0.00394979 0.0116644 0.00650061 ) 0 
( -0.0104303 0.00318907 0.00277582 ) 0 
( -0.00981342 0.00313166 0.00621579 ) 0 
( -0.00774769 0.0085327 0.00259233 ) 0 
( -0.0081635 0.00198085 0.00544356 ) 0 
( -0.00821098 0.00136971 0.000499822 ) 0 
( -0.00506055 0.00534135 0.00360352 ) 0 
( -0.0132935 0.00122871 0.00412003 ) 0 
( -0.00697464 0.0104164 0.00598727 ) 0 
( -0.00999365 0.00644598 0.00468174 ) 0 
( -0.0126425 0.00428845 0.000819457 ) 0 
( -0.00282661 0.0110737 0.00545341 ) 0 
( -0.0111216 0.000930123 0.00613732 ) 0 
( -0.0112545 0.00262506 0.00688057 ) 0 
( -0.00331223 0.0107081 0.00464971 ) 0 
( -0.00219209 0.0124584 0.00456726 ) 0 
( -0.00741656 0.00626134 0.00201697 ) 0 
( -0.00294878 0.0130203 0.00194486 ) 0 
( -0.0133212 0.000881037 0.00507832 ) 0 
( -0.0100734 0.00339452 0.00378028 ) 0 
( -0.00509127 0.00661379 0.00636669 ) 0 
( -0.0011464 0.000981744 0.000791833 ) 0 
( -0.00617812 0.00531533 0.00654945 ) 0 
( -7.15812e-05 0.00657147 0.00217086 ) 0 
( -0.00222771 0.00178324 0.00298909 ) 0 
( -0.000915663 0.00133601 0.00593837 ) 0 
( -0.00836849 0.00724215 0.00673336 ) 0 
( -0.00663763 7.32026e-06 0.00662366 ) 0 
( -1.15301e-05 0.0112259 0.0016043 ) 0 
( -0.0113472 0.00240938 0.00183485 ) 0 
( -0.00199662 0.00515479 0.00306444 ) 0 
( -0.00906995 0.0089535 0.00275457 ) 0 
( -0.00260417 0.00512518 0.0020417 ) 0 
( -0.00475159 0.0105898 0.00319129 ) 0 
( -0.0099467 0.00797039 0.00706324 ) 0 
( -0.00631975 0.00326453 0.00362836 ) 0 
( -0.00580949 0.0058199 0.00736125 ) 0 
( -0.00588219 0.0112437 0.00049956 ) 0 
( -0.00197213 0.00866115 0.00368094 ) 0 
( -0.00576524 0.00832956 0.00711771 ) 0 
( -0.00359704 0.00681623 0.00135403 ) 0 
( -0.0013221 0.012051 0.00488782 ) 0 
( -0.00123398 1.66564e-05 0.00135842 ) 0 
( -0.0110881 0.00591415 0.00262619 ) 0 
( -0.0043976 0.00369071 0.00633843 ) 0 
( -0.00747083 0.0110624 0.0025804 ) 0 
( -0.00427133 0.00429854 0.00555473 ) 0 
( -0.00421802 0.0114666 0.00292982 ) 0 
( -0.00969256 0.00309671 0.00133035 ) 0 
( -0.00572166 0.000164244 0.00197548 ) 0 
( -0.00171285 0.00449572 0.00118361 ) 0 
( -0.0059294 0.00237724 0.00557236 ) 0 
( -0.012371 0.00501865 0.00148518 ) 0 
( -0.00223109 0.0123075 0.00285264 ) 0 
( -0.00770814 0.00617761 0.00408958 ) 0 
( -0.00611769 0.0006497 0.00119621 ) 0 
( -0.00549128 0.0121612 0.00644245 ) 0 
( -0.0118757 0.00421083 0.00378143 ) 0 
( -0.00450198 6.5e-05 0.000499607 ) 0 
( -0.000868563 0.00596821 0.0021506 ) 0 
( -0.00687964 0.0047427 0.00274333 ) 0 
( -0.0029334 0.00111406 0.00493038 ) 0 
( -0.00276399 0.00145657 0.00746371 ) 0 
( -0.0048596 0.00550789 0.00736074 ) 0 
( -0.00128516 0.00756556 0.00353953 ) 0 
( -0.01202 0.00384055 0.00281069 ) 0 
( -0.0004162 0.0103225 0.00623957 ) 0 
( -0.00490589 0.00982749 0.00472098 ) 0 
( -0.0015029 0.000512454 0.0072086 ) 0 
( -0.000711739 0.00316817 0.00453607 ) 0 
( -0.00508193 0.00781688 0.00399269 ) 0 
( -0.0101647 0.0034562 0.00507861 ) 0 
( -0.01138 0.00495461 0.00333319 ) 0 
( -0.00709881 0.00566863 0.0063861 ) 0 
( -0.004308 0.00444985 0.00822528 ) 0 
( -0.00615969 0.00436841 0.00337505 ) 0 
( -0.0124968 0.00262746 0.00475655 ) 0 
( -0.000891383 0.000459572 0.00641942 ) 0 
( -0.00902735 0.00447722 0.00687813 ) 0 
( -0.0072258 0.00454993 0.00773338 ) 0 
( -0.00229271 0.0100407 0.00219184 ) 0 
( -0.00500923 0.00977789 0.000992448 ) 0 
( -0.00886334 0.00869707 0.00475489 ) 0 
( -0.00195484 0.0059506 0.00210443 ) 0 
( -0.0042617 0.0060694 0.00135996 ) 0 
( -0.00127725 0.00891702 0.000499822 ) 0 
( -0.00462747 0.0102964 0.00555895 ) 0 
( -0.0123918 0.00151521 0.00667864 ) 0 
( -0.00832449 0.0057229 0.00280788 ) 0 
( -0.00926978 0.00960345 0.00407151 ) 0 
( -0.010971 0.00339169 0.00129786 ) 0 
( -0.0089276 0.00409469 0.0014437 ) 0 
( -0.00220936 0.00337154 0.00505708 ) 0 
( -0.00536917 0.00365944 0.00167715 ) 0 
( -0.0071586 0.00804989 0.00175197 ) 0 
( -0.00790519 0.0049127 0.00217628 ) 0 
( -0.00876007 0.00770819 0.00464725 ) 0 
( -0.0125344 0.00147416 0.00524705 ) 0 
( -0.000413281 0.00955544 0.00443902 ) 0 
( -0.000742586 0.00620871 0.00833557 ) 0 
( -0.0068732 0.00316507 0.00142289 ) 0 
( -0.000986925 0.0131466 0.00207682 ) 0 
( -0.00498217 0.00686097 0.00426862 ) 0 
( -0.000164102 0.00636891 0.00119394 ) 0 
( -0.00689376 0.00111034 0.00354042 ) 0 
( -0.00169984 0.00874852 0.00513741 ) 0 
( -0.00366195 0.00382371 0.00378879 ) 0 
( -0.00392457 0.0109954 0.0057578 ) 0 
( -0.00645524 0.00150482 0.00771537 ) 0 
( -0.00711912 0.00607755 0.00501949 ) 0 
( -0.00692054 0.0113767 0.00392693 ) 0 
( -0.0031237 0.000475932 0.00827921 ) 0 
( -0.0086403 0.00874365 0.00377222 ) 0 
( -0.00418024 0.00891159 0.00451417 ) 0 
( -0.00668693 0.00217154 0.00495258 ) 0 
( -0.00554656 0.00721845 0.00178439 ) 0 
( -0.0107187 0.00795445 0.00449798 ) 0 
( -0.00811897 0.00644879 0.00496041 ) 0 
( -0.00605024 0.00324966 0.0004997 ) 0 
( -0.000651845 0.00981162 0.00300688 ) 0 
( -0.0032335 0.0129522 0.00640159 ) 0 
( -0.00448435 0.0017568 0.00433032 ) 0 
( -0.00638546 0.00783597 0.000499772 ) 0 
( -0.00783546 0.00543537 0.00474732 ) 0 
( -0.00510484 0.00142401 0.000499855 ) 0 
( -0.0081375 8.40573e-05 0.000499788 ) 0 
( -0.00190941 0.0025721 0.00359972 ) 0 
( -0.00227919 0.00997665 0.00728877 ) 0 
( -0.0053622 0.00736276 0.00568959 ) 0 
( -0.00361862 0.00282349 0.00396769 ) 0 
( -0.00732449 0.00708543 0.00524923 ) 0 
( -0.00394125 0.00691438 0.0034169 ) 0 
( -0.00744243 0.00477907 0.000499706 ) 0 
( -0.0127838 0.00159583 0.00252038 ) 0 
( -0.000999553 0.00946879 0.00138761 ) 0 
( -5.7052e-05 0.0026249 0.00400136 ) 0 
( -0.00740284 0.0081381 0.000499859 ) 0 
( -0.00672493 0.0040129 0.00415347 ) 0 
( -0.00281229 0.0121819 0.00383327 ) 0 
( -0.00470555 0.00889486 0.00134903 ) 0 
( -0.00660641 0.00459165 0.00600557 ) 0 
( -0.00522805 0.0107499 0.00107186 ) 0 
( -0.00413509 0.0011809 0.000499694 ) 0 
( -0.00897422 0.0030075 0.00519787 ) 0 
( -0.000757237 0.00635963 0.00732469 ) 0 
( -0.00210059 0.0110331 0.0022284 ) 0 
( -0.0067829 0.0102653 0.00370171 ) 0 
( -0.00958838 0.000125367 0.00466702 ) 0 
( -0.00124576 0.00813677 0.00704167 ) 0 
( -0.00303117 0.00910865 0.00432201 ) 0 
( -0.00997753 0.00394786 0.00676949 ) 0 
( -0.00727003 0.00444308 0.00674024 ) 0 
( -0.000767344 0.00597662 0.000499783 ) 0 
( -0.0113865 0.00693539 0.00634381 ) 0 
( -0.000831986 0.00719098 0.00434839 ) 0 
( -0.00987376 0.00250662 0.000499761 ) 0 
( -0.00615961 0.0118444 0.00576965 ) 0 
( -0.00238201 0.00485711 0.000499686 ) 0 
( -0.00802224 0.00137916 0.00820896 ) 0 
( -0.0119533 0.00321164 0.00647118 ) 0 
( -0.00265887 0.00709658 0.00600304 ) 0 
( -0.00320209 0.00739701 0.00417827 ) 0 
( -0.000539564 0.0133392 0.00120365 ) 0 
( -0.00676938 0.00586373 0.00394717 ) 0 
( -0.00279847 0.004156 0.00524999 ) 0 
( -0.00415383 0.00907538 0.00686695 ) 0 
( -0.00110992 0.00620517 0.006402 ) 0 
( -0.00664385 0.00869767 0.004796 ) 0 
( -0.00288516 0.0096862 0.00145295 ) 0 
( -0.00377198 0.0109632 0.000499721 ) 0 
( -0.00611684 0.00976068 0.00134041 ) 0 
( -0.00222145 0.00228856 0.007578 ) 0 
( -0.00434761 0.00466195 0.00721468 ) 0 
( -0.000428135 0.00632695 0.00400635 ) 0 
( -0.00565043 0.00439052 0.00579251 ) 0 
( -0.00187191 0.0106184 0.00367339 ) 0 
( -0.00826121 0.00728909 0.00191293 ) 0 
( -0.000289621 0.0106153 0.000862948 ) 0 
( -0.00858393 0.00614222 0.000499753 ) 0 
( -0.00821076 0.00370581 0.00544261 ) 0 
( -0.00412738 0.00777331 0.0042873 ) 0 
( -0.00590201 0.00127724 0.00194414 ) 0 
( -0.00351098 0.00388239 0.0028015 ) 0 
( -0.00647524 0.00636814 0.00685518 ) 0 
( -0.00449424 0.00641247 0.00714291 ) 0 
( -0.00283329 0.0083218 0.00638591 ) 0 
( -0.00459469 0.00696782 0.005185 ) 0 
( -0.00341598 0.00479123 0.00571351 ) 0 
( -0.00335923 0.0119345 0.00574036 ) 0 
( -0.012471 0.000363349 0.00520267 ) 0 
( -0.0113495 0.00385967 0.00049964 ) 0 
( -0.00619113 0.00458579 0.000499765 ) 0 
( -0.00252058 0.000302145 0.00667972 ) 0 
( -0.00808923 0.00672201 0.00592179 ) 0 
( -0.000341846 0.0117026 0.0026434 ) 0 
( -0.000710304 0.0129317 0.00419079 ) 0 
( -0.00810829 0.00768492 0.00565323 ) 0 
( -0.00512614 0.00365442 0.000499863 ) 0 
( -0.00418415 0.00200938 0.00648557 ) 0 
( -0.00794708 0.00372171 0.00775529 ) 0 
( -0.00220403 0.000686866 0.00148283 ) 0 
( -0.00620627 0.00419551 0.00218885 ) 0 
( -0.00915096 0.00972026 0.000499859 ) 0 
( -0.00668778 0.00215313 0.00394963 ) 0 
( -0.0115591 0.00174722 0.00469769 ) 0 
( -0.00861597 0.00419995 0.00049968 ) 0 
( -0.00169587 0.00190765 0.00619203 ) 0 
( -0.0063562 0.00500019 0.00753163 ) 0 
( -0.0074281 0.00655252 0.00320541 ) 0 
( -0.00968775 0.00100978 0.000499587 ) 0 
( -0.00744072 0.010139 0.0051472 ) 0 
( -0.00373154 0.00417657 0.00472188 ) 0 
( -0.00348455 0.00574557 0.00420674 ) 0 
( -0.00695265 0.0113967 0.00618224 ) 0 
( -0.00579958 0.0120248 0.00215845 ) 0 
( -0.0060475 0.00815889 0.00617376 ) 0 
( -0.00274049 0.00579562 0.00049978 ) 0 
( -0.00803806 0.0069907 0.000499647 ) 0 
( -0.00315672 0.00335866 0.0047377 ) 0 
( -0.00554175 0.00569948 0.000499552 ) 0 
( -0.00720228 0.00117059 0.00205906 ) 0 
( -0.00388092 0.00554407 0.00715842 ) 0 
( -0.00278083 0.00997007 0.00614738 ) 0 
( -0.00334247 0.0045714 0.00049972 ) 0 
( -0.00174622 0.0132329 0.00698356 ) 0 
( -0.00271959 0.0024468 0.00440628 ) 0 
( -0.00500377 0.00841879 0.00479453 ) 0 
( -0.00418997 0.00532318 0.00605644 ) 0 
( -0.00693116 0.00489555 0.00373118 ) 0 
( -0.000142013 0.00293859 0.00776814 ) 0 
( -0.00270115 0.00432336 0.00623303 ) 0 
( -0.00504498 0.00544787 0.00132972 ) 0 
( -0.00258674 0.00156168 0.0064855 ) 0 
( -0.00259905 0.0115806 0.00628478 ) 0 
( -0.0026795 0.00931378 0.00340862 ) 0 
( -0.00306956 0.00558987 0.00327905 ) 0 
( -0.00310195 0.0121179 0.0069613 ) 0 
( -0.010047 0.00472442 0.00520559 ) 0 
( -0.00818673 0.00705305 0.00415544 ) 0 
( -0.000822122 0.00188127 0.000499666 ) 0 
( -0.00114315 0.00390424 0.00506147 ) 0 
( -0.0126266 0.000122583 0.00149451 ) 0 
( -0.0100487 0.0087894 0.00209379 ) 0 
( -0.0101973 0.0023154 0.00224447 ) 0 
( -0.00471273 0.0097544 0.00374264 ) 0 
( -0.0122112 0.00242688 0.000499904 ) 0 
( -0.0102201 0.00267254 0.00445626 ) 0 
( -0.00402449 0.000338266 0.00568142 ) 0 
( -0.0032046 0.0111602 0.00376384 ) 0 
( -0.000421564 5.77e-05 0.00454581 ) 0 
( -0.00140118 0.0034794 0.00105744 ) 0 
( -0.00743358 0.00270984 0.00431523 ) 0 
( -0.00721772 0.00255612 0.00213756 ) 0 
( -0.00752451 0.00110824 0.00738247 ) 0 
( -0.00431047 0.0106693 0.00468743 ) 0 
( -0.0109059 1.13651e-05 0.00478623 ) 0 
( -0.0126086 0.0011625 0.000499654 ) 0 
( -0.00313749 0.0020485 0.00817718 ) 0 
( -0.00565985 0.00917084 0.00473217 ) 0 
( -0.0065519 0.0116318 0.0048672 ) 0 
( -0.00472588 0.000241451 0.00202812 ) 0 
( -0.00211725 0.00547353 0.0012409 ) 0 
( -0.00957028 0.00108574 0.0050779 ) 0 
( -0.00414973 0.00337686 0.00515277 ) 0 
( -0.00511747 0.00956682 0.001964 ) 0 
( -0.00587361 0.010244 0.000499706 ) 0 
( -0.0105012 0.00250948 0.00131192 ) 0 
( -0.00161967 0.00256515 0.00148248 ) 0 
( -0.0091228 0.00504495 0.00120201 ) 0 
( -0.00228527 0.00258979 0.00662359 ) 0 
( -0.00234192 0.00507795 0.00802516 ) 0 
( -0.00387779 0.0127747 0.000946627 ) 0 
( -0.00314795 0.00459989 0.00339591 ) 0 
( -0.00233323 0.00666418 0.00684389 ) 0 
( -0.00219967 0.00288236 0.00223265 ) 0 
( -0.00442725 0.000437973 0.00659113 ) 0 
( -0.013333 0.000676157 0.00193515 ) 0 
( -0.0133368 0.000597279 0.00088705 ) 0 
( -7.35203e-06 0.00340863 0.00319552 ) 0 
( -0.0121866 0.00204801 0.00142986 ) 0 
( -0.010823 0.00433079 0.00160711 ) 0 
( -0.00602179 0.00924486 0.0038029 ) 0 
( -0.00990951 0.00406982 0.00125699 ) 0 
( -0.00920299 0.00481233 0.00453284 ) 0 
( -0.004905 0.00600104 0.00559928 ) 0 
( -0.000671957 0.00690159 0.00583396 ) 0 
( -0.0114633 0.00568509 0.00401079 ) 0 
( -0.00475586 0.00960921 0.00627354 ) 0 
( -0.00419091 0.00850168 0.00211069 ) 0 
( -0.00793982 0.0106688 0.00592139 ) 0 
( -0.00334688 0.00421597 0.0084198 ) 0 
( -0.00565436 0.00825495 0.00326437 ) 0 
( -0.0118204 0.000707979 0.000926424 ) 0 
( -0.00231629 0.00341888 0.00605018 ) 0 
( -0.00757451 0.000239841 0.00357312 ) 0 
( -0.0117648 0.0052802 0.00626186 ) 0 
( -0.00254466 0.0115231 0.00453753 ) 0 
( -0.000672361 0.00283451 0.0016554 ) 0 
( -0.0105373 0.00812572 0.00352975 ) 0 
( -0.00702679 0.00706882 0.00049952 ) 0 
( -0.00187467 0.0112987 0.00524608 ) 0 
( -0.000285683 0.005446 0.00475817 ) 0 
( -0.00443667 0.00322926 0.00356022 ) 0 
( -0.00134812 0.00964581 0.00482254 ) 0 
( -0.00627479 0.000687456 0.00287863 ) 0 
( -0.00610318 0.00136682 0.0004997 ) 0 
( -0.00487779 0.00036458 0.00846363 ) 0 
( -0.00129587 0.00582311 0.00331431 ) 0 
( -0.00940707 0.00354589 0.00748533 ) 0 
( -0.00336298 0.00916809 0.00526345 ) 0 
( -0.00331061 0.00120362 0.00337309 ) 0 
( -0.0121215 0.00269616 0.0025178 ) 0 
( -0.00407821 0.0110926 0.00175393 ) 0 
( -0.0015675 0.0127124 0.00559599 ) 0 
( -0.00679325 0.00773536 0.00456704 ) 0 
( -0.00649183 0.00205224 0.00166948 ) 0 
( -0.000984936 0.0133118 0.00615371 ) 0 
( -0.00254231 0.00572999 0.00729404 ) 0 
( -0.00389514 0.0101153 0.00639058 ) 0 
( -0.00526343 0.0015736 0.00780397 ) 0 
( -0.00601338 0.0118826 0.0040477 ) 0 
( -0.00980877 0.00169255 0.00738647 ) 0 
( -0.00570102 0.00471219 0.00149764 ) 0 
( -0.00304252 0.00286489 0.00564352 ) 0 
( -0.00778516 0.0108452 0.0014955 ) 0 
( -0.0106932 0.005727 0.00472552 ) 0 
( -0.00449176 0.00841298 0.000499649 ) 0 
( -0.011654 0.00164734 0.00568816 ) 0 
( -0.00640065 0.00997897 0.00525467 ) 0 
( -0.00190262 0.00434343 0.00452694 ) 0 
( -0.00147629 0.0115708 0.00714226 ) 0 
( -0.00247751 0.00220986 0.00100947 ) 0 
( -0.00912188 0.00183428 0.000499553 ) 0 
( -0.00219678 0.00838289 0.00722764 ) 0 
( -0.0030443 0.00652639 0.00362851 ) 0 
( -0.00983426 0.00902872 0.00091118 ) 0 
( -0.00074303 0.00938101 0.00631883 ) 0 
( -0.00476075 0.0106445 0.00648634 ) 0 
( -0.00372287 0.00979968 0.00455791 ) 0 
( -0.00115851 0.0106013 0.00563087 ) 0 
( -0.00840841 0.00122456 0.00692652 ) 0 
( -0.00857399 0.00566435 0.00176296 ) 0 
( -0.00215632 0.00513383 0.0064474 ) 0 
( -0.0119979 0.000874314 0.00448533 ) 0 
( -0.00688287 0.00961728 0.00445658 ) 0 
( -0.0105146 0.00118697 0.00689078 ) 0 
( -0.00246729 0.0024805 0.00878008 ) 0 
( -0.00546289 0.000559127 0.00527712 ) 0 
( -0.00807512 0.00574412 0.00566865 ) 0 
( -0.00591387 0.00286379 0.00141189 ) 0 
( -0.00746907 0.00486821 0.00557805 ) 0 
( -0.00972557 0.00172082 0.00414768 ) 0 
( -0.00821951 0.00345678 0.0044744 ) 0 
( -0.00682633 0.0100098 0.00200637 ) 0 
( -0.00134481 0.0116697 0.00207555 ) 0 
( -0.00396213 0.00203405 0.00345925 ) 0 
( -0.00801357 0.00217157 0.00370387 ) 0 
( -0.00325833 0.00816041 0.00199483 ) 0 
( -0.00860401 0.00294879 0.00707359 ) 0 
( -0.00136702 0.00113161 0.00803228 ) 0 
( -0.0009917 0.00420747 0.000499845 ) 0 
( -0.00154676 0.00466116 0.00846522 ) 0 
( -0.0118338 0.00617091 0.00575142 ) 0 
( -0.00212539 0.00138696 0.00545284 ) 0 
( -0.00394551 0.0104889 0.00377433 ) 0 
( -0.00949688 0.00712402 0.00677406 ) 0 
( -0.00666097 0.000969024 0.00689642 ) 0 
( -0.00592905 0.0050918 0.00403154 ) 0 
( -0.00902531 0.00200755 0.00685141 ) 0 
( -0.0113517 0.000856902 0.00297414 ) 0 
( -0.000113056 0.00616428 0.00631315 ) 0 
( -0.00918106 0.00359772 0.00418341 ) 0 
( -0.00406994 0.00659135 0.00220574 ) 0 
( -0.00130143 0.00633467 0.00507061 ) 0 
( -0.0122532 0.00228169 0.00343283 ) 0 
( -0.00894722 0.0036029 0.0063996 ) 0 
( -0.00513569 0.00920167 0.00729976 ) 0 
( -0.0012521 0.0121306 0.00634528 ) 0 
( -0.0107289 0.0065638 0.00109583 ) 0 
( -0.00642469 0.0064515 0.0019341 ) 0 
( -0.00813304 0.009981 0.000499587 ) 0 
( -0.00881411 0.00573212 0.00458345 ) 0 
( -0.000861878 0.00848233 0.00129856 ) 0 
( -0.00825231 0.00529229 0.00371827 ) 0 
( -0.00765264 0.00284799 0.0073693 ) 0 
( -0.00428327 0.0118901 0.00118209 ) 0 
( -0.00109844 0.00775963 0.00612654 ) 0 
( -0.0122394 0.00533098 0.00726731 ) 0 
( -0.0123068 0.00517421 0.000499631 ) 0 
( -0.0102063 0.00642066 0.00276964 ) 0 
( -0.01231 0.00515198 0.00395827 ) 0 
( -0.0077112 0.0108978 0.000499786 ) 0 
( -0.0112613 0.00536827 0.00136175 ) 0 
( -0.00300892 0.00242595 0.0018284 ) 0 
( -0.00998701 0.00422739 0.00432619 ) 0 
( -0.0106228 0.00589454 0.00351109 ) 0 
( -0.000360907 0.00851931 0.0066607 ) 0 
( -0.00175933 0.00384009 0.00793619 ) 0 
( -0.00762854 0.00584472 0.000499648 ) 0 
( -0.00585427 0.00807955 0.00519597 ) 0 
( -0.00247927 0.00507385 0.00550306 ) 0 
( -0.00174558 7.05207e-06 0.000499655 ) 0 
( -0.00676505 0.00796768 0.00684327 ) 0 
( -0.0112427 0.00285391 0.000499838 ) 0 
( -0.000100255 0.0125514 0.00163805 ) 0 
( -0.00523074 0.00714573 0.000499685 ) 0 
( -0.00543814 0.00810935 0.000667554 ) 0 
( -0.0102509 0.00245705 0.00347694 ) 0 
( -0.000145807 0.00381549 0.00504663 ) 0 
( -0.0081578 0.0092958 0.00309174 ) 0 
( -0.00683675 0.00514004 0.00469629 ) 0 
( -0.00894827 0.00765616 0.00127669 ) 0 
( -0.00635468 0.0117124 0.00312341 ) 0 
( -0.00322483 0.00178199 0.000499719 ) 0 
( -0.00564422 0.012098 0.00495157 ) 0 
( -0.0017538 0.00858036 0.0061216 ) 0 
( -0.00221912 0.00340539 0.00405768 ) 0 
( -0.000347271 0.00326917 0.00586152 ) 0 
( -0.00749809 0.0100116 0.00286191 ) 0 
( -0.00691919 0.00376922 0.00298772 ) 0 
( -0.00517957 0.00856156 0.00224778 ) 0 
( -0.0117766 0.00423122 0.00132366 ) 0 
( -0.000144146 0.00739428 0.00309135 ) 0 
( -0.00686004 0.0114528 0.000499827 ) 0 
( -0.00196455 0.00164243 0.00165349 ) 0 
( -0.00432707 0.00535693 0.000499861 ) 0 
( -0.0118502 0.00614845 0.00675051 ) 0 
( -0.00138678 0.00483092 0.00382263 ) 0 
( -0.00135315 0.00705339 0.00689078 ) 0 
( -0.00458989 0.00382378 0.00434946 ) 0 
( -0.000498645 0.00447854 0.00679562 ) 0 
( -0.00682078 0.00932938 0.00313718 ) 0 
( -0.00917023 0.0062361 0.00266073 ) 0 
( -0.00481571 0.000608998 0.00749634 ) 0 
( -0.0048919 0.00792936 0.00152843 ) 0 
( -0.000642504 0.00525644 0.00118221 ) 0 
( -0.000153081 0.0079515 0.00586425 ) 0 
( -0.00788397 0.00332386 0.00280266 ) 0 
( -0.00772264 0.00265732 0.00128054 ) 0 
( -0.00696151 0.0036486 0.00738551 ) 0 
( -0.00113219 0.00690788 0.000499879 ) 0 
( -0.00191493 0.00842917 0.00178692 ) 0 