/*--------------------------------*- C++ -*----------------------------------*\
| =========                 |                                                 |
| \\      /  F ield         | OpenFOAM: The Open Source CFD Toolbox           |
|  \\    /   O peration     | Version:  2506                                  |
|   \\  /    A nd           | Website:  www.openfoam.com                      |
|    \\/     M anipulation  |                                                 |
\*---------------------------------------------------------------------------*/
FoamFile
{
    version     2.0;
    format      ascii;
    arch        "LSB;label=32;scalar=64";
    class       volScalarField;
    location    "0.08";
    object      Ksl;
}
// * * * * * * * * * * * * * * * * * * * * * * * * * * * * * * * * * * * * * //

dimensions      [1 -3 -1 0 0 0 0];

internalField   nonuniform List<scalar> 
1152
(
145496
185181
200581
206903
182525
142216
142682
187452
152431
248828
220753
202696
173740
75540.3
194551
102731
236939
141596
259848
167484
181693
201591
172628
201121
210871
145118
237531
271822
162055
188812
220550
163635
199195
175914
227821
287750
264695
213034
252259
286264
284286
147890
273367
155608
195087
364318
323577
172186
135036
205132
228995
137848
247125
241071
224496
325792
165655
273173
289633
233412
240131
259977
318144
420945
232203
232661
259397
248702
225768
241886
134144
121445
261811
242491
374442
288912
230283
263544
320392
262786
207251
258521
248204
219526
142544
290095
210670
245031
174813
354406
234833
179548
405898
180859
204412
148011
46715.7
55397.6
52091.2
60167
88822.5
43857.7
121897
92561.5
55571.4
79253.8
90336.3
103724
32228.6
48443.9
68683.3
79117
0
0
0
0
0
0
0
0
0
0
0
0
0
0
0
0
0
0
0
0
0
0
0
0
0
0
0
0
0
0
0
0
0
0
0
0
0
0
0
0
0
0
0
0
0
0
0
0
0
0
0
0
0
0
0
0
0
0
0
0
0
0
0
0
0
0
0
0
0
0
0
0
0
0
0
0
0
0
0
0
0
0
0
0
0
0
0
0
0
0
0
0
0
0
0
0
0
0
0
0
0
0
0
0
0
0
0
0
0
0
0
0
0
0
0
0
0
0
0
0
0
0
0
0
0
0
0
0
0
0
0
0
0
0
0
0
0
0
0
0
0
0
0
0
0
0
0
0
0
0
0
0
0
0
0
0
0
0
0
0
0
0
0
0
0
0
0
0
0
0
0
0
0
0
0
0
0
0
0
0
0
0
0
0
0
0
0
0
0
0
0
0
0
0
0
0
0
0
0
0
0
0
0
0
0
0
0
0
0
0
0
0
0
0
0
0
0
0
0
0
0
0
0
0
0
0
0
0
0
0
0
0
0
0
0
0
0
0
0
0
0
0
0
0
0
0
0
0
0
0
0
0
0
0
0
0
0
0
0
0
0
0
0
0
0
0
0
0
0
0
0
0
201883
127045
130518
199505
170222
224494
196788
258485
197394
199918
129516
241661
158220
189890
268238
151550
167383
232125
166704
93835.5
180259
99128
188368
244879
155303
229420
221391
257181
124290
226940
339144
162561
173775
304398
270215
280652
227245
244889
232420
191918
222331
186356
243195
305771
323176
184061
182775
189297
254015
200505
146842
362154
179406
177304
223691
156943
275115
179020
213724
359700
267965
438617
222454
211944
210235
190251
186021
218842
260145
144253
449540
179764
184913
284994
214500
290070
145946
223950
229304
320234
66953.6
218480
262269
160866
240885
328202
274738
314146
210469
195895
218774
251842
217180
213213
265665
194636
119377
54910.9
37357.9
31211.4
122230
75094.5
98292.8
54672.3
142498
76562.7
83619.9
74157.8
84835
102985
81029
106948
0
0
0
0
0
0
0
0
0
0
0
0
0
0
1760
0
0
0
0
0
0
0
0
0
0
0
0
0
0
0
0
0
0
0
0
0
0
0
0
0
0
0
0
0
0
0
0
0
0
0
0
0
0
0
0
0
0
0
0
0
0
0
0
0
0
0
0
0
0
0
0
0
0
0
0
0
0
0
0
0
0
0
0
0
0
0
0
0
0
0
0
0
0
0
0
0
0
0
0
0
0
0
0
0
0
0
0
0
0
0
0
0
0
0
0
0
0
0
0
0
0
0
0
0
0
0
0
0
0
0
0
0
0
0
0
0
0
0
0
0
0
0
0
0
0
0
0
0
0
0
0
0
0
0
0
0
0
0
0
0
0
0
0
0
0
0
0
0
0
0
0
0
0
0
0
0
0
0
0
0
0
0
0
0
0
0
0
0
0
0
0
0
0
0
0
0
0
0
0
0
0
0
0
0
0
0
0
0
0
0
0
0
0
0
0
0
0
0
0
0
0
0
0
0
0
0
0
0
0
0
0
0
0
0
0
0
0
0
0
0
0
0
0
0
0
0
0
0
0
0
0
0
0
0
0
0
0
0
0
0
0
0
0
0
0
0
0
0
0
0
0
0
175011
174519
203132
213914
171597
163327
188629
127760
152245
255312
157989
215908
195821
219230
160002
292391
137514
238926
176585
154429
183493
168140
158191
184942
163207
222069
196217
174056
285621
199662
131014
213220
244939
191897
221118
245913
246403
243693
190264
208133
173387
197125
309317
283320
213781
448296
233444
199011
180207
233163
214194
256602
209681
160712
274171
179124
203634
289760
307091
206534
352044
195218
185345
210751
187684
203208
219238
216439
320105
276344
149494
371732
195678
201680
242099
430080
193445
288992
295776
309961
211717
269018
253683
212008
325601
212206
203311
260100
117858
369524
278437
265403
332996
167837
147342
283826
35952.9
50099.7
58055.3
57901.1
90121.5
39283
32688.7
37156.8
77968.3
48447.6
53938.1
54325.1
52644.9
23907.1
36851.5
44750.8
0
0
0
0
0
0
0
0
0
0
0
0
0
0
0
0
0
0
0
0
0
0
0
0
0
0
0
0
0
0
0
0
0
0
0
0
0
0
0
0
0
0
0
0
0
0
0
0
0
0
0
0
0
0
0
0
0
0
0
0
0
0
0
0
0
0
0
0
0
0
0
0
0
0
0
0
0
0
0
0
0
0
0
0
0
0
0
0
0
0
0
0
0
0
0
0
0
0
0
0
0
0
0
0
0
0
0
0
0
0
0
0
0
0
0
0
0
0
0
0
0
0
0
0
0
0
0
0
0
0
0
0
0
0
0
0
0
0
0
0
0
0
0
0
0
0
0
0
0
0
0
0
0
0
0
0
0
0
0
0
0
0
0
0
0
0
0
0
0
0
0
0
0
0
0
0
0
0
0
0
0
0
0
0
0
0
0
0
0
0
0
0
0
0
0
0
0
0
0
0
0
0
0
0
0
0
0
0
0
0
0
0
0
0
0
0
0
0
0
0
0
0
0
0
0
0
0
0
0
0
0
0
0
0
0
0
0
0
0
0
0
0
0
0
0
0
0
0
0
0
0
0
0
0
0
0
0
0
0
0
0
0
0
0
0
0
0
0
0
0
0
0
)
;

boundaryField
{
    inlet
    {
        type            zeroGradient;
    }
    outlet
    {
        type            zeroGradient;
    }
    wall
    {
        type            zeroGradient;
    }
    procBoundary0to1
    {
        type            processor;
        value           nonuniform List<scalar> 
192
(
141032
111539
166730
138683
432457
242147
218127
249656
210841
211966
298542
203036
290538
263775
263516
207447
244699
408507
160199
348266
206263
189386
277610
323959
55966.4
146289
109249
239575
0
0
0
0
0
0
0
0
0
0
0
0
0
0
0
0
0
0
0
0
0
0
0
0
0
0
0
0
0
0
0
0
0
0
0
0
0
0
0
0
0
0
0
0
0
0
0
0
0
0
0
0
0
0
0
0
0
0
0
0
0
0
0
0
0
0
0
0
169691
297844
157602
125959
158006
209866
171454
205781
197772
176938
217146
331510
197422
301646
219483
299607
208935
200836
132853
232732
208014
178017
248211
159627
63496.9
55783
55722.5
41667.7
0
0
0
0
0
0
0
0
0
0
0
0
0
0
0
0
0
0
0
0
0
0
0
0
0
0
0
0
0
0
0
0
0
0
0
0
0
0
0
0
0
0
0
0
0
0
0
0
0
0
0
0
0
0
0
0
0
0
0
0
0
0
0
0
0
0
0
0
)
;
    }
    procBoundary0to2
    {
        type            processor;
        value           nonuniform List<scalar> 
192
(
132180
275979
330271
153371
233094
243819
145846
159269
556699
157621
242561
266872
167767
207977
192350
175201
309036
275645
122918
281525
176153
276809
247558
229447
56456.2
45065.3
62966.4
86236.5
0
0
0
0
0
0
0
0
0
0
0
0
0
0
0
0
0
0
0
0
0
0
0
0
0
0
0
0
0
0
0
0
0
0
0
0
0
0
0
0
0
0
0
0
0
0
0
0
0
0
0
0
0
0
0
0
0
0
0
0
0
0
0
0
0
0
0
0
230051
133567
144880
233452
204006
174318
112649
281651
157395
253546
205969
258156
203037
119143
194146
306185
189977
186215
203984
207156
280575
208420
204930
234326
71657.2
71197.1
62434.1
105170
0
0
0
0
0
0
0
0
0
0
0
0
0
0
0
0
0
0
0
0
0
0
0
0
0
0
0
0
0
0
0
0
0
0
0
0
0
0
0
0
0
0
0
0
0
0
0
0
0
0
0
0
0
0
0
0
0
0
0
0
0
0
0
0
0
0
0
0
)
;
    }
}


// ************************************************************************* //
