/*--------------------------------*- C++ -*----------------------------------*\
| =========                 |                                                 |
| \\      /  F ield         | OpenFOAM: The Open Source CFD Toolbox           |
|  \\    /   O peration     | Version:  2506                                  |
|   \\  /    A nd           | Website:  www.openfoam.com                      |
|    \\/     M anipulation  |                                                 |
\*---------------------------------------------------------------------------*/
FoamFile
{
    version     2.0;
    format      ascii;
    arch        "LSB;label=32;scalar=64";
    class       surfaceScalarField;
    location    "0.08";
    object      phi;
}
// * * * * * * * * * * * * * * * * * * * * * * * * * * * * * * * * * * * * * //

dimensions      [0 3 -1 0 0 0 0];

oriented        oriented;

internalField   nonuniform List<scalar> 
3120
(
-5.80899e-10
-3.59281e-09
4.83016e-08
6.46172e-09
-1.05039e-09
-5.2226e-09
-1.40073e-09
5.93608e-08
-3.47322e-09
-1.07622e-09
2.02303e-09
3.81805e-08
5.98566e-09
-4.6303e-12
4.7335e-08
-1.47176e-09
2.65056e-09
-1.46084e-09
4.87044e-08
-3.96958e-09
-3.70886e-09
-1.13544e-09
5.49839e-08
-3.29332e-09
-5.29743e-09
5.71607e-08
-9.4974e-10
4.3636e-08
1.58911e-09
1.9497e-09
5.0356e-08
-5.01402e-09
-4.76521e-09
5.35782e-09
4.97223e-08
8.66823e-10
4.3355e-09
3.36532e-08
1.20581e-08
3.58276e-08
5.49586e-09
5.14595e-08
-3.17396e-09
-1.11877e-08
8.69038e-08
4.94608e-09
3.84507e-08
7.30631e-08
1.68418e-09
-3.8028e-09
4.64844e-08
1.56139e-10
3.77971e-09
-1.50866e-09
-5.27996e-09
6.73957e-08
4.37985e-10
-2.21549e-09
-3.59995e-09
4.09555e-08
1.53186e-09
-2.89053e-09
5.09427e-08
3.09794e-09
-1.58329e-09
-4.74248e-09
4.74565e-08
3.7709e-09
-2.02311e-09
8.21152e-10
4.93226e-08
1.16235e-09
1.69798e-09
4.86774e-08
3.53172e-09
4.08709e-08
3.05973e-09
-1.47834e-09
4.21974e-08
1.83473e-09
-1.35423e-09
-1.5646e-08
7.06034e-08
1.90664e-09
-2.66348e-09
3.47538e-08
-6.38567e-09
5.17052e-08
-1.0186e-08
5.81428e-08
4.81616e-09
6.14295e-09
4.18314e-08
6.27024e-10
3.46296e-08
6.28241e-08
-4.95351e-09
-5.05183e-09
7.0812e-08
-1.09587e-08
-3.36347e-09
3.74299e-09
-2.06407e-09
6.11139e-08
-3.50592e-10
3.89315e-09
-1.46045e-09
4.71361e-08
-4.87029e-09
-2.97134e-09
6.40841e-08
-4.19056e-09
-1.38191e-09
7.75003e-11
4.12878e-08
2.42132e-09
1.24279e-09
-3.89805e-09
4.85319e-08
1.28454e-09
-9.84743e-10
4.816e-08
1.3623e-09
3.55517e-08
-4.35777e-09
-3.99573e-09
5.28021e-08
-2.17363e-09
3.58166e-09
-1.28925e-09
6.00553e-08
3.63672e-09
-1.75652e-09
3.54705e-08
-5.50571e-09
6.03269e-08
9.12176e-11
5.03284e-08
-1.04849e-09
1.42077e-09
3.35986e-08
1.67216e-09
3.07354e-08
4.76527e-08
-2.75483e-09
3.05716e-10
6.91844e-08
3.30753e-09
7.69224e-10
3.99843e-09
5.70702e-10
5.13437e-08
2.44634e-09
3.86736e-09
6.28372e-09
4.36782e-08
-2.69473e-09
1.14991e-08
6.5761e-08
-7.45799e-09
4.29401e-11
-2.6623e-09
4.68687e-08
-2.65574e-09
8.69022e-09
-4.02514e-09
4.44805e-08
3.59289e-09
-7.01013e-09
6.65512e-08
-9.74753e-09
6.74263e-08
-3.98772e-09
-1.96175e-09
5.74502e-08
-1.36086e-09
4.40476e-09
4.49839e-09
4.31393e-08
1.49686e-10
1.90315e-09
3.08124e-08
-4.20686e-10
4.36223e-08
4.19135e-09
4.559e-08
-5.3237e-09
2.65022e-09
4.1351e-08
-1.13289e-09
3.15526e-08
3.52463e-08
9.41788e-10
4.87174e-09
5.38222e-08
3.41582e-09
6.13289e-09
1.61666e-09
1.03263e-09
4.53126e-08
4.32362e-09
-1.91274e-09
1.20478e-09
4.34357e-08
2.56717e-09
8.15844e-09
4.8407e-08
8.07777e-10
-2.14734e-09
-3.02288e-09
6.66248e-08
-9.71414e-09
2.06285e-09
-9.99994e-11
4.1403e-08
1.03709e-09
2.86492e-09
6.59169e-08
3.73169e-09
7.03276e-08
6.64336e-10
-1.69388e-09
5.61636e-08
-7.06702e-10
2.53892e-09
3.64567e-09
3.7519e-08
4.55331e-10
1.5126e-09
3.42483e-08
4.34782e-09
4.60388e-08
6.37499e-09
3.83681e-08
-1.26554e-09
2.17317e-09
5.2875e-08
2.32126e-09
4.1481e-08
5.45961e-08
2.37115e-09
-8.12815e-09
6.04796e-08
-1.08904e-09
1.88663e-10
-1.12579e-09
-5.0692e-10
4.72932e-08
2.02326e-09
-1.54993e-09
-1.12934e-08
5.37828e-08
1.37051e-09
-1.02743e-08
5.19259e-08
4.66321e-09
9.07464e-09
5.02712e-09
4.29754e-08
1.41945e-09
-1.11618e-08
-8.38739e-10
6.19713e-08
-1.39702e-09
6.78579e-09
3.80729e-08
4.54187e-09
5.06517e-08
2.15165e-09
6.3206e-09
5.47785e-08
-2.06001e-09
-3.76912e-09
6.45635e-10
4.19555e-08
-5.27846e-09
2.52807e-09
4.00154e-08
4.63038e-09
4.37852e-08
-3.61949e-09
6.29593e-08
-8.5803e-09
-5.31133e-09
5.37276e-08
-7.09465e-09
4.99191e-08
5.38734e-08
1.88862e-09
1.18867e-09
5.82267e-08
-3.38808e-09
2.56375e-09
8.09938e-10
-2.84587e-09
5.38743e-08
-2.65616e-09
1.97512e-09
1.82294e-09
5.14284e-08
-6.33394e-10
6.49342e-11
5.15744e-08
1.26789e-09
-2.48973e-09
-1.90162e-09
4.99379e-08
-1.38251e-09
2.81516e-09
1.64494e-09
5.21758e-08
-6.46359e-10
-6.23996e-10
4.39816e-08
6.8168e-10
4.79399e-08
1.17281e-09
-1.51813e-09
5.20354e-08
1.18689e-09
-2.46038e-10
-2.0621e-09
4.70815e-08
-2.89972e-10
-1.04964e-09
4.04849e-08
-9.47532e-10
4.5418e-08
6.87398e-10
5.40434e-08
5.22721e-09
3.50284e-10
5.20325e-08
-5.22536e-10
5.08261e-08
4.89918e-08
-4.78771e-09
-5.20599e-09
5.79213e-08
4.12657e-09
6.17273e-09
-3.70906e-09
-5.46245e-09
5.37419e-08
4.51762e-09
-3.47252e-09
-7.05212e-09
5.18813e-08
6.36277e-09
-9.95109e-09
5.43464e-08
7.98131e-09
-6.49869e-09
-4.38976e-09
4.99474e-08
5.67434e-09
-5.85851e-09
-3.5159e-09
4.95902e-08
-6.50289e-09
-4.49355e-09
4.20682e-08
-6.28419e-09
4.58948e-08
-6.45539e-09
-2.31983e-09
5.0415e-08
6.00662e-09
-7.21887e-09
-1.75272e-09
4.60817e-08
-9.30504e-09
-2.9003e-09
4.0978e-08
-3.24324e-09
4.34385e-08
-6.64674e-09
5.15245e-08
6.57574e-09
-8.41015e-09
5.21974e-08
-9.65035e-09
4.91156e-08
4.24236e-08
3.06288e-09
4.338e-09
5.34905e-08
-1.47149e-09
-1.49746e-09
3.40749e-09
3.99786e-09
5.15792e-08
-2.17977e-09
2.63853e-09
4.83917e-09
5.01712e-08
-2.35967e-09
5.13771e-09
5.02687e-08
-1.58462e-09
1.31665e-09
1.65289e-09
4.92592e-08
2.05753e-09
3.85449e-09
2.10442e-09
4.8947e-08
3.9049e-09
1.66586e-09
4.51916e-08
2.18497e-09
4.60661e-08
1.53746e-09
-1.65559e-10
4.86629e-08
2.0336e-09
3.38047e-09
-5.60633e-10
4.69039e-08
3.44216e-09
-1.92303e-09
4.45053e-08
-2.42128e-10
4.41002e-08
-1.84317e-10
4.89303e-08
3.63698e-09
2.94053e-09
4.88381e-08
5.77541e-09
4.68508e-08
4.35293e-08
1.44292e-09
2.59058e-09
5.10023e-08
-2.5933e-10
-1.28543e-09
1.99339e-09
2.75263e-09
5.01136e-08
-1.83699e-09
1.84695e-09
3.37889e-09
4.91954e-08
-2.25631e-09
3.59635e-09
4.87794e-08
-2.27751e-09
8.66364e-10
1.22092e-09
4.89439e-08
8.19525e-10
2.38489e-09
1.66965e-09
4.85122e-08
2.31645e-09
1.52357e-09
4.71156e-08
1.90945e-09
4.67347e-08
1.2796e-09
8.79341e-11
4.8314e-08
2.02952e-10
2.23397e-09
3.0014e-11
4.75898e-08
2.31984e-09
-4.71255e-10
4.64145e-08
-6.32611e-11
4.56662e-08
7.75756e-10
4.83076e-08
6.48842e-10
2.11816e-09
4.79184e-08
2.96983e-09
4.68255e-08
4.53432e-08
1.19727e-09
1.9381e-09
4.99715e-08
-6.17855e-10
-1.48595e-09
1.45371e-09
1.91188e-09
4.95084e-08
-1.56237e-09
1.32379e-09
2.05102e-09
4.8962e-08
-1.68693e-09
2.14315e-09
4.859e-08
-1.78702e-09
9.01213e-10
1.1535e-09
4.89377e-08
-1.09493e-10
1.47302e-09
1.23713e-09
4.86162e-08
1.44097e-09
1.19919e-09
4.80003e-08
1.27215e-09
4.7573e-08
9.98685e-10
3.36382e-10
4.84947e-08
-3.61575e-10
1.41952e-09
2.8762e-10
4.8119e-08
1.40881e-09
1.14481e-10
4.75105e-08
7.82244e-11
4.70043e-08
8.64708e-10
4.8422e-08
-2.87651e-10
1.303e-09
4.80864e-08
1.39994e-09
4.75088e-08
4.6855e-08
6.91635e-10
1.16474e-09
4.94942e-08
-3.78014e-10
-1.00063e-09
8.4103e-10
1.17567e-09
4.92455e-08
-1.06162e-09
7.80204e-10
1.21801e-09
4.89473e-08
-1.14174e-09
1.25194e-09
4.87106e-08
-1.21499e-09
6.12052e-10
7.58975e-10
4.89722e-08
-2.40228e-10
8.35227e-10
7.94806e-10
4.87746e-08
8.0691e-10
7.81995e-10
4.84655e-08
7.59714e-10
4.82056e-08
6.60204e-10
2.82458e-10
4.87141e-08
-4.02801e-10
8.17923e-10
2.62633e-10
4.84938e-08
7.58006e-10
1.71624e-10
4.81814e-08
6.69382e-11
4.79058e-08
6.19692e-10
4.86456e-08
-4.07964e-10
7.35168e-10
4.84282e-08
6.52277e-10
4.81291e-08
4.78409e-08
3.91995e-10
6.84561e-10
4.92867e-08
-2.32572e-10
-6.362e-10
4.63647e-10
6.87785e-10
4.91517e-08
-6.65261e-10
4.2336e-10
6.92535e-10
4.89927e-08
-6.97068e-10
6.86631e-10
4.88573e-08
-7.22571e-10
3.6578e-10
4.67119e-10
4.90196e-08
-1.95518e-10
4.50033e-10
4.74805e-10
4.89036e-08
4.09889e-10
4.54128e-10
4.87446e-08
4.12428e-10
4.86042e-08
3.83077e-10
1.9785e-10
4.88724e-08
-2.72093e-10
4.29425e-10
1.7535e-10
4.87469e-08
3.61772e-10
1.15711e-10
4.85879e-08
3.02778e-11
4.84491e-08
3.57409e-10
4.88221e-08
-2.77679e-10
3.70801e-10
4.86967e-08
2.74936e-10
4.85468e-08
4.84187e-08
2.07269e-10
3.84752e-10
4.91952e-08
-1.26234e-10
-3.74134e-10
2.40868e-10
3.83923e-10
4.91228e-08
-3.8855e-10
2.16397e-10
3.77317e-10
4.90392e-08
-3.98957e-10
3.60334e-10
4.89658e-08
-4.01738e-10
1.98542e-10
2.70008e-10
4.90571e-08
-1.21333e-10
2.28241e-10
2.66319e-10
4.89916e-08
1.95628e-10
2.45352e-10
4.89096e-08
2.08578e-10
4.88371e-08
2.01042e-10
1.21665e-10
4.89739e-08
-1.54469e-10
2.08413e-10
1.00656e-10
4.89051e-08
1.57387e-10
5.96233e-11
4.8825e-08
1.35662e-12
4.87578e-08
1.80492e-10
4.89405e-08
-1.53307e-10
1.67829e-10
4.88729e-08
9.87072e-11
4.87998e-08
4.87437e-08
1.03391e-10
2.10178e-10
4.91558e-08
-6.31519e-11
-2.11033e-10
1.18535e-10
2.0751e-10
4.91176e-08
-2.17383e-10
1.03904e-10
1.98893e-10
4.90742e-08
-2.19061e-10
1.82403e-10
4.90357e-08
-2.14171e-10
9.94497e-11
1.49099e-10
4.90837e-08
-6.5081e-11
1.08234e-10
1.42241e-10
4.90479e-08
8.58281e-11
1.24976e-10
4.90061e-08
9.76562e-11
4.89699e-08
9.61538e-11
6.74899e-11
4.90372e-08
-7.8089e-11
9.19619e-11
5.05922e-11
4.90007e-08
5.82767e-11
2.26723e-11
4.89612e-08
-1.50175e-11
4.89299e-08
8.01153e-11
4.90164e-08
-7.35909e-11
6.44075e-11
4.89818e-08
2.05097e-11
4.89474e-08
4.89239e-08
4.76987e-11
1.11632e-10
4.91399e-08
-2.83576e-11
-1.15246e-10
5.38674e-11
1.08417e-10
4.91203e-08
-1.17391e-10
4.49885e-11
1.00715e-10
4.90982e-08
-1.15845e-10
8.77182e-11
4.90787e-08
-1.09545e-10
4.48231e-11
7.83967e-11
4.91021e-08
-3.02848e-11
4.58322e-11
7.16259e-11
4.90834e-08
3.13676e-11
5.86873e-11
4.90625e-08
3.97753e-11
4.90452e-08
3.99706e-11
3.30722e-11
4.90765e-08
-3.43202e-11
3.3527e-11
2.04774e-11
4.9058e-08
1.24645e-11
1.76981e-12
4.90392e-08
-2.22611e-11
4.90254e-08
2.80052e-11
4.90643e-08
-2.9138e-11
1.50548e-11
4.90476e-08
-1.15316e-11
4.90323e-08
4.90237e-08
1.89855e-11
5.72442e-11
4.91347e-08
-1.01992e-11
-6.09616e-11
2.08158e-11
5.41312e-11
4.91249e-08
-6.11336e-11
1.52171e-11
4.79984e-11
4.91142e-08
-5.86582e-11
3.85669e-11
4.91048e-08
-5.30672e-11
1.63876e-11
3.85053e-11
4.91149e-08
-1.09959e-11
1.47011e-11
3.28628e-11
4.91056e-08
5.46985e-12
2.36346e-11
4.90958e-08
1.08784e-11
4.9088e-08
1.17459e-11
1.29103e-11
4.91011e-08
-1.12928e-11
5.8031e-12
3.91824e-12
4.90924e-08
-7.15508e-12
-8.50827e-12
4.90841e-08
-2.39048e-11
4.90788e-08
3.11835e-12
4.90945e-08
-6.65416e-12
-6.45601e-12
4.90872e-08
-2.24936e-11
4.90813e-08
4.90793e-08
4.83123e-12
2.77938e-11
4.9134e-08
-1.27277e-12
-3.09813e-11
4.67581e-12
2.51027e-11
4.91297e-08
-3.03526e-11
9.84708e-13
2.05041e-11
4.91249e-08
-2.78942e-11
1.3893e-11
4.91209e-08
-2.34871e-11
2.49855e-12
1.6788e-11
4.91239e-08
-1.23349e-12
9.97508e-14
1.24624e-11
4.91198e-08
-5.7228e-12
6.0143e-12
4.91156e-08
-2.41492e-12
4.91128e-08
-1.34533e-12
2.04962e-12
4.91169e-08
-1.87188e-13
-6.09615e-12
-4.21641e-12
4.91132e-08
-1.41132e-11
-1.24031e-11
4.91102e-08
-2.23254e-11
4.9109e-08
-7.36189e-12
4.91137e-08
3.52614e-12
-1.41935e-11
4.91111e-08
-2.39947e-11
4.91097e-08
4.91106e-08
-1.586e-12
1.22697e-11
4.91353e-08
2.59187e-12
-1.48379e-11
-2.50542e-12
1.0093e-11
4.91338e-08
-1.39739e-11
-5.0078e-12
6.73455e-12
4.91321e-08
-1.18705e-11
2.21702e-12
4.91309e-08
-8.59167e-12
-3.52503e-12
5.55294e-12
4.91303e-08
3.06764e-12
-5.79246e-12
2.35093e-12
4.9129e-08
-9.55534e-12
-2.04913e-12
4.91278e-08
-7.56941e-12
4.91274e-08
-6.45813e-12
-3.127e-12
4.91271e-08
4.41706e-12
-1.00856e-11
-7.411e-12
4.91261e-08
-1.50535e-11
-1.27706e-11
4.91257e-08
-1.91349e-11
4.91264e-08
-1.06085e-11
4.91259e-08
7.20769e-12
-1.53878e-11
4.91257e-08
-2.14063e-11
4.91263e-08
4.91284e-08
-3.8899e-12
4.41424e-12
4.91371e-08
3.79174e-12
-6.41946e-12
-4.97996e-12
2.74972e-12
4.91371e-08
-5.57808e-12
-6.69811e-12
3.73882e-13
4.91371e-08
-3.92541e-12
-2.66502e-12
4.91373e-08
-1.58811e-12
-5.43339e-12
1.89221e-13
4.9135e-08
4.41203e-12
-7.31423e-12
-2.09811e-12
4.9135e-08
-9.73432e-12
-5.05076e-12
4.91353e-08
-8.60964e-12
4.91361e-08
-7.57884e-12
-5.02419e-12
4.91338e-08
5.64963e-12
-1.02105e-11
-7.8994e-12
4.91341e-08
-1.328e-11
-1.13505e-11
4.91349e-08
-1.53423e-11
4.91364e-08
-1.03766e-11
4.91338e-08
7.66504e-12
-1.36271e-11
4.91346e-08
-1.72651e-11
4.91361e-08
4.91385e-08
-4.12925e-12
7.50306e-13
4.91389e-08
3.64007e-12
-2.24312e-12
-5.11101e-12
-4.52819e-13
4.91396e-08
-1.5634e-12
-6.26725e-12
-2.06858e-12
4.91403e-08
-3.61526e-13
-4.05027e-12
4.91412e-08
1.2254e-12
-5.27803e-12
-1.95287e-12
4.91383e-08
4.22799e-12
-6.70283e-12
-3.52871e-12
4.9139e-08
-8.24901e-12
-5.45174e-12
4.91399e-08
-7.68192e-12
4.91412e-08
-6.77641e-12
-5.11174e-12
4.91382e-08
5.2153e-12
-8.59307e-12
-7.00351e-12
4.91391e-08
-1.04747e-11
-9.16432e-12
4.91404e-08
-1.15746e-11
4.91421e-08
-8.61527e-12
4.91388e-08
6.6216e-12
-1.07376e-11
4.914e-08
-1.28805e-11
4.91418e-08
4.91441e-08
-3.43186e-12
-6.49188e-13
4.91403e-08
2.89659e-12
-3.98916e-13
-4.197e-12
-1.46305e-12
4.91413e-08
7.4183e-14
-4.95079e-12
-2.49353e-12
4.91424e-08
8.77432e-13
-3.72505e-12
4.91435e-08
1.90153e-12
-4.22846e-12
-2.35688e-12
4.91405e-08
3.36421e-12
-5.22775e-12
-3.38406e-12
4.91414e-08
-6.19227e-12
-4.57265e-12
4.91426e-08
-5.91831e-12
4.9144e-08
-5.21945e-12
-4.24735e-12
4.9141e-08
4.08337e-12
-6.40137e-12
-5.43515e-12
4.91421e-08
-7.5344e-12
-6.73388e-12
4.91435e-08
-8.14166e-12
4.91452e-08
-6.37301e-12
4.9142e-08
5.02156e-12
-7.69245e-12
4.91433e-08
-8.93944e-12
4.9145e-08
4.9147e-08
-2.49232e-12
-8.44122e-13
4.91412e-08
2.05088e-12
1.67698e-13
-3.00041e-12
-1.33351e-12
4.91423e-08
4.42169e-13
-3.45699e-12
-1.95149e-12
4.91435e-08
9.55681e-13
-2.67743e-12
4.91447e-08
1.54879e-12
-2.99182e-12
-1.83469e-12
4.91418e-08
2.36573e-12
-3.61735e-12
-2.453e-12
4.91429e-08
-4.18989e-12
-3.13394e-12
4.91441e-08
-3.90263e-12
4.91455e-08
-3.58611e-12
-2.89709e-12
4.91427e-08
2.83187e-12
-4.29436e-12
-3.59356e-12
4.91438e-08
-4.95675e-12
-4.33112e-12
4.91452e-08
-5.10537e-12
4.91468e-08
-4.26627e-12
4.91438e-08
3.40044e-12
-5.02665e-12
4.91451e-08
-5.7302e-12
4.91467e-08
4.91485e-08
-1.73606e-12
-4.03201e-13
1.42019e-12
2.8735e-14
-2.04685e-12
-7.09924e-13
2.34908e-13
-2.30816e-12
-1.06341e-12
5.4443e-13
-1.47407e-12
8.95615e-13
-2.0373e-12
-9.13185e-13
1.6261e-12
-2.40178e-12
-1.26114e-12
-2.72152e-12
-1.64226e-12
-2.07429e-12
-2.37379e-12
-1.45453e-12
1.91036e-12
-2.77922e-12
-1.83661e-12
-3.15295e-12
-2.24634e-12
-2.66177e-12
-2.74394e-12
2.22481e-12
-3.18579e-12
-3.56839e-12
1.8574e-09
-7.879e-10
4.53948e-08
1.12283e-09
-5.4548e-10
6.33091e-10
4.35122e-08
-7.34459e-10
-7.95244e-10
-5.20968e-09
4.44256e-08
-2.27759e-09
-6.64918e-09
4.59807e-08
-3.27893e-09
3.21644e-09
-2.82977e-09
5.90363e-08
-8.64197e-09
-6.45097e-09
7.15014e-08
-4.99814e-09
-4.19733e-09
4.28439e-08
-1.4639e-09
2.7103e-08
-6.37785e-09
2.85252e-09
6.89172e-08
-6.85104e-10
4.99566e-10
4.95277e-08
-7.2091e-09
-5.29118e-09
6.19067e-08
4.55373e-09
3.03247e-08
-1.2031e-08
9.26885e-08
-4.617e-09
5.10781e-08
6.46981e-09
2.84362e-08
6.11618e-08
-9.08385e-09
-7.88944e-10
5.62655e-08
-8.65465e-10
7.76108e-10
2.64117e-09
3.0349e-08
6.62217e-10
5.19978e-09
5.46238e-10
3.65519e-08
2.90379e-09
1.28097e-09
4.70377e-08
3.01809e-09
1.04769e-09
-9.4335e-10
5.75659e-08
-2.04493e-09
-1.71821e-09
7.89536e-08
1.64025e-09
-4.60753e-09
4.43126e-08
-3.84734e-09
3.76426e-08
1.14237e-09
-2.63747e-09
6.84799e-08
-7.17676e-09
-9.81113e-10
5.71099e-08
9.98671e-10
3.24604e-09
4.58778e-08
-7.99943e-11
2.93909e-08
7.70204e-09
7.51098e-08
2.93221e-09
5.56934e-08
-5.8287e-09
4.47739e-08
5.99714e-08
5.01253e-09
5.2428e-10
5.25626e-08
-4.19255e-10
2.24732e-10
-2.47108e-09
3.74827e-08
1.25175e-10
-6.69224e-09
-4.35496e-10
4.39585e-08
-5.40316e-11
5.53357e-09
2.00398e-08
3.81348e-09
-5.56317e-09
-1.39879e-09
6.63399e-08
4.33148e-09
3.43751e-09
6.31504e-08
4.00556e-09
6.83837e-10
4.35192e-08
-2.20519e-09
5.18083e-08
1.08226e-08
-9.38238e-10
5.77992e-08
1.91203e-09
-3.37064e-09
7.28287e-08
2.05763e-10
-9.42335e-10
4.92103e-08
-1.58331e-09
2.68012e-08
1.30159e-08
5.37942e-08
7.76444e-09
5.21501e-08
-1.87538e-09
6.00049e-08
5.50913e-08
5.61995e-09
-9.65777e-10
5.03747e-08
-7.4293e-10
-7.98347e-10
-3.19426e-09
4.83395e-08
-1.24421e-09
-1.43805e-09
-3.77026e-09
4.97435e-08
-1.37502e-09
-5.58868e-10
2.30123e-08
-5.44019e-10
5.84494e-09
2.08421e-09
5.64205e-08
-2.79017e-09
-4.84563e-09
7.34369e-08
4.692e-09
4.54186e-10
3.18127e-08
-1.14343e-09
5.44291e-08
-5.63379e-09
3.77589e-09
6.12416e-08
3.43372e-09
-9.46625e-10
5.98623e-08
1.75161e-09
-3.0311e-09
5.43777e-08
-3.86785e-09
2.99164e-08
-6.93479e-09
7.6882e-08
1.16118e-09
4.37052e-08
2.12195e-09
5.55261e-08
4.46996e-08
-2.92903e-08
-1.20409e-08
9.86755e-08
-6.76779e-09
-7.85949e-09
-1.10668e-08
3.95686e-08
-1.59306e-09
5.48241e-09
-2.8823e-09
3.68196e-08
2.46435e-09
-5.39469e-09
3.66023e-08
7.02926e-10
1.77862e-09
5.62331e-10
4.31315e-08
4.43636e-09
-3.30144e-10
6.00426e-08
4.70013e-09
8.79775e-10
2.77868e-08
1.44359e-09
4.25769e-08
-8.95164e-10
-2.65179e-10
6.27866e-08
2.86476e-09
1.4923e-09
5.428e-08
4.98296e-09
-1.07009e-09
5.42094e-08
-1.3228e-09
3.69591e-08
4.07448e-09
8.4058e-08
4.31332e-11
5.76012e-08
4.53976e-09
5.12738e-08
4.59953e-08
2.78775e-08
-5.91687e-09
6.36623e-08
1.37758e-08
1.27127e-08
-2.76167e-09
5.48919e-08
2.60325e-09
3.87484e-09
-2.85762e-09
5.02696e-08
-1.75453e-09
-2.95844e-09
4.21357e-08
2.1091e-10
3.50774e-09
-4.46847e-09
3.83301e-08
7.4664e-09
-1.7981e-09
5.51204e-08
2.87463e-09
-3.7626e-09
3.32836e-08
-8.67249e-10
4.47798e-08
1.4275e-08
1.91038e-10
4.44701e-08
5.58946e-09
-2.58152e-09
6.37489e-08
5.542e-09
-4.33804e-10
5.09281e-08
-2.5466e-09
4.21205e-08
8.39737e-09
7.42065e-08
6.89315e-09
5.5306e-08
3.41332e-09
5.30243e-08
3.93261e-08
1.99391e-09
-9.85558e-10
5.75297e-08
2.71957e-09
2.19768e-09
-6.23401e-10
5.19828e-08
3.32996e-09
1.71955e-09
4.88535e-10
4.58593e-08
4.4004e-09
4.73793e-10
3.77951e-08
2.19944e-09
-2.15465e-09
2.94178e-10
3.89358e-08
1.53511e-09
1.40773e-09
4.93988e-08
-3.90665e-09
-1.12673e-10
3.93265e-08
9.33528e-10
3.90305e-08
-3.42467e-09
5.77205e-10
4.67305e-08
-1.32146e-09
2.19941e-09
6.08541e-08
-3.8199e-10
6.91808e-10
4.91838e-08
8.86548e-10
4.29722e-08
-9.45895e-10
7.35507e-08
-2.69557e-09
5.95549e-08
-1.90558e-09
5.61005e-08
4.42311e-08
-2.50183e-09
-2.52724e-10
5.97771e-08
5.07709e-10
-4.27032e-09
-1.5366e-09
5.47078e-08
5.79254e-10
-4.36291e-09
-1.64964e-09
4.69321e-08
6.68482e-10
-1.64072e-09
3.84813e-08
7.18413e-10
-5.20458e-09
6.66954e-10
4.32211e-08
-4.18762e-09
-2.67016e-10
4.71147e-08
-5.22591e-09
-2.00967e-09
4.07254e-08
-2.18262e-09
4.00208e-08
-7.82374e-09
1.21292e-09
5.40087e-08
-8.22595e-09
6.37133e-10
6.03519e-08
-5.79564e-09
-1.68544e-09
4.64299e-08
-1.46274e-09
4.24632e-08
-9.6675e-09
8.25584e-08
-1.3504e-08
6.19817e-08
-6.23181e-09
4.43761e-08
4.18052e-08
-1.31179e-09
6.92134e-09
5.5526e-08
-1.35847e-09
-5.14553e-10
6.19682e-09
4.85146e-08
-7.98581e-10
2.47535e-10
6.0328e-09
4.0574e-08
-4.36029e-10
5.01869e-09
3.25722e-08
-3.32647e-10
-4.3561e-09
1.46396e-09
5.30342e-08
-3.31933e-09
1.92499e-09
5.03499e-08
-3.82452e-09
3.11141e-09
4.41521e-08
3.61338e-09
3.96602e-08
-3.16744e-09
-3.25726e-09
6.18979e-08
1.15226e-10
-7.16267e-10
5.97104e-08
-1.36674e-09
2.05081e-10
5.08184e-08
1.78268e-09
4.49607e-08
3.68124e-09
7.64638e-08
2.90288e-09
6.44524e-08
-1.76206e-09
5.33953e-08
4.71831e-08
3.37874e-10
3.61668e-09
5.24263e-08
-8.56126e-10
8.0087e-10
3.23593e-09
4.54944e-08
-6.77908e-10
7.11026e-10
2.91102e-09
3.82991e-08
-5.46179e-10
2.3633e-09
3.11897e-08
-5.27121e-10
-1.43013e-09
8.87783e-10
5.7194e-08
-9.43158e-10
1.04765e-09
5.20513e-08
-1.20698e-09
1.36798e-09
4.59594e-08
1.61348e-09
4.00233e-08
-7.16494e-10
-1.80442e-09
6.53064e-08
7.19259e-10
-6.79652e-10
6.0002e-08
2.01414e-10
-2.38737e-10
5.2943e-08
5.35278e-10
4.64436e-08
2.08648e-09
7.32224e-08
2.11914e-09
6.49698e-08
4.07516e-10
5.6712e-08
4.97244e-08
4.3946e-10
2.17746e-09
5.02953e-08
-4.85764e-10
7.2506e-10
2.01282e-09
4.36419e-08
-4.45799e-10
7.36916e-10
1.7954e-09
3.6897e-08
-4.04842e-10
1.48421e-09
3.02236e-08
-3.97735e-10
-4.64433e-10
1.01259e-09
5.88241e-08
-2.67064e-10
1.05807e-09
5.28092e-08
-1.50734e-10
1.12404e-09
4.65145e-08
1.106e-09
4.01419e-08
-1.92765e-10
-3.8076e-10
6.68924e-08
3.31664e-10
-7.1523e-11
6.0607e-08
3.6266e-10
1.95937e-10
5.38402e-08
4.11862e-10
4.71389e-08
6.42091e-10
7.2462e-08
8.1769e-10
6.51511e-08
5.11467e-10
5.78041e-08
5.07649e-08
3.5529e-10
1.10909e-09
4.91341e-08
-3.02794e-10
5.33501e-10
1.03684e-09
4.27208e-08
-2.93851e-10
5.18479e-10
9.1779e-10
3.62744e-08
-2.79917e-10
7.71293e-10
2.98664e-08
-2.72751e-10
-6.29951e-11
6.47081e-10
5.93494e-08
6.10297e-11
6.60245e-10
5.30621e-08
1.66506e-10
6.53632e-10
4.66733e-08
6.07139e-10
4.02325e-08
4.58754e-11
-6.86138e-12
6.75003e-08
2.74465e-10
1.21296e-10
6.09171e-08
3.68211e-10
2.04959e-10
5.41949e-08
2.51427e-10
4.74598e-08
2.76205e-10
7.22263e-08
4.37865e-10
6.52103e-08
4.37775e-10
5.81637e-08
5.11856e-08
2.08857e-10
5.78011e-10
4.85382e-08
-1.91025e-10
3.1002e-10
5.49149e-10
4.22585e-08
-1.88008e-10
3.06696e-10
4.93854e-10
3.59651e-08
-1.81051e-10
4.2477e-10
2.96898e-08
-1.73706e-10
2.52872e-11
3.97079e-10
5.95051e-08
1.04522e-10
4.02272e-10
5.31297e-08
1.66672e-10
3.9106e-10
4.67137e-08
3.56917e-10
4.02713e-08
6.16049e-11
1.06666e-10
6.77289e-08
1.74636e-10
1.45989e-10
6.10599e-08
2.42976e-10
1.72201e-10
5.4345e-08
1.74188e-10
4.76129e-08
1.32148e-10
7.21873e-08
2.28828e-10
6.52602e-08
2.67723e-10
5.83149e-08
5.1379e-08
1.1347e-10
2.99945e-10
4.82416e-08
-1.16832e-10
1.68119e-10
2.88219e-10
4.2031e-08
-1.15429e-10
1.67227e-10
2.63269e-10
3.5814e-08
-1.11431e-10
2.31037e-10
2.96054e-08
-1.0582e-10
3.43018e-11
2.36086e-10
5.95345e-08
8.02286e-11
2.37261e-10
5.31344e-08
1.12189e-10
2.28244e-10
4.67164e-08
2.06617e-10
4.02863e-08
4.26147e-11
1.04498e-10
6.78176e-08
9.91317e-11
1.16332e-10
6.11237e-08
1.38245e-10
1.21376e-10
5.44122e-08
1.12763e-10
4.76901e-08
5.93351e-11
7.22031e-08
1.10175e-10
6.53034e-08
1.40977e-10
5.83934e-08
5.14805e-08
5.90589e-11
1.56396e-10
4.80957e-08
-6.96373e-11
8.72216e-11
1.51622e-10
4.19198e-08
-6.885e-11
8.62383e-11
1.40532e-10
3.57407e-08
-6.65099e-11
1.25511e-10
2.95654e-08
-6.28053e-11
2.51589e-11
1.35588e-10
5.95299e-08
4.98823e-11
1.35437e-10
5.31253e-08
6.4502e-11
1.29577e-10
4.67124e-08
1.16812e-10
4.0294e-08
2.49525e-11
7.50114e-11
6.78527e-08
5.26265e-11
7.76488e-11
6.11532e-08
7.18439e-11
7.62933e-11
5.44457e-08
6.73723e-11
4.77328e-08
2.61464e-11
7.22272e-08
5.06252e-11
6.53361e-08
6.74308e-11
5.84393e-08
5.15392e-08
2.95169e-11
8.21704e-11
4.80246e-08
-4.08297e-11
4.31237e-11
8.01182e-11
4.1866e-08
-4.03462e-11
4.16757e-11
7.51205e-11
3.57056e-08
-3.89993e-11
6.79535e-11
2.95469e-08
-3.67602e-11
1.47761e-11
7.59797e-11
5.95209e-08
2.69181e-11
7.53892e-11
5.31173e-08
3.25928e-11
7.17214e-11
4.67095e-08
6.42333e-11
4.02994e-08
1.26617e-11
4.6849e-11
6.78686e-08
2.51784e-11
4.65881e-11
6.11687e-08
3.32233e-11
4.38843e-11
5.44649e-08
3.68755e-11
4.77584e-08
1.03341e-11
7.22483e-08
2.05655e-11
6.53602e-08
2.76291e-11
5.8469e-08
5.15758e-08
1.39912e-11
4.36028e-11
4.79906e-08
-2.38144e-11
1.98697e-11
4.25672e-11
4.18404e-08
-2.348e-11
1.81734e-11
4.01709e-11
3.56892e-08
-2.27023e-11
3.65342e-11
2.95389e-08
-2.14049e-11
7.29157e-12
4.17508e-11
5.95149e-08
1.23857e-11
4.0996e-11
5.31129e-08
1.3788e-11
3.85894e-11
4.67089e-08
3.4041e-11
4.03039e-08
5.15496e-12
2.66879e-11
6.7878e-08
9.80558e-12
2.56092e-11
6.11786e-08
1.22463e-11
2.2994e-11
5.44773e-08
1.78921e-11
4.77749e-08
2.56333e-12
7.22652e-08
5.54256e-12
6.5378e-08
7.371e-12
5.84893e-08
5.15996e-08
6.03377e-12
2.33182e-11
4.79748e-08
-1.39232e-11
7.94118e-12
2.26573e-11
4.18287e-08
-1.3669e-11
6.22764e-12
2.13734e-11
3.5682e-08
-1.32143e-11
1.93614e-11
2.95359e-08
-1.24859e-11
2.76787e-12
2.23974e-11
5.95124e-08
4.12188e-12
2.1619e-11
5.31117e-08
3.66186e-12
1.99453e-11
4.67099e-08
1.70532e-11
4.03078e-08
1.02132e-12
1.38738e-11
6.78849e-08
1.80201e-12
1.26593e-11
6.1186e-08
1.69141e-12
1.04833e-11
5.44862e-08
6.8813e-12
4.77859e-08
-1.03572e-12
7.22784e-08
-1.44764e-12
6.53912e-08
-2.08175e-12
5.85035e-08
5.16154e-08
2.05728e-12
1.25159e-11
4.79681e-08
-8.19592e-12
2.0539e-12
1.2016e-11
4.18238e-08
-7.99303e-12
5.00471e-13
1.12404e-11
3.56794e-08
-7.71999e-12
1.00175e-11
2.95352e-08
-7.31895e-12
3.14502e-13
1.16312e-11
5.95124e-08
-1.09064e-13
1.08919e-11
5.31123e-08
-1.20417e-12
9.68467e-12
4.67117e-08
7.78426e-12
4.03111e-08
-9.49432e-13
6.33458e-12
6.78906e-08
-1.90227e-12
5.22871e-12
6.11918e-08
-3.00321e-12
3.54082e-12
5.44927e-08
1.00868e-12
4.77935e-08
-2.36411e-12
7.22884e-08
-4.20855e-12
6.54011e-08
-5.69587e-12
5.85135e-08
5.1626e-08
1.95065e-13
6.7015e-12
4.79656e-08
-4.8569e-12
-5.82278e-13
6.29276e-12
4.18223e-08
-4.69241e-12
-1.866e-12
5.77258e-12
3.56788e-08
-4.51613e-12
4.98341e-12
2.95355e-08
-4.27963e-12
-8.13289e-13
5.74848e-12
5.95136e-08
-1.90606e-12
5.10184e-12
5.31137e-08
-3.09529e-12
4.21582e-12
4.67138e-08
2.93143e-12
4.03139e-08
-1.6922e-12
2.20996e-12
6.78953e-08
-3.21285e-12
1.30583e-12
6.11965e-08
-4.51762e-12
3.51419e-14
5.44977e-08
-1.72357e-12
4.77989e-08
-2.65392e-12
7.22959e-08
-4.77325e-12
6.54083e-08
-6.39465e-12
5.85207e-08
5.16331e-08
-5.29858e-13
3.54372e-12
4.79652e-08
-2.87319e-12
-1.4674e-12
3.21044e-12
4.18222e-08
-2.74202e-12
-2.45464e-12
2.84581e-12
3.56792e-08
-2.61397e-12
2.30744e-12
2.95362e-08
-2.46019e-12
-1.15779e-12
2.63106e-12
5.95152e-08
-2.32681e-12
2.10567e-12
5.31154e-08
-3.34687e-12
1.44993e-12
4.67157e-08
5.71867e-13
4.03161e-08
-1.7598e-12
2.03099e-13
6.78991e-08
-3.24885e-12
-4.93408e-13
6.12002e-08
-4.40518e-12
-1.42037e-12
5.45013e-08
-2.63461e-12
4.78026e-08
-2.3793e-12
7.23015e-08
-4.27427e-12
6.54135e-08
-5.68094e-12
5.85257e-08
5.1638e-08
-6.79633e-13
1.82994e-12
4.79655e-08
-1.67578e-12
-1.5062e-12
1.57882e-12
4.18226e-08
-1.57737e-12
-2.19136e-12
1.32798e-12
3.56797e-08
-1.48244e-12
9.61975e-13
2.95369e-08
-1.37459e-12
-1.0693e-12
1.08041e-12
5.95167e-08
-2.04709e-12
6.88788e-13
5.31169e-08
-2.81957e-12
2.23695e-13
4.67172e-08
-3.61884e-13
4.03176e-08
-1.46303e-12
-5.44973e-13
6.7902e-08
-2.66738e-12
-1.0366e-12
6.12029e-08
-3.5545e-12
-1.6952e-12
5.45039e-08
-2.50149e-12
4.78051e-08
-1.86019e-12
7.23055e-08
-3.31957e-12
6.54172e-08
-4.39024e-12
5.8529e-08
5.16411e-08
-5.7752e-13
9.43471e-13
4.7966e-08
-9.73695e-13
-1.18045e-12
7.79266e-13
4.1823e-08
-9.12888e-13
-1.64174e-12
6.22719e-13
3.56802e-08
-8.53011e-13
4.00369e-13
2.95374e-08
-7.82555e-13
-8.13622e-13
4.31723e-13
5.95179e-08
-1.50201e-12
1.77655e-13
5.3118e-08
-2.04063e-12
-1.18088e-13
4.67182e-08
-4.72148e-13
4.03186e-08
-1.05353e-12
-5.61937e-13
6.79039e-08
-1.88777e-12
-8.82778e-13
6.12047e-08
-2.50248e-12
-1.29195e-12
5.45055e-08
-1.78532e-12
4.78066e-08
-1.2877e-12
7.23081e-08
-2.28702e-12
6.54195e-08
-3.0078e-12
5.85312e-08
5.1643e-08
-4.62886e-13
6.60458e-13
-6.49271e-13
-8.71852e-13
5.85242e-13
-6.27416e-13
-1.19094e-12
5.04022e-13
-6.0654e-13
3.92185e-13
-5.80911e-13
-5.96092e-13
3.99562e-13
-1.07138e-12
2.75258e-13
-1.43568e-12
1.19727e-13
-6.70324e-14
-7.29109e-13
-1.57918e-13
-1.2963e-12
-3.20614e-13
-1.70474e-12
-5.3862e-13
-7.98832e-13
-8.68743e-13
-1.5247e-12
-1.98433e-12
-5.42274e-09
-4.45113e-09
5.61419e-08
-7.81751e-10
2.43947e-09
5.20372e-08
6.88638e-10
3.54576e-09
6.24523e-08
1.41096e-09
7.19225e-08
-4.22755e-09
-5.10062e-09
4.01153e-08
-5.4132e-10
-6.83843e-09
6.02734e-08
2.34146e-10
-8.66565e-10
6.30242e-08
-7.61215e-09
8.20622e-08
-5.44651e-09
-6.6771e-09
4.05057e-08
1.87113e-09
6.80945e-10
3.16658e-08
-2.58572e-09
2.27024e-09
5.48862e-08
-3.9317e-09
5.05374e-08
-2.05466e-09
2.0567e-08
2.86516e-09
3.29245e-08
-6.89055e-09
6.56789e-08
3.35613e-08
3.28363e-10
-2.35615e-09
5.61192e-08
1.03436e-09
-3.0431e-09
5.49857e-08
4.95391e-10
-7.10044e-10
6.56408e-08
-2.78351e-09
7.30977e-08
-1.68297e-09
-1.70493e-09
4.18093e-08
-3.59571e-10
2.71635e-10
5.56353e-08
-8.77886e-10
-6.57062e-09
6.94032e-08
3.96282e-09
6.81467e-08
1.01781e-09
-3.83731e-09
4.45242e-08
-3.35962e-09
-5.05755e-09
4.13725e-08
1.95978e-09
-8.60895e-10
4.38572e-08
2.80555e-09
5.21941e-08
6.46464e-10
2.2881e-08
-3.61857e-10
2.93133e-08
3.71726e-09
6.22708e-08
4.98198e-08
2.13121e-09
2.86973e-09
5.16826e-08
-1.99483e-09
1.05859e-10
6.00739e-08
-6.79774e-10
-2.90206e-09
6.75475e-08
8.03485e-09
6.20953e-08
1.22183e-09
1.83892e-09
4.17435e-08
-3.97484e-09
-8.15352e-10
6.17532e-08
1.73624e-09
-1.75581e-09
6.25459e-08
2.27688e-09
7.43851e-08
5.21677e-10
2.19082e-10
4.55683e-08
-2.77267e-09
1.72759e-09
4.2124e-08
1.7852e-09
1.40453e-09
3.6139e-08
3.0738e-09
5.12486e-08
-2.07084e-11
2.35708e-08
-1.39408e-09
3.20637e-08
3.99478e-09
5.34162e-08
5.55456e-08
-1.85833e-09
-4.70629e-09
5.61767e-08
6.32237e-10
1.70419e-09
5.63958e-08
-1.70052e-09
4.26279e-09
6.58614e-08
-1.86963e-09
6.47211e-08
1.39419e-10
1.69552e-09
3.39581e-08
2.22537e-09
2.71928e-09
5.86522e-08
-6.31441e-09
5.30843e-10
7.48176e-08
5.56611e-09
5.94985e-08
1.1007e-09
1.85616e-09
4.2932e-08
9.0806e-10
2.06129e-09
4.29746e-08
-2.35598e-09
-8.26987e-10
4.07609e-08
2.02175e-09
4.54638e-08
7.02828e-10
2.49494e-08
-6.56817e-10
3.7931e-08
-1.09431e-09
5.0332e-08
4.3783e-08
-1.18143e-09
-1.1432e-09
5.11892e-08
1.6421e-09
-2.23906e-10
5.38782e-08
1.0799e-09
7.11086e-09
5.99231e-08
-3.03654e-09
7.05842e-08
-5.36303e-10
7.3957e-09
2.43625e-08
3.05795e-09
5.06513e-09
4.9769e-08
-5.37666e-09
2.5386e-09
8.78245e-08
1.04592e-09
4.48069e-08
-1.77768e-09
-3.41444e-09
5.79842e-08
8.2007e-10
2.47619e-09
4.29658e-08
-2.14068e-09
2.06771e-09
4.41925e-08
8.25343e-10
3.7794e-08
2.14735e-09
2.62234e-08
1.26445e-09
4.56137e-08
-2.36508e-09
5.85964e-08
3.74047e-08
1.08881e-09
-6.57532e-10
6.41718e-08
-1.03501e-09
4.33295e-09
5.18411e-08
-9.00514e-11