/*--------------------------------*- C++ -*----------------------------------*\
| =========                 |                                                 |
| \\      /  F ield         | OpenFOAM: The Open Source CFD Toolbox           |
|  \\    /   O peration     | Version:  2506                                  |
|   \\  /    A nd           | Website:  www.openfoam.com                      |
|    \\/     M anipulation  |                                                 |
\*---------------------------------------------------------------------------*/
FoamFile
{
    version     2.0;
    format      ascii;
    arch        "LSB;label=32;scalar=64";
    class       volVectorField;
    location    "0.08";
    object      U;
}
// * * * * * * * * * * * * * * * * * * * * * * * * * * * * * * * * * * * * * //

dimensions      [0 1 -1 0 0 0 0];

internalField   nonuniform List<vector> 
1152
(
(-0.00250243 -0.000997512 0.0205214)
(-0.00165686 0.000932083 0.0161189)
(-0.00152309 -0.00105399 0.0150031)
(-0.000260392 0.000549674 0.013502)
(0.00184888 -0.0010664 0.0157788)
(7.27859e-05 -0.00107524 0.0208229)
(-0.0020435 -0.00110074 0.0212095)
(-0.000194882 -0.000210549 0.0152366)
(0.00250046 -7.42556e-05 0.0194547)
(-0.00109448 0.000471739 0.0109795)
(-0.00119147 -2.61243e-05 0.0125045)
(0.000636806 0.00144021 0.0146079)
(0.0012874 -5.79911e-05 0.0156304)
(-0.00198493 -0.00375649 0.0368104)
(-0.000397991 0.00121635 0.0139633)
(-0.000299128 0.00411417 0.02826)
(-0.000108239 -0.00227092 0.0322799)
(0.000427177 -0.00200774 0.0529633)
(-0.000655438 -0.0015338 0.0311452)
(-0.00371124 -0.00262609 0.0472094)
(-0.00181132 -0.00286136 0.04257)
(-0.00126849 -0.000747008 0.0379406)
(2.58662e-05 -0.00017533 0.0419308)
(-0.000601827 0.00119921 0.0379727)
(-0.000175607 -0.00146712 0.0376311)
(0.000432732 -0.0046884 0.050654)
(0.000558147 -0.000816219 0.0308947)
(-0.000155715 -0.000570915 0.0286141)
(-0.00439856 -0.00169807 0.0455579)
(-0.000810368 0.000335236 0.0383652)
(0.00225056 0.000911249 0.0332053)
(0.000701149 -0.00171728 0.0438741)
(0.003451 -0.000631773 0.041139)
(-0.000418479 -0.00110276 0.0465386)
(0.00220435 0.00128965 0.037026)
(0.000888583 -1.65163e-05 0.0297468)
(-0.000660431 -0.00118745 0.032256)
(-0.000549581 -0.00151362 0.0398057)
(0.00106384 -0.000684074 0.0352168)
(0.00112029 -0.000425536 0.0313951)
(0.000209389 -0.000912262 0.0300729)
(-0.000649528 -0.00176327 0.0537301)
(0.0013513 -0.0011637 0.0309951)
(0.00215368 -0.00141571 0.0523067)
(5.79255e-05 0.00102678 0.0414933)
(0.000866722 0.000660785 0.025002)
(0.000869818 0.000104312 0.0268369)
(0.00310057 -9.53231e-05 0.0482316)
(-0.00282847 -0.000894146 0.0633795)
(0.00103129 -0.00067325 0.0437743)
(0.00185081 0.00260978 0.0386866)
(0.000625685 0.00710757 0.0622956)
(0.00085981 -0.000123659 0.0366013)
(0.00253909 -0.00120878 0.037114)
(0.00408786 -0.000687926 0.0394872)
(-0.000866431 -0.000725242 0.0281521)
(-0.00161614 -0.00193038 0.0534285)
(0.00101332 0.00027842 0.0334628)
(0.00143124 -0.00122368 0.0312514)
(0.00256734 -0.00414181 0.0389044)
(0.00308355 0.000536 0.0369399)
(0.00206206 0.00104856 0.0355645)
(0.00047076 0.00172177 0.0297476)
(0.000368741 0.000815441 0.0244799)
(-0.000818566 -0.000217069 0.0387276)
(0.000678639 -0.00143615 0.0393712)
(-1.02701e-05 -0.00101607 0.0353332)
(0.00144688 0.00103614 0.0360556)
(0.0017398 0.000596667 0.0388875)
(-0.00025826 0.000381287 0.0382226)
(0.000966787 0.00174243 0.0603312)
(0.00120918 0.00440373 0.0662243)
(0.000368118 -0.00138476 0.0347503)
(0.00129916 0.00116863 0.0385471)
(0.000803275 0.000879528 0.0251109)
(-0.000300869 0.00188897 0.0310787)
(0.00249445 -0.000473959 0.0405872)
(0.00289851 -4.33566e-05 0.0355015)
(0.00129625 -0.000412316 0.0285639)
(-0.00176744 -0.000603776 0.0344543)
(0.000970359 -0.00172127 0.0299796)
(0.000207033 -0.000569417 0.0246097)
(-0.000774699 -0.0034644 0.0257818)
(-0.000273747 -0.00538315 0.0290919)
(0.00249548 -0.00113412 0.0406493)
(-0.00126276 -0.000571261 0.0226664)
(-0.00478808 -0.0016034 0.0293005)
(0.000478792 -0.00186619 0.0261048)
(0.00172397 0.00411683 0.0345383)
(-0.000532301 -7.9106e-05 0.0202701)
(-0.00279609 0.0026927 0.0264953)
(-0.00309432 0.00276359 0.0334311)
(0.00101106 -3.32663e-05 0.0179529)
(-0.00337603 0.000900569 0.0323667)
(-0.00300617 -0.000662444 0.0291392)
(-0.00425319 0.00242232 0.0376137)
(0.000773905 -2.93204e-05 0.0249877)
(0.000390534 -0.00069453 0.0194773)
(0.000527006 0.000660948 0.0231732)
(0.000677676 -0.000191197 0.0242859)
(-0.000187452 -1.58738e-05 0.0206443)
(0.000273111 7.22878e-05 0.0237452)
(-4.38797e-05 2.58642e-05 0.0212276)
(0.000385338 0.00027543 0.0268984)
(-3.43785e-05 -0.000723044 0.0248044)
(0.000133131 -0.000143107 0.0186591)
(-0.000199266 -0.000362236 0.0214044)
(-4.9404e-05 -1.66558e-05 0.0228146)
(-0.00109456 -1.67737e-05 0.0178719)
(0.000137537 -0.000504477 0.0235812)
(7.17446e-06 -0.000420952 0.0242248)
(0.000826092 -5.62494e-05 0.0258437)
(-0.00117395 -0.00153464 0.0307645)
(-0.00109943 -0.00133511 0.0264344)
(-0.000849098 -0.00168315 0.0260385)
(-0.0010004 -0.00229848 0.0265305)
(-0.00161346 -0.00119828 0.0219424)
(-0.00151255 -0.00112286 0.0255987)
(-0.00154037 -0.00149507 0.0108612)
(-0.00184022 -0.00214014 0.0194938)
(-0.00160197 -0.000905208 0.0260866)
(-0.00166549 -0.000724853 0.0180273)
(-0.00207889 -0.000994635 0.013181)
(-0.00252541 -0.0013026 0.014675)
(-0.0016857 -0.000223987 0.0276759)
(-0.00183484 -0.00027828 0.0261271)
(-0.00231547 -0.000365851 0.0228429)
(-0.00255793 5.70854e-05 0.0185722)
(0.000749921 0.000908622 0.0147214)
(0.000883689 0.000936869 0.0142323)
(0.000766213 0.00109085 0.0140621)
(0.000667838 0.000978373 0.0145227)
(-6.74703e-05 0.00091775 0.0133469)
(0.000783691 0.00091659 0.0136974)
(0.000944439 0.00100325 0.0123706)
(0.00134324 0.00107967 0.0136057)
(-0.000157491 8.98024e-05 0.0134363)
(0.000741162 5.73133e-05 0.0129789)
(0.000840819 -0.000104996 0.0124233)
(0.00118535 0.000367011 0.012971)
(-0.000633755 -0.000155925 0.0136389)
(0.000452637 -0.000207726 0.0139293)
(0.00111118 -0.000724966 0.0136189)
(0.00210957 -0.000667371 0.0131285)
(0.000243481 0.000552494 0.0182862)
(0.000466598 0.000660486 0.0177877)
(0.00049419 0.00080772 0.0173221)
(0.000462223 0.000834202 0.017135)
(-4.6808e-06 0.000567946 0.0172693)
(0.000475807 0.000641561 0.017028)
(0.000590547 0.000717675 0.0163287)
(0.000730451 0.000786553 0.0161338)
(5.56152e-05 0.000130376 0.0169543)
(0.00049948 0.000155547 0.0165871)
(0.00058292 0.000112034 0.0159942)
(0.000689486 0.000288012 0.0156347)
(-8.90512e-05 -9.25494e-05 0.0169509)
(0.000403163 -9.89375e-05 0.0167757)
(0.000670647 -0.000305486 0.0162348)
(0.00091971 -0.000357309 0.0154372)
(0.00025737 0.000484069 0.0167968)
(0.000358662 0.000486249 0.0166208)
(0.000360226 0.000521486 0.0163983)
(0.000308079 0.000545197 0.0162619)
(0.000133658 0.000434444 0.0163466)
(0.000329412 0.000441751 0.0162309)
(0.000377033 0.000457386 0.0159413)
(0.000381431 0.0004775 0.0157821)
(0.000155904 0.00017829 0.0161849)
(0.000329854 0.000184576 0.0160167)
(0.000369456 0.000164882 0.0157432)
(0.000361873 0.000188473 0.0155359)
(0.000118029 -1.36158e-05 0.0161736)
(0.000293268 -2.14788e-05 0.0160449)
(0.000360399 -0.000100133 0.0157831)
(0.000356413 -0.000165595 0.0154538)
(0.000148017 0.000299412 0.0166915)
(0.000204623 0.000306377 0.0165749)
(0.000212224 0.00032234 0.016439)
(0.000179303 0.000335972 0.016337)
(0.000112873 0.000263936 0.0164473)
(0.000195643 0.000270241 0.0163612)
(0.000215638 0.000274585 0.0162162)
(0.000194457 0.000276178 0.0161058)
(0.00013241 0.000129444 0.0163343)
(0.000197849 0.000133742 0.0162367)
(0.000208173 0.000122969 0.0160945)
(0.000176724 0.00011158 0.0159738)
(0.000125403 9.31792e-06 0.0163077)
(0.000181432 8.18698e-07 0.0162161)
(0.000186052 -3.57784e-05 0.0160805)
(0.000141486 -8.27708e-05 0.0159425)
(8.57489e-05 0.000180648 0.0165867)
(0.000114067 0.000183294 0.016528)
(0.000116694 0.000187603 0.0164577)
(9.53016e-05 0.00018998 0.0163987)
(7.49312e-05 0.000155263 0.0164676)
(0.00010925 0.000156793 0.0164183)
(0.000113863 0.000154946 0.016347)
(9.22705e-05 0.000149034 0.0162847)
(8.41692e-05 8.40821e-05 0.0164053)
(0.000108154 8.34438e-05 0.0163507)
(0.000105419 7.41786e-05 0.0162793)
(7.63795e-05 5.91398e-05 0.0162163)
(8.10224e-05 1.38506e-05 0.0163855)
(9.74251e-05 5.17183e-06 0.0163309)
(8.7365e-05 -1.56529e-05 0.0162631)
(4.97923e-05 -4.48947e-05 0.0162022)
(4.56593e-05 0.000102997 0.0165428)
(5.97833e-05 0.000103952 0.0165109)
(6.04346e-05 0.000104156 0.0164735)
(4.78176e-05 0.000102248 0.0164409)
(4.29119e-05 8.74629e-05 0.016481)
(5.70913e-05 8.69663e-05 0.0164525)
(5.64984e-05 8.35107e-05 0.0164156)
(4.1458e-05 7.67065e-05 0.0163827)
(4.63841e-05 4.99749e-05 0.0164452)
(5.46339e-05 4.74174e-05 0.0164148)
(4.9219e-05 3.99138e-05 0.0163783)
(2.94347e-05 2.8107e-05 0.0163471)
(4.35042e-05 1.05039e-05 0.0164314)
(4.69186e-05 3.16382e-06 0.0164013)
(3.67075e-05 -9.91603e-06 0.0163676)
(1.20906e-05 -2.77716e-05 0.0163405)
(2.28126e-05 5.68535e-05 0.0165235)
(2.96998e-05 5.69452e-05 0.0165065)
(2.95579e-05 5.59039e-05 0.016487)
(2.23723e-05 5.31264e-05 0.0164698)
(2.21721e-05 4.77581e-05 0.0164914)
(2.78823e-05 4.65893e-05 0.0164756)
(2.60885e-05 4.33119e-05 0.0164567)
(1.67399e-05 3.77393e-05 0.0164401)
(2.29857e-05 2.78269e-05 0.0164712)
(2.5301e-05 2.50599e-05 0.0164549)
(2.05575e-05 1.94673e-05 0.0164368)
(8.35845e-06 1.12642e-05 0.016422)
(2.03872e-05 5.8215e-06 0.0164624)
(1.97949e-05 2.99097e-07 0.0164468)
(1.22784e-05 -8.14664e-06 0.0164307)
(-2.631e-06 -1.91783e-05 0.0164191)
(1.04651e-05 3.05133e-05 0.0165156)
(1.36956e-05 3.02013e-05 0.0165068)
(1.32608e-05 2.8948e-05 0.0164968)
(9.18957e-06 2.64744e-05 0.0164879)
(1.01906e-05 2.52199e-05 0.0164988)
(1.23035e-05 2.39741e-05 0.0164904)
(1.05674e-05 2.13539e-05 0.0164809)
(5.01619e-06 1.72872e-05 0.0164728)
(9.92622e-06 1.4427e-05 0.0164876)
(1.00881e-05 1.2071e-05 0.0164792)
(6.61686e-06 8.10587e-06 0.0164704)
(-5.71586e-07 2.64973e-06 0.0164638)
(7.79832e-06 2.10055e-06 0.0164824)
(6.23635e-06 -1.79911e-06 0.0164746)
(1.21525e-06 -7.2531e-06 0.0164673)
(-7.44383e-06 -1.40903e-05 0.0164627)
(4.07508e-06 1.58722e-05 0.0165127)
(5.47453e-06 1.54165e-05 0.0165083)
(4.95503e-06 1.42904e-05 0.0165033)
(2.60609e-06 1.23831e-05 0.0164989)
(3.78007e-06 1.27322e-05 0.0165039)
(4.36659e-06 1.16334e-05 0.0164996)
(2.97314e-06 9.68118e-06 0.016495)
(-2.80717e-07 6.85091e-06 0.0164913)
(3.17623e-06 6.72897e-06 0.0164978)
(2.63552e-06 4.91048e-06 0.0164937)
(2.34275e-07 2.1759e-06 0.0164897)
(-3.90414e-06 -1.40373e-06 0.0164869)
(1.55217e-06 -2.67016e-07 0.0164949)
(-1.61237e-08 -2.92551e-06 0.0164913)
(-3.28139e-06 -6.41882e-06 0.0164883)
(-8.15e-06 -1.06243e-05 0.0164869)
(9.22894e-07 7.89731e-06 0.016512)
(1.42796e-06 7.43788e-06 0.0165099)
(9.22697e-07 6.53146e-06 0.0165076)
(-4.70067e-07 5.14485e-06 0.0165056)
(5.93638e-07 5.97232e-06 0.0165075)
(5.60673e-07 5.08854e-06 0.0165055)
(-4.94175e-07 3.68463e-06 0.0165034)
(-2.41185e-06 1.76478e-06 0.0165019)
(-3.01222e-08 2.52957e-06 0.0165043)
(-7.235e-07 1.1979e-06 0.0165024)
(-2.35666e-06 -6.58756e-07 0.0165008)
(-4.7314e-06 -2.99299e-06 0.0165)
(-1.2139e-06 -1.51064e-06 0.0165028)
(-2.52394e-06 -3.29316e-06 0.0165014)
(-4.64637e-06 -5.51852e-06 0.0165004)
(-7.34338e-06 -8.09757e-06 0.0165004)
(-4.90574e-07 3.65817e-06 0.0165123)
(-3.99408e-07 3.25452e-06 0.0165114)
(-8.41878e-07 2.56143e-06 0.0165105)
(-1.69098e-06 1.5873e-06 0.0165098)
(-8.09837e-07 2.43576e-06 0.01651)
(-1.06328e-06 1.7574e-06 0.0165092)
(-1.83559e-06 7.7143e-07 0.0165085)
(-2.97803e-06 -5.10381e-07 0.0165081)
(-1.34195e-06 3.98021e-07 0.0165084)
(-1.98402e-06 -5.47611e-07 0.0165078)
(-3.08298e-06 -1.78837e-06 0.0165074)
(-4.46144e-06 -3.30201e-06 0.0165074)
(-2.17551e-06 -1.97709e-06 0.0165078)
(-3.18814e-06 -3.15928e-06 0.0165075)
(-4.56702e-06 -4.57794e-06 0.0165075)
(-6.07916e-06 -6.1702e-06 0.016508)
(-9.83578e-07 1.48108e-06 0.0165129)
(-1.06351e-06 1.15522e-06 0.0165127)
(-1.42146e-06 6.48145e-07 0.0165125)
(-1.95498e-06 -1.7822e-08 0.0165124)
(-1.26312e-06 6.82154e-07 0.0165118)
(-1.55419e-06 1.8328e-07 0.0165117)
(-2.10354e-06 -4.93656e-07 0.0165116)
(-2.79562e-06 -1.33436e-06 0.0165117)
(-1.67612e-06 -5.55472e-07 0.0165112)
(-2.19573e-06 -1.21045e-06 0.0165111)
(-2.92477e-06 -2.02566e-06 0.0165113)
(-3.73902e-06 -2.98822e-06 0.0165117)
(-2.24845e-06 -1.96923e-06 0.016511)
(-2.98785e-06 -2.74541e-06 0.0165112)
(-3.8681e-06 -3.64721e-06 0.0165116)
(-4.74195e-06 -4.63363e-06 0.0165124)
(-1.01183e-06 4.29771e-07 0.0165135)
(-1.1402e-06 1.88473e-07 0.0165137)
(-1.40996e-06 -1.63711e-07 0.0165138)
(-1.75319e-06 -6.05043e-07 0.0165141)
(-1.23404e-06 -9.69399e-08 0.0165131)
(-1.48652e-06 -4.47561e-07 0.0165133)
(-1.86451e-06 -8.96415e-07 0.0165135)
(-2.28968e-06 -1.43392e-06 0.0165139)
(-1.53389e-06 -8.59933e-07 0.016513)
(-1.91775e-06 -1.30004e-06 0.0165132)
(-2.38966e-06 -1.82058e-06 0.0165136)
(-2.87866e-06 -2.41361e-06 0.0165142)
(-1.9157e-06 -1.7015e-06 0.0165131)
(-2.42544e-06 -2.20196e-06 0.0165135)
(-2.97071e-06 -2.76723e-06 0.0165141)
(-3.49137e-06 -3.3723e-06 0.0165149)
(-8.30449e-07 -8.59977e-09 0.0165141)
(-9.51693e-07 -1.72163e-07 0.0165144)
(-1.14199e-06 -4.02127e-07 0.0165147)
(-1.36113e-06 -6.80121e-07 0.0165151)
(-9.91265e-07 -3.486e-07 0.016514)
(-1.18261e-06 -5.8154e-07 0.0165143)
(-1.43104e-06 -8.64395e-07 0.0165147)
(-1.69022e-06 -1.19422e-06 0.0165152)
(-1.19563e-06 -8.14981e-07 0.0165142)
(-1.45773e-06 -1.09681e-06 0.0165145)
(-1.7523e-06 -1.41443e-06 0.016515)
(-2.04572e-06 -1.76667e-06 0.0165155)
(-1.43941e-06 -1.30396e-06 0.0165144)
(-1.76943e-06 -1.61517e-06 0.0165149)
(-2.097e-06 -1.95848e-06 0.0165155)
(-2.40926e-06 -2.3202e-06 0.0165162)
(-5.97379e-07 -1.19088e-07 0.0165145)
(-6.89542e-07 -2.19388e-07 0.0165148)
(-8.09884e-07 -3.56212e-07 0.0165152)
(-9.40966e-07 -5.19462e-07 0.0165156)
(-6.99984e-07 -3.21855e-07 0.0165146)
(-8.30524e-07 -4.63051e-07 0.016515)
(-9.81362e-07 -6.28483e-07 0.0165154)
(-1.12861e-06 -8.19457e-07 0.0165158)
(-8.26019e-07 -5.87423e-07 0.0165149)
(-9.92054e-07 -7.54386e-07 0.0165152)
(-1.16573e-06 -9.35848e-07 0.0165157)
(-1.33115e-06 -1.13348e-06 0.0165163)
(-9.70917e-07 -8.55454e-07 0.0165152)
(-1.17183e-06 -1.03387e-06 0.0165157)
(-1.35848e-06 -1.2294e-06 0.0165162)
(-1.53533e-06 -1.43328e-06 0.0165169)
(-4.09381e-07 -5.15652e-08 0.0165147)
(-4.7649e-07 -1.15868e-07 0.0165151)
(-5.48228e-07 -1.98247e-07 0.0165155)
(-6.18249e-07 -2.92195e-07 0.0165159)
(-4.73197e-07 -1.58548e-07 0.016515)
(-5.5938e-07 -2.41225e-07 0.0165153)
(-6.46067e-07 -3.3528e-07 0.0165158)
(-7.23139e-07 -4.42588e-07 0.0165162)
(-5.47869e-07 -2.93736e-07 0.0165153)
(-6.50404e-07 -3.86892e-07 0.0165157)
(-7.49162e-07 -4.8777e-07 0.0165162)
(-8.3485e-07 -5.96386e-07 0.0165167)
(-6.29076e-07 -4.33538e-07 0.0165157)
(-7.49147e-07 -5.29119e-07 0.0165162)
(-8.54398e-07 -6.3397e-07 0.0165167)
(-9.45574e-07 -7.42855e-07 0.0165173)
(0.000627333 -0.000387905 0.0131715)
(-0.000554165 0.00108792 0.0215897)
(9.45008e-05 -0.00194666 0.0219177)
(-0.00138247 -0.00242277 0.0140233)
(0.0012269 -0.000908749 0.0166882)
(-0.00059179 -0.0027298 0.0107519)
(-0.00287164 -0.00337789 0.0145995)
(0.00026089 -0.0029461 0.0112809)
(-0.000863749 -0.000411806 0.0138784)
(-0.000852874 -0.00242451 0.0151597)
(-0.00159816 -0.00450198 0.0237801)
(-0.0003333 0.000366262 0.0118896)
(-0.00258164 -0.000362038 0.0173896)
(-0.00318359 0.00161466 0.0151027)
(-3.56701e-05 0.00158066 0.0102122)
(0.00316538 0.00105232 0.0196566)
(-0.0018771 -0.00109631 0.0444225)
(-0.00230004 -4.93688e-05 0.0318885)
(0.00210774 0.000772338 0.0452945)
(0.00119344 0.000249246 0.0742008)
(9.37594e-05 -0.000317055 0.0397348)
(-0.0006237 -0.000300016 0.0690728)
(0.00115558 -0.00183924 0.0404859)
(-0.000826987 -0.00178943 0.0326197)
(0.00054518 -0.0013356 0.0448047)
(-0.00149958 -0.000888885 0.0324599)
(-0.00130156 -0.000291014 0.0333278)
(5.39416e-05 -0.00181963 0.0287753)
(0.00188558 0.00267598 0.0514719)
(0.00244669 -7.02707e-05 0.0297404)
(-0.000544071 0.000688992 0.0213042)
(-0.00362852 0.00031527 0.0443761)
(0.000712936 0.00162913 0.0458005)
(0.000945576 -0.000192763 0.0285325)
(-0.00182674 -0.000235352 0.0307234)
(0.00035436 0.000284104 0.0311698)
(-0.000494526 -0.000730783 0.0354468)
(-0.000240396 -0.000547791 0.0338135)
(0.00210065 0.000435686 0.034844)
(-0.000277293 0.00162621 0.0422436)
(0.00213599 -0.00067957 0.0352092)
(0.00271303 0.00108334 0.0417683)
(0.000362946 0.000341518 0.0332045)
(0.000897934 -0.000457119 0.026489)
(0.00230528 0.00227569 0.024671)
(0.00575449 0.00138927 0.0403296)
(0.000952177 -0.00220408 0.0414785)
(4.64983e-05 -0.00057799 0.0417964)
(0.000901019 0.000870537 0.0356203)
(0.00131221 0.000123834 0.0426836)
(-0.000577286 -0.00150325 0.0588378)
(-0.00114213 0.000377485 0.0256411)
(0.000655481 0.00048467 0.0456983)
(0.00154857 -0.00229074 0.0489776)
(0.000748231 -0.000250381 0.0374601)
(0.00240726 -0.000549028 0.0523646)
(-0.00151412 0.00165782 0.0292892)
(5.19905e-05 -0.00203941 0.0457757)
(0.00109356 -0.000660449 0.0387972)
(0.00109901 -0.000949701 0.0256487)
(-0.00232133 -0.000831493 0.0321089)
(-0.000826077 -0.000171721 0.0194939)
(0.000990391 -0.000849961 0.0370771)
(0.00244786 -0.000225864 0.0405541)
(-0.00364972 -0.00631642 0.036823)
(-0.00696156 -0.00771528 0.0419253)
(0.000703973 -0.00302456 0.0456144)
(0.000889974 -0.000965185 0.0402887)
(0.0023718 -0.00334256 0.0294774)
(0.00364517 -0.00372952 0.0560457)
(0.00148314 0.000668618 0.0207463)
(0.00517731 -0.000232011 0.0496259)
(-0.000620802 0.00046502 0.0411276)
(0.000518717 0.000492631 0.0286575)
(0.00235801 0.000341852 0.0398891)
(0.00136362 0.000123773 0.0308182)
(0.00134642 -0.00346986 0.0512056)
(0.00046318 -0.00124627 0.0356117)
(0.00175238 -0.000492217 0.0382129)
(0.00144091 -7.92973e-05 0.0285487)
(0.0128116 -0.00433142 0.0697873)
(0.00613841 0.000387792 0.0247782)
(0.00361865 0.000612165 0.0229616)
(0.00196551 -0.00121922 0.0343401)
(0.00165137 -0.00149303 0.0231398)
(0.00285029 -0.000830877 0.0191628)
(0.00349471 -0.000906258 0.0236375)
(0.00108752 -8.09752e-05 0.0219305)
(0.00342266 -0.00137611 0.0248362)
(0.00469952 1.34536e-05 0.0298082)
(0.00305139 -0.000920739 0.0279804)
(0.00201154 -0.000789313 0.0248668)
(0.00211088 0.00187744 0.0243483)
(0.00376696 -0.000639344 0.0271151)
(0.00210543 0.000264898 0.0237722)
(0.00497215 -0.000960281 0.0309782)
(0.000464018 -0.00154199 0.0160383)
(0.00195798 -0.000549671 0.0312033)
(0.000922938 -0.00103367 0.0290028)
(0.000984106 -0.00035036 0.0302037)
(-0.000300909 -5.00042e-05 0.0172143)
(-0.000141602 0.000233365 0.0258904)
(-0.000633525 0.00013894 0.0179977)
(-0.000463714 0.000300793 0.0236836)
(-0.00050324 0.000331557 0.015529)
(-0.00141181 0.000911643 0.0255061)
(-0.000200357 0.000441371 0.0232477)
(-0.000158883 0.000396775 0.0212328)
(-0.00012078 0.000267487 0.0251382)
(-0.000803822 0.0003212 0.0213897)
(-0.000997968 -0.000737482 0.0223593)
(-0.000722994 -6.12842e-06 0.019111)
(-6.4221e-05 -0.000343922 0.0331436)
(-0.000330973 -0.000852193 0.0352995)
(-0.000684051 -0.00108349 0.0362172)
(-0.000877696 -0.00120133 0.0353843)
(-0.000460176 -0.000132428 0.0142159)
(-0.000778754 -0.000645531 0.0231766)
(-0.000843655 -0.000940796 0.016156)
(-0.00117505 -0.00106807 0.0256495)
(-0.000759358 6.65187e-05 0.0189875)
(-0.0016669 -0.000322035 0.0271657)
(-0.00136857 -0.000987877 0.0194032)
(-0.00131086 -0.0008726 0.0200352)
(-0.00090003 0.000361984 0.0329354)
(-0.00241502 0.000225416 0.0214328)
(-0.00235944 -4.29173e-05 0.0106809)
(-0.00135559 -9.91275e-05 0.0134259)
(-0.00127103 0.00155576 0.015525)
(-0.00093331 0.00131097 0.0157074)
(-0.000433308 0.00133935 0.0155058)
(5.56389e-06 0.00124224 0.0151557)
(-0.00127752 0.00144214 0.0105072)
(-0.00133164 0.00121653 0.011879)
(-0.00118952 0.0014963 0.0117565)
(-0.000984917 0.001379 0.0129242)
(-0.000260563 -0.00082496 0.0106939)
(-0.000239204 -0.000149197 0.0123328)
(3.095e-05 0.000382635 0.0117841)
(-0.000602177 0.000544612 0.0121658)
(0.000427879 -0.000725726 0.0135934)
(0.00067839 -0.00042577 0.0125979)
(0.000202232 -0.000517678 0.0117101)
(-0.000818358 -3.61321e-05 0.0117367)
(-0.000612071 0.000903791 0.0195149)
(-0.000335194 0.000890531 0.0194341)
(-8.30918e-05 0.000872969 0.0191157)
(4.10846e-06 0.000760787 0.0186744)
(-0.000620479 0.000862875 0.0164022)
(-0.00055753 0.000754251 0.0168856)
(-0.000424532 0.000775856 0.0169731)
(-0.000349398 0.000683941 0.0171762)
(-2.74684e-05 -0.000443286 0.0164581)
(2.17161e-05 -0.000136013 0.0169391)
(0.000157778 0.000119298 0.0166356)
(-9.36543e-05 0.000234592 0.0166503)
(0.000242544 -0.000472916 0.0177294)
(0.000445346 -0.000311094 0.0171733)
(0.000317474 -0.000284177 0.01654)
(-0.000128786 -7.03163e-05 0.0164194)
(-0.000329478 0.000535533 0.0174439)
(-0.000164371 0.000573666 0.017343)
(-7.94977e-06 0.000585815 0.0171386)
(8.73498e-05 0.00055459 0.0169133)
(-0.000356529 0.00059149 0.0160834)
(-0.000298664 0.000550365 0.0162362)
(-0.000179957 0.000540531 0.0162648)
(-6.58084e-05 0.000489397 0.0163005)
(-3.34799e-05 -5.17578e-05 0.0161079)
(-9.30974e-06 5.93689e-05 0.0162464)
(7.09962e-05 0.000160422 0.0161471)
(5.62451e-05 0.000205137 0.0161124)
(7.39487e-05 -0.00016964 0.0166138)
(0.000153171 -0.000106559 0.0164003)
(0.000155869 -7.43669e-05 0.0161479)
(6.42823e-05 -8.34976e-06 0.0160448)
(-0.000156578 0.000277427 0.017066)
(-6.19943e-05 0.000314359 0.0170074)
(1.994e-05 0.000328352 0.0169034)
(6.83915e-05 0.000320461 0.0167803)
(-0.000172044 0.000321534 0.0164174)
(-0.000124069 0.000311457 0.0164718)
(-4.89814e-05 0.000302154 0.0164824)
(2.04745e-05 0.000278064 0.0164687)
(-1.59131e-05 3.56641e-05 0.0163501)
(1.0278e-05 7.71386e-05 0.0163983)
(5.7371e-05 0.000114772 0.0163763)
(8.11814e-05 0.00013047 0.0163502)
(2.69391e-05 -4.56708e-05 0.0164842)
(7.03041e-05 -2.37077e-05 0.0164316)
(9.62541e-05 -7.74144e-06 0.0163581)
(9.25358e-05 1.10776e-05 0.0163095)
(-8.13853e-05 0.00014745 0.0167815)
(-3.05734e-05 0.000171593 0.0167482)
(1.38107e-05 0.000183556 0.0166943)
(4.32053e-05 0.00018452 0.0166322)
(-8.46379e-05 0.000171455 0.016502)
(-5.41525e-05 0.000172017 0.0165153)
(-1.16383e-05 0.000169705 0.0165111)
(2.86212e-05 0.000160104 0.0164914)
(-1.15407e-05 4.91103e-05 0.0164573)
(7.41579e-06 6.56789e-05 0.0164663)
(3.45134e-05 8.00681e-05 0.016454)
(5.658e-05 8.46053e-05 0.016432)
(1.02937e-05 -1.24587e-06 0.0164863)
(3.35523e-05 6.71774e-06 0.0164685)
(5.24558e-05 1.31053e-05 0.01644)
(6.28237e-05 1.71978e-05 0.0164108)
(-4.29043e-05 7.78034e-05 0.0166441)
(-1.63057e-05 9.18379e-05 0.016627)
(7.14229e-06 9.9882e-05 0.0166)
(2.37558e-05 0.000102406 0.0165682)
(-4.2336e-05 9.09369e-05 0.0165179)
(-2.43233e-05 9.33824e-05 0.0165201)
(-1.39544e-06 9.34488e-05 0.016514)
(2.03181e-05 8.95622e-05 0.016499)
(-8.59609e-06 3.95779e-05 0.0164878)
(3.23522e-06 4.61637e-05 0.0164878)
(1.84892e-05 5.12283e-05 0.0164798)
(3.25095e-05 5.15823e-05 0.016465)
(3.28679e-06 1.06772e-05 0.0164887)
(1.48328e-05 1.33117e-05 0.0164809)
(2.59408e-05 1.50673e-05 0.0164678)
(3.45754e-05 1.45428e-05 0.016451)
(-2.29736e-05 4.11539e-05 0.0165757)
(-9.26285e-06 4.88764e-05 0.0165671)
(2.8998e-06 5.37212e-05 0.0165535)
(1.18781e-05 5.57459e-05 0.0165372)
(-2.1522e-05 4.8082e-05 0.0165184)
(-1.14302e-05 5.01487e-05 0.0165177)
(4.84894e-07 5.07063e-05 0.0165126)
(1.15711e-05 4.90148e-05 0.0165029)
(-5.78124e-06 2.64675e-05 0.0164992)
(1.02819e-06 2.90484e-05 0.0164977)
(9.14812e-06 3.05989e-05 0.0164926)
(1.66808e-05 2.97168e-05 0.0164835)
(7.81065e-07 1.04098e-05 0.0164934)
(6.29888e-06 1.10113e-05 0.0164899)
(1.2011e-05 1.09714e-05 0.0164835)
(1.67775e-05 9.34389e-06 0.0164743)
(-1.25099e-05 2.18811e-05 0.0165426)
(-5.55724e-06 2.59409e-05 0.0165382)
(6.01884e-07 2.86201e-05 0.0165313)
(5.24992e-06 2.98307e-05 0.0165229)
(-1.11762e-05 2.54119e-05 0.016516)
(-5.79754e-06 2.6687e-05 0.0165149)
(1.5341e-07 2.7078e-05 0.0165115)
(5.53517e-06 2.6171e-05 0.0165056)
(-3.67493e-06 1.60879e-05 0.0165044)
(-8.04514e-08 1.69983e-05 0.0165032)
(3.91751e-06 1.72362e-05 0.0165)
(7.48792e-06 1.61368e-05 0.0164946)
(-7.1939e-08 7.15275e-06 0.0164988)
(2.33415e-06 7.02414e-06 0.0164971)
(4.84773e-06 6.41338e-06 0.0164938)
(6.85448e-06 4.79297e-06 0.0164889)
(-6.95433e-06 1.17304e-05 0.0165265)
(-3.50119e-06 1.37481e-05 0.0165243)
(-4.86155e-07 1.50935e-05 0.0165208)
(1.7943e-06 1.56563e-05 0.0165165)
(-5.95306e-06 1.34364e-05 0.0165139)
(-3.24482e-06 1.40541e-05 0.016513)
(-4.36137e-07 1.41619e-05 0.0165109)
(2.00725e-06 1.35183e-05 0.0165076)
(-2.27849e-06 9.18304e-06 0.0165072)
(-5.92478e-07 9.36709e-06 0.0165063)
(1.14543e-06 9.11958e-06 0.0165045)
(2.57924e-06 8.11291e-06 0.0165015)
(-3.28994e-07 4.07827e-06 0.0165032)
(4.70946e-07 3.71904e-06 0.0165023)
(1.27768e-06 3.00804e-06 0.0165007)
(1.7799e-06 1.67589e-06 0.0164981)
(-3.95165e-06 6.33741e-06 0.0165189)
(-2.2994e-06 7.25069e-06 0.0165178)
(-9.13614e-07 7.82888e-06 0.0165161)
(1.08877e-07 7.98505e-06 0.0165139)
(-3.24664e-06 7.06986e-06 0.0165129)
(-1.99666e-06 7.2627e-06 0.0165123)
(-8.05764e-07 7.15747e-06 0.0165111)
(1.71207e-07 6.62129e-06 0.0165093)
(-1.39022e-06 4.94248e-06 0.0165091)
(-7.60091e-07 4.81788e-06 0.0165086)
(-1.98478e-07 4.41839e-06 0.0165076)
(1.74167e-07 3.58607e-06 0.016506)
(-3.64079e-07 1.91047e-06 0.0165066)
(-3.46897e-07 1.50948e-06 0.0165062)
(-3.66064e-07 8.69125e-07 0.0165054)
(-5.626e-07 -1.46846e-07 0.0165042)
(-2.29681e-06 3.44081e-06 0.0165156)
(-1.56369e-06 3.7788e-06 0.016515)
(-1.0042e-06 3.94859e-06 0.0165141)
(-6.1953e-07 3.8901e-06 0.0165131)
(-1.80862e-06 3.67195e-06 0.0165126)
(-1.3232e-06 3.6291e-06 0.0165123)
(-9.35183e-07 3.41379e-06 0.0165117)
(-6.55842e-07 2.95481e-06 0.0165108)
(-8.45523e-07 2.47515e-06 0.0165106)
(-7.52415e-07 2.23737e-06 0.0165104)
(-7.50556e-07 1.83067e-06 0.0165099)
(-8.52097e-07 1.17528e-06 0.0165092)
(-3.26109e-07 5.92825e-07 0.0165093)
(-6.4251e-07 2.29931e-07 0.0165091)
(-1.00237e-06 -2.91207e-07 0.0165087)
(-1.45614e-06 -1.03556e-06 0.0165083)
(-1.35943e-06 1.86919e-06 0.0165142)
(-1.08044e-06 1.92645e-06 0.016514)
(-9.18908e-07 1.89959e-06 0.0165136)
(-8.32129e-07 1.75022e-06 0.0165131)
(-1.02469e-06 1.85884e-06 0.0165129)
(-9.12751e-07 1.71101e-06 0.0165127)
(-8.89043e-07 1.46486e-06 0.0165124)
(-9.13247e-07 1.08495e-06 0.0165121)
(-5.12488e-07 1.10764e-06 0.0165119)
(-6.57017e-07 8.54662e-07 0.0165118)
(-8.78449e-07 4.98577e-07 0.0165116)
(-1.14845e-06 1.27449e-09 0.0165113)
(-2.64028e-07 -1.00565e-07 0.0165112)
(-6.76399e-07 -3.96715e-07 0.0165112)
(-1.12232e-06 -7.98121e-07 0.0165111)
(-1.61083e-06 -1.33009e-06 0.016511)
(-8.09285e-07 1.0066e-06 0.0165139)
(-7.3799e-07 9.46866e-07 0.0165138)
(-7.44514e-07 8.44896e-07 0.0165136)
(-7.76935e-07 6.75557e-07 0.0165135)
(-5.8325e-07 9.01943e-07 0.0165133)
(-6.28385e-07 7.29733e-07 0.0165132)
(-7.40922e-07 5.01667e-07 0.0165132)
(-8.68411e-07 2.01494e-07 0.0165131)
(-3.06918e-07 4.00966e-07 0.0165129)
(-5.22581e-07 1.7816e-07 0.0165129)
(-7.9293e-07 -1.07974e-07 0.0165129)
(-1.07854e-06 -4.7265e-07 0.0165129)
(-1.99038e-07 -3.83652e-07 0.0165127)
(-5.8695e-07 -6.10313e-07 0.0165127)
(-9.96178e-07 -9.06148e-07 0.0165128)
(-1.41657e-06 -1.27674e-06 0.0165129)
(-4.76125e-07 5.31808e-07 0.0165139)
(-4.87375e-07 4.42048e-07 0.0165139)
(-5.47552e-07 3.31331e-07 0.0165139)
(-6.09721e-07 1.83117e-07 0.0165139)
(-3.2788e-07 4.12902e-07 0.0165138)
(-4.17678e-07 2.62061e-07 0.0165138)
(-5.54867e-07 7.95856e-08 0.0165138)
(-6.90315e-07 -1.40752e-07 0.0165138)
(-1.79423e-07 8.10783e-08 0.0165137)
(-3.8023e-07 -9.17575e-08 0.0165138)
(-6.17113e-07 -3.02982e-07 0.0165138)
(-8.52622e-07 -5.56531e-07 0.0165139)
(-1.4048e-07 -4.16835e-07 0.0165138)
(-4.49141e-07 -5.78444e-07 0.0165138)
(-7.69329e-07 -7.8495e-07 0.0165139)
(-1.08594e-06 -1.03248e-06 0.0165141)
(-2.77083e-07 2.80752e-07 0.0165141)
(-3.10791e-07 2.04267e-07 0.0165141)
(-3.72883e-07 1.17111e-07 0.0165141)
(-4.31522e-07 9.56589e-09 0.0165142)
(-1.84049e-07 1.86883e-07 0.0165141)
(-2.67327e-07 7.87266e-08 0.0165142)
(-3.7978e-07 -4.66063e-08 0.0165142)
(-4.88647e-07 -1.90941e-07 0.0165143)
(-1.05495e-07 -1.47052e-08 0.0165143)
(-2.56912e-07 -1.30369e-07 0.0165143)
(-4.28675e-07 -2.69315e-07 0.0165144)
(-5.96808e-07 -4.2913e-07 0.0165146)
(-9.29388e-08 -3.1009e-07 0.0165145)
(-3.08944e-07 -4.11617e-07 0.0165146)
(-5.28739e-07 -5.41582e-07 0.0165147)
(-7.4148e-07 -6.9365e-07 0.0165149)
(-1.89889e-07 1.8646e-07 0.0165143)
(-2.26012e-07 1.38152e-07 0.0165143)
(-2.71681e-07 8.43445e-08 0.0165143)
(-3.15102e-07 2.06848e-08 0.0165145)
(-1.3125e-07 1.40972e-07 0.0165144)
(-1.9996e-07 7.68287e-08 0.0165145)
(-2.77694e-07 3.28254e-09 0.0165145)
(-3.53517e-07 -7.97918e-08 0.0165147)
(-8.0282e-08 3.21445e-08 0.0165147)
(-1.89306e-07 -3.39775e-08 0.0165148)
(-3.03797e-07 -1.13267e-07 0.0165149)
(-4.15431e-07 -2.02927e-07 0.016515)
(-6.6818e-08 -1.36224e-07 0.0165151)
(-2.13059e-07 -1.9036e-07 0.0165151)
(-3.5566e-07 -2.60993e-07 0.0165152)
(-4.91599e-07 -3.43688e-07 0.0165154)
(-0.00183694 -0.000559367 0.0152795)
(-0.00212473 0.00168303 0.0172032)
(0.000333158 0.000525197 0.0137968)
(9.73192e-05 6.58173e-05 0.0127984)
(-0.00236933 -0.00101079 0.0137124)
(-0.0019326 -0.000572578 0.0188412)
(-6.96665e-05 0.000936681 0.0144989)
(-0.0024179 -0.00151899 0.0240872)
(-0.00524658 -0.00170226 0.0187564)
(-0.00100681 -0.000773394 0.0105679)
(-0.000341981 0.000189785 0.0178273)
(-0.000690891 -0.00237187 0.0122202)
(-0.00241833 -0.000603108 0.0144064)
(6.69204e-05 0.00111549 0.0127917)
(-0.00183868 -0.00140282 0.0182325)
(-0.000507035 -0.000485147 0.00893803)
(-0.000556844 -0.000206957 0.0517766)
(0.000563952 -0.000451995 0.0317518)
(0.000370751 0.00021728 0.0418641)
(0.00094686 -0.00122775 0.0464678)
(-0.000368815 -0.0011019 0.0410369)
(-0.00148133 7.66029e-05 0.0449307)
(-0.000939295 -0.00135475 0.0458388)
(0.00282744 0.00114133 0.0395209)
(0.00118098 -0.00199681 0.045785)
(-0.00163162 -0.00153342 0.0337464)
(-0.00148864 -0.00169172 0.0380766)
(0.00152821 0.00125143 0.0417742)
(0.000102437 -0.00228876 0.0264245)
(-0.000436009 -0.00128709 0.0385663)
(0.000954242 -0.000486001 0.057849)
(-0.0012978 5.21702e-06 0.0356623)
(0.00133796 5.92911e-05 0.032621)