FoamFile
{version 2.0; format ascii;class Cloud<passiveParticle>; location 0;object  positions;}
2477
(
( 0.00166399 0.00582041 0.00577122 ) 0 
( 0.00074229 0.00248936 0.00585513 ) 0 
( 0.011233 0.00430792 0.00571562 ) 0 
( 0.00402874 0.00516838 0.00575565 ) 0 
( 0.00602607 0.0063726 0.000499854 ) 0 
( 0.00417097 0.00485224 0.00720751 ) 0 
( 0.00839317 0.00317006 0.00440138 ) 0 
( 0.00595018 0.00909829 0.00602232 ) 0 
( 0.00625895 0.00383133 0.00417958 ) 0 
( 0.00462692 0.00102941 0.00903356 ) 0 
( 0.00775867 0.00479348 0.00405337 ) 0 
( 0.00490217 0.0115192 0.00115561 ) 0 
( 0.00854891 0.00275395 0.000499523 ) 0 
( 0.00844971 0.00403176 0.00654644 ) 0 
( 0.00462238 0.0108471 0.00320235 ) 0 
( 0.000845629 0.000476067 0.00648904 ) 0 
( 0.0016736 0.00564748 0.00223004 ) 0 
( 0.0042778 0.000148401 0.00871509 ) 0 
( 0.00370967 0.000178912 0.00789297 ) 0 
( 0.00786219 0.00923076 0.000499582 ) 0 
( 0.00495233 0.00552521 0.00589533 ) 0 
( 0.00920997 0.00644542 0.00356542 ) 0 
( 0.0114596 0.00500215 0.00348306 ) 0 
( 0.000267239 0.00400564 0.00900545 ) 0 
( 0.00340654 0.00441649 0.00598409 ) 0 
( 0.00353697 0.00603623 0.00584073 ) 0 
( 0.00312497 0.0119543 0.00127145 ) 0 
( 0.011998 0.000606857 0.00311825 ) 0 
( 0.00459916 0.003234 0.00751647 ) 0 
( 0.00230528 0.00237511 0.00508667 ) 0 
( 0.00713165 0.00576419 0.000499715 ) 0 
( 0.00124004 0.010394 0.000499641 ) 0 
( 0.00235477 0.00164555 0.0043955 ) 0 
( 0.0064967 0.00955682 0.00486426 ) 0 
( 0.00841705 0.0103626 0.0053825 ) 0 
( 0.0102355 0.00429221 0.00533929 ) 0 
( 0.00456513 0.0111775 0.00492515 ) 0 
( 0.00936033 0.0054542 0.00442506 ) 0 
( 0.0132439 0.00167993 0.0030229 ) 0 
( 0.00424083 0.00566386 0.00194741 ) 0 
( 0.0105123 0.00675712 0.00342505 ) 0 
( 0.01333 0.000667249 0.00314821 ) 0 
( 0.00687183 0.010427 0.00622616 ) 0 
( 0.0078448 0.0100643 0.0031904 ) 0 
( 0.00477755 0.011762 0.00570783 ) 0 
( 0.0113518 0.00405022 0.00319675 ) 0 
( 0.00851515 0.000456739 0.00708006 ) 0 
( 0.0084366 0.00575308 0.00566304 ) 0 
( 0.00174982 0.00623227 0.00482431 ) 0 
( 0.00845844 0.00414336 0.00765234 ) 0 
( 0.0133471 0.000280184 0.00414026 ) 0 
( 0.00561274 0.0062629 0.00156947 ) 0 
( 0.0004278 0.00576666 0.00401333 ) 0 
( 0.012156 0.00189913 0.00656708 ) 0 
( 0.0112958 0.0043351 0.000499783 ) 0 
( 0.00562746 0.00223937 0.00800199 ) 0 
( 0.00155427 0.00102833 0.00444309 ) 0 
( 0.000880262 0.00635627 0.00193997 ) 0 
( 0.000831012 0.00719971 0.00808789 ) 0 
( 0.00261139 0.00365755 0.0014543 ) 0 
( 0.00139268 0.00520854 0.0071481 ) 0 
( 0.0108183 0.00239716 0.00200542 ) 0 
( 0.00400145 0.00603574 0.00388702 ) 0 
( 0.00219172 0.0102046 0.00735906 ) 0 
( 0.0103734 0.00394716 0.000499743 ) 0 
( 0.00883803 0.00383882 0.00563553 ) 0 
( 0.00348092 0.004234 0.0013785 ) 0 
( 0.00254565 0.00171735 0.000499705 ) 0 
( 0.00542527 0.00752502 0.00686454 ) 0 
( 0.0068328 0.0095176 0.00581056 ) 0 
( 0.00424121 0.00904002 0.00577304 ) 0 
( 0.0111687 0.00240971 0.000499643 ) 0 
( 0.00297084 0.00379098 0.00515597 ) 0 
( 0.0110575 0.00149871 0.00361241 ) 0 
( 0.00681385 0.0046197 0.000499493 ) 0 
( 0.0112111 0.00724805 0.00713488 ) 0 
( 0.00364148 0.00344825 0.00449079 ) 0 
( 0.00548653 0.00346609 0.0012592 ) 0 
( 0.00086908 0.00654564 0.00445852 ) 0 
( 0.00719258 0.0053457 0.00467354 ) 0 
( 0.00241505 0.00142411 0.00763682 ) 0 
( 0.00761768 0.00475868 0.00107745 ) 0 
( 0.010108 0.00273701 0.00690763 ) 0 
( 0.00495583 0.0113971 0.00214653 ) 0 
( 0.00695692 0.00651914 0.0054671 ) 0 
( 0.00973901 0.00260178 0.00598766 ) 0 
( 0.00406149 0.00262028 0.00690696 ) 0 
( 0.00949963 3.49007e-05 0.0039059 ) 0 
( 0.00593529 0.00189485 0.00615081 ) 0 
( 0.00371003 0.00327938 0.00156701 ) 0 
( 0.011112 0.00333663 0.002181 ) 0 
( 0.00387868 0.00427553 0.00362 ) 0 
( 0.00294599 0.00975882 0.00200876 ) 0 
( 0.00911772 0.0018949 0.00768435 ) 0 
( 0.00621983 0.00293337 0.00363959 ) 0 
( 0.000190666 0.00816447 0.00759163 ) 0 
( 0.000449855 0.0133427 0.00136493 ) 0 
( 0.0133148 0.000970512 0.00192293 ) 0 
( 0.000332444 0.00582245 0.005639 ) 0 
( 0.000596464 0.00357385 0.00816616 ) 0 
( 0.00612539 0.0096711 0.00382453 ) 0 
( 0.00356703 0.00129672 0.00890288 ) 0 
( 0.000726065 0.00398238 0.000499686 ) 0 
( 0.000582566 0.00115575 0.0047404 ) 0 
( 0.00394789 0.00777661 0.00352342 ) 0 
( 0.00245862 0.00925551 0.00129489 ) 0 
( 0.0133057 0.00106118 0.00493548 ) 0 
( 0.00189247 0.0108808 0.00499368 ) 0 
( 0.000449221 0.00665009 0.00354502 ) 0 
( 0.00141023 0.00292704 0.0052533 ) 0 
( 0.00438715 0.00655941 0.00765146 ) 0 
( 0.0111363 0.000373361 0.00633844 ) 0 
( 0.000936458 0.00414139 0.00371668 ) 0 
( 0.0104211 0.00682963 0.00571919 ) 0 
( 0.00314506 0.00225556 0.00109195 ) 0 
( 0.00504083 0.003939 0.000499566 ) 0 
( 0.0048237 0.00323271 0.00197044 ) 0 
( 0.00751786 0.0048548 0.00627927 ) 0 
( 0.00146863 0.0056064 0.000499586 ) 0 
( 0.00685541 0.00311762 0.00774994 ) 0 
( 0.0100909 0.00468636 0.00136397 ) 0 
( 0.00984967 0.00632013 0.00432351 ) 0 
( 0.0100333 0.00448704 0.00437972 ) 0 
( 0.00296173 0.0101706 0.00467965 ) 0 
( 0.00918333 0.000398625 0.0078216 ) 0 
( 0.000553853 0.0101025 0.00769515 ) 0 
( 0.00831374 0.0085423 0.00203583 ) 0 
( 0.00228107 0.00519363 0.00364066 ) 0 
( 0.0109397 0.00585334 0.00341269 ) 0 
( 0.0088951 0.00476035 0.00307015 ) 0 
( 0.00662208 0.00216377 0.00793663 ) 0 
( 0.00562791 0.00984259 0.000499612 ) 0 
( 0.00474452 0.00224496 0.00753294 ) 0 
( 0.00919384 0.00546722 0.0062558 ) 0 
( 0.00185577 0.0125303 0.00313497 ) 0 
( 0.00450207 0.0105486 0.00415039 ) 0 
( 0.00173867 0.00511611 0.00138565 ) 0 
( 0.00145262 0.00354294 0.00432945 ) 0 
( 0.00857048 0.00533051 0.00382468 ) 0 
( 0.0049456 0.00738451 0.00773314 ) 0 
( 0.00442176 0.00688347 0.00586178 ) 0 
( 0.000847392 0.00816929 0.00291079 ) 0 
( 0.00355362 0.00877235 0.00796556 ) 0 
( 0.00442244 0.00641775 0.0030049 ) 0 
( 0.00286437 0.000237667 0.00136561 ) 0 
( 0.00435562 0.00642375 0.00130741 ) 0 
( 0.00623541 0.0110354 0.00398116 ) 0 
( 0.00929009 0.00854284 0.00141423 ) 0 
( 0.00919772 0.00279998 0.00131894 ) 0 
( 0.00601222 0.00673238 0.00483856 ) 0 
( 0.00170733 0.0132404 0.00382326 ) 0 
( 0.0020209 0.0115441 0.00314421 ) 0 
( 0.00874658 0.00260338 0.0036452 ) 0 
( 0.00134189 0.00496225 0.00331448 ) 0 
( 0.00815782 0.00327643 0.00713622 ) 0 
( 0.00297035 0.0090226 0.00529347 ) 0 
( 0.00621255 0.00599817 0.00590824 ) 0 
( 0.00628783 0.0079774 0.00596 ) 0 
( 0.0013402 0.0018079 0.00506624 ) 0 
( 0.00301852 0.0110295 0.00163764 ) 0 
( 0.00117719 0.00800247 0.00758388 ) 0 
( 0.00532337 0.00645316 0.00595184 ) 0 
( 0.00248585 0.00425783 0.00836097 ) 0 
( 0.00486265 0.00765309 0.00430354 ) 0 
( 0.000317684 8.44556e-05 0.00536266 ) 0 
( 0.00448454 0.00105548 0.00182766 ) 0 
( 0.0060489 0.00399906 0.00321637 ) 0 
( 0.00508915 0.00134396 0.0077948 ) 0 
( 0.00716826 0.00806454 0.00543579 ) 0 
( 0.0071164 0.00990598 0.00049963 ) 0 
( 0.0068507 0.0102397 0.00421465 ) 0 
( 4.99716e-05 0.0132987 0.00491941 ) 0 
( 0.00223853 0.00237296 0.00277243 ) 0 
( 0.0103118 0.00292597 0.000499599 ) 0 
( 0.00416524 0.000869893 0.00716293 ) 0 
( 0.00393065 0.0108539 0.00218443 ) 0 
( 0.0026136 0.00468395 0.0011671 ) 0 
( 0.00189775 0.000836833 0.00352036 ) 0 
( 0.00918114 0.00118364 0.00503821 ) 0 
( 8.66474e-05 0.0041633 0.00618284 ) 0 
( 0.0019949 0.00575812 0.00778674 ) 0 
( 0.00276351 0.00522299 0.0059426 ) 0 
( 0.00624644 0.00834147 0.00111193 ) 0 
( 0.00355617 0.00119687 0.00383962 ) 0 
( 5.27433e-05 0.00560978 0.00181048 ) 0 
( 0.000487887 0.00819313 0.00391129 ) 0 
( 0.00544039 0.00516225 0.00452422 ) 0 
( 0.00600169 0.00311046 0.00842623 ) 0 
( 0.00267116 0.00235201 0.0060418 ) 0 
( 0.0063086 0.00785494 0.00393246 ) 0 
( 0.00697969 0.00341482 0.00102714 ) 0 
( 0.00438898 0.0125551 0.00420432 ) 0 
( 0.0092361 0.00474773 0.00782456 ) 0 
( 0.0106342 0.00304761 0.00332253 ) 0 
( 0.0081155 0.00812241 0.00386562 ) 0 
( 0.00326645 0.00536733 0.00400071 ) 0 
( 0.00590314 0.0103114 0.00458524 ) 0 
( 0.00682943 0.00898801 0.00213038 ) 0 
( 0.00830296 0.00247334 0.00771392 ) 0 
( 0.00156015 0.00893235 0.00296154 ) 0 
( 0.00853929 0.00594828 0.00301503 ) 0 
( 0.00425187 0.00566093 0.000499669 ) 0 
( 0.00364754 0.00871816 0.000499632 ) 0 
( 0.00775852 0.00907325 0.00296966 ) 0 
( 0.00257482 0.000462437 0.00738318 ) 0 
( 0.00344604 0.0128977 0.00135337 ) 0 
( 0.00180262 0.00873697 0.00838832 ) 0 
( 0.0106103 0.000775374 0.00125231 ) 0 
( 0.00781117 0.0104131 0.00695614 ) 0 
( 0.00697819 0.00230578 0.00383675 ) 0 
( 0.00368231 0.0101968 0.00147293 ) 0 
( 0.0106903 0.00245992 0.00571494 ) 0 
( 0.00648859 0.00169905 0.00121427 ) 0 
( 0.00967832 0.00638843 0.00640019 ) 0 
( 0.00232072 0.0108671 0.000499671 ) 0 
( 0.000125837 0.00138284 0.00348931 ) 0 
( 0.00051729 0.012219 0.00270707 ) 0 
( 0.000199686 0.00051664 0.00406282 ) 0 
( 0.000923309 0.000607913 0.000499658 ) 0 
( 0.0101694 0.00331194 0.00421872 ) 0 
( 0.00525186 0.00123561 0.00325339 ) 0 
( 0.00131352 0.00959124 0.00611739 ) 0 
( 0.00300552 0.0083434 0.00130729 ) 0 
( 0.00221242 0.00456915 0.00207571 ) 0 
( 0.00652372 0.00450436 0.00534042 ) 0 
( 0.0110915 0.00742809 0.00615837 ) 0 
( 0.0123879 0.000331735 0.00441833 ) 0 
( 0.00876111 0.00750523 0.000499602 ) 0 
( 0.00157513 0.00656387 0.00356664 ) 0 
( 0.00148478 0.0082451 0.003684 ) 0 
( 0.000415417 0.00303194 0.000499554 ) 0 
( 0.00167681 0.00783674 0.00535443 ) 0 
( 0.00676027 0.00643405 0.00665438 ) 0 
( 0.00151817 0.007501 0.000499534 ) 0 
( 0.00699762 0.00578562 0.00291065 ) 0 
( 0.00819853 0.00746359 0.00170827 ) 0 
( 0.00276904 0.00984436 0.00662608 ) 0 
( 0.000914606 0.0101473 0.00413506 ) 0 
( 0.0104637 0.00499353 0.00359669 ) 0 
( 0.00342423 0.0128939 0.00411396 ) 0 
( 0.00198611 0.00893084 0.00507742 ) 0 
( 0.00754859 0.00278395 0.00049981 ) 0 
( 0.00896391 0.00741381 0.00360236 ) 0 
( 0.00506692 0.00517434 0.00222622 ) 0 
( 0.00919267 0.00748963 0.00140121 ) 0 
( 0.00845153 0.003472 0.00118822 ) 0 
( 0.00378851 0.0126566 0.00321356 ) 0 
( 0.0083609 0.00509529 0.00049975 ) 0 
( 2.13921e-05 0.00221944 0.00722734 ) 0 
( 0.00318885 0.00233474 0.00440415 ) 0 
( 0.00411067 0.000308859 0.00536727 ) 0 
( 0.0103781 0.000284666 0.00698797 ) 0 
( 0.00839877 0.00822461 0.0010916 ) 0 
( 0.00534161 0.0059671 0.0077606 ) 0 
( 0.0074101 0.00161656 0.00507979 ) 0 
( 0.000429521 0.00216574 0.00822053 ) 0 
( 0.0081949 0.00472925 0.00189329 ) 0 
( 0.0014293 0.00313573 0.00624389 ) 0 
( 0.00351252 0.00529931 0.00660193 ) 0 
( 0.00379946 0.0118066 0.00505865 ) 0 
( 0.0121675 0.00236461 0.000499889 ) 0 
( 0.00165417 0.00785686 0.00670288 ) 0 
( 0.0110503 0.00748691 0.00414951 ) 0 
( 0.00658071 0.00352532 0.00508621 ) 0 
( 0.00205075 0.00980389 0.000499712 ) 0 
( 0.00862766 0.010188 0.00634945 ) 0 
( 0.0073075 0.00897513 0.00504687 ) 0 
( 0.00346728 0.0092295 0.0013396 ) 0 
( 0.000751546 0.00144692 0.00670944 ) 0 
( 0.00614743 0.00699984 0.00580378 ) 0 
( 0.000380318 0.007285 0.00164137 ) 0 
( 0.00204775 0.00691791 0.00548835 ) 0 
( 0.0119696 0.00590943 0.00341662 ) 0 
( 0.00247487 0.0131187 0.0012667 ) 0 
( 0.00214721 0.00636257 0.00049968 ) 0 
( 0.00542583 0.000733005 0.00851068 ) 0 
( 0.0102886 0.00850667 0.00137643 ) 0 
( 0.00164493 0.00611082 0.00134448 ) 0 
( 0.00461441 0.00167291 0.00388768 ) 0 
( 0.00235093 0.00149797 0.00657296 ) 0 
( 0.00028733 0.00154209 0.00148115 ) 0 
( 0.00448306 0.00103904 0.000499876 ) 0 
( 0.00656348 0.0116253 0.00472817 ) 0 
( 0.0105227 0.0049692 0.000499811 ) 0 
( 0.00830863 0.00661374 0.000499577 ) 0 
( 0.0100767 0.00735234 0.00649922 ) 0 
( 0.006429 0.000352478 0.00310983 ) 0 
( 0.00306988 0.00125838 0.00133206 ) 0 
( 0.00968449 0.00153017 0.00588331 ) 0 
( 0.00555542 0.00936558 0.00458712 ) 0 
( 0.000347764 0.0105918 0.00578617 ) 0 
( 0.00800785 0.0076871 0.00692812 ) 0 
( 0.0023683 0.00310649 0.00662384 ) 0 
( 0.00384874 0.00180413 0.00164044 ) 0 
( 0.00756221 0.00697039 0.00639194 ) 0 
( 0.0035409 0.00821418 0.00214188 ) 0 
( 0.00145354 0.0047562 0.00440807 ) 0 
( 0.00351396 0.00869684 0.00345198 ) 0 
( 0.00481885 0.00673626 0.00676735 ) 0 
( 0.00801741 0.00335808 0.00594476 ) 0 
( 0.00213261 0.00043967 0.00557366 ) 0 
( 0.00626786 0.0104285 0.00318726 ) 0 
( 0.00887547 0.00764238 0.00263267 ) 0 
( 0.00245588 0.00558109 0.00454605 ) 0 
( 0.00369759 0.0108756 0.00564384 ) 0 
( 0.00244047 0.00416019 0.00591897 ) 0 
( 0.00932821 0.00216297 0.00518849 ) 0 
( 0.00503768 0.00159792 0.00119565 ) 0 
( 0.000780127 6.05206e-05 0.0013238 ) 0 
( 0.00505035 0.0049386 0.000499646 ) 0 
( 0.00749345 0.00837055 0.00149033 ) 0 
( 0.000773399 0.0019999 0.00393635 ) 0 
( 0.00646112 0.00880655 0.00420159 ) 0 
( 0.00626657 0.00532628 0.00665505 ) 0 
( 0.00432579 0.00142293 0.00292601 ) 0 
( 0.0128668 0.00355942 0.00226372 ) 0 
( 0.00381004 0.00968502 0.00494308 ) 0 
( 0.00238739 0.00477242 0.00513021 ) 0 
( 0.000597876 0.0112292 0.00282586 ) 0 
( 0.00285488 0.0120829 0.00348433 ) 0 
( 0.00582385 0.000903048 0.00716309 ) 0 
( 0.0018831 0.00326136 0.00347201 ) 0 
( 0.00223051 0.0121891 0.00644677 ) 0 
( 0.00417701 0.00111283 0.00813268 ) 0 
( 0.00988589 0.00897179 0.00684337 ) 0 
( 0.000299569 0.0116912 0.00659014 ) 0 
( 0.00310761 0.00904562 0.00430329 ) 0 
( 0.000450517 0.00484189 0.00546408 ) 0 
( 0.00674392 0.00815377 0.00739498 ) 0 
( 0.00572242 0.0120614 0.00275123 ) 0 
( 0.0121662 0.00219766 0.00416222 ) 0 
( 0.00130437 2.99962e-05 0.00217463 ) 0 
( 0.0041681 0.00867869 0.00678821 ) 0 
( 0.00698126 0.00678019 0.000499766 ) 0 
( 0.00466033 0.00227604 0.00586813 ) 0 
( 0.0065946 0.0106224 0.00147743 ) 0 
( 0.00714351 0.000935804 0.003502 ) 0 
( 0.00388214 0.00397677 0.000499618 ) 0 
( 0.00084975 0.0054145 0.00796198 ) 0 
( 0.00496131 0.00693889 0.00191361 ) 0 
( 0.00278262 0.00461875 0.00673892 ) 0 
( 0.0123737 0.00500524 0.00497133 ) 0 
( 0.0104306 0.00171821 0.000499574 ) 0 
( 0.0128191 0.00372831 0.00725975 ) 0 
( 0.00964108 0.00204551 0.00208267 ) 0 
( 0.0124804 0.00463023 0.00685475 ) 0 
( 0.000403084 0.00248995 0.00186328 ) 0 
( 0.00932155 0.000510616 0.00141381 ) 0 
( 0.000335851 0.00496336 0.00334441 ) 0 
( 0.00451704 0.0108384 0.000499741 ) 0 
( 0.000124152 0.00729406 0.00423747 ) 0 
( 0.00193707 0.0103929 0.00641064 ) 0 
( 0.00428244 0.00342923 0.00327258 ) 0 
( 0.0083777 0.00526007 0.00783755 ) 0 
( 2.87103e-06 0.000232941 0.00697859 ) 0 
( 0.00775362 0.00107183 0.00687593 ) 0 
( 0.000481928 0.011122 0.000499655 ) 0 
( 0.00149794 0.00568005 0.00402801 ) 0 
( 0.00655919 0.00802741 0.00206813 ) 0 
( 0.00332397 0.0102639 0.00310866 ) 0 
( 0.00260362 0.00765302 0.00190853 ) 0 
( 0.00890059 0.0065313 0.00130102 ) 0 
( 0.00534056 0.0102737 0.00368003 ) 0 
( 0.0050419 0.0103149 0.00509286 ) 0 
( 0.00288551 0.00619183 0.00673089 ) 0 
( 0.000817766 0.0133247 0.00427331 ) 0 
( 0.00793869 0.00973137 0.00196388 ) 0 
( 0.00306984 0.00471615 0.00320502 ) 0 
( 0.00439694 0.0110774 0.006329 ) 0 
( 0.00407542 0.00207533 0.00838393 ) 0 
( 0.00833953 0.00673764 0.00580787 ) 0 
( 0.00602299 0.00399445 0.00777446 ) 0 
( 0.00764736 0.000975529 0.000499601 ) 0 
( 0.00171182 0.00394254 0.0052697 ) 0 
( 0.00353353 0.0103717 0.000499808 ) 0 
( 0.000904183 0.0127821 0.00343756 ) 0 
( 0.00328713 0.00526589 0.00509191 ) 0 
( 0.00100634 0.00987336 0.00196422 ) 0 
( 0.00859084 0.00913542 0.00352043 ) 0 
( 0.00632677 0.00578612 0.00491038 ) 0 
( 0.00525103 0.0101911 0.00621427 ) 0 
( 0.00425692 0.00936586 0.00343577 ) 0 
( 0.0024494 0.00247203 0.00374493 ) 0 
( 0.0064758 0.000722223 0.00511929 ) 0 
( 0.00195187 0.00957572 0.00209503 ) 0 
( 0.00441891 0.0095182 0.00144358 ) 0 
( 0.00553793 0.000225631 0.0035455 ) 0 
( 0.00206047 0.00271755 0.00138438 ) 0 
( 0.00955742 0.00401862 0.00296499 ) 0 
( 0.00667947 0.0106827 0.00509446 ) 0 
( 0.000268506 0.00912958 0.0073426 ) 0 
( 0.00530484 0.00311878 0.0058242 ) 0 
( 0.00214465 0.00815461 0.00446734 ) 0 
( 0.00196839 0.000713312 0.00148666 ) 0 
( 0.00742909 0.00721459 0.00401861 ) 0 
( 0.00512682 0.0123262 0.00353419 ) 0 
( 0.0083188 0.00414903 0.00483924 ) 0 
( 0.000385859 0.00981921 0.00514774 ) 0 
( 0.0029378 0.00186068 0.00836879 ) 0 
( 0.0111803 0.00571945 0.00187576 ) 0 
( 0.011388 0.00112948 0.00198202 ) 0 
( 0.00848225 0.00175599 0.00692313 ) 0 
( 0.00513471 0.00942957 0.00554813 ) 0 
( 0.00839338 0.00179598 0.00512313 ) 0 
( 0.00345945 0.00773597 0.000499799 ) 0 
( 0.00436843 0.00581282 0.00665966 ) 0 
( 0.0102921 0.00458288 0.00629414 ) 0 
( 0.000873134 0.00743479 0.00491572 ) 0 
( 0.00757762 0.0081301 0.0026843 ) 0 
( 0.0110675 0.00303248 0.00493099 ) 0 
( 0.00773005 0.00991262 0.00600656 ) 0 
( 0.00554559 0.00672904 0.00302371 ) 0 
( 0.000118554 0.00375398 0.00730663 ) 0 
( 0.00396678 0.00320717 0.00833578 ) 0 
( 0.00801044 0.000821366 0.00497374 ) 0 
( 0.00175683 0.000288673 0.00793107 ) 0 
( 0.00170746 0.00209616 0.00595052 ) 0 
( 0.00314528 0.0022199 0.00691426 ) 0 
( 0.0087562 0.000324218 0.00049963 ) 0 
( 0.00984903 0.00901225 0.0044577 ) 0 
( 0.00067106 0.00456707 0.00688715 ) 0 
( 0.00126514 0.00143604 0.0010131 ) 0 
( 0.00882615 0.00261432 0.00222842 ) 0 
( 0.0032526 0.00140522 0.00490204 ) 0 
( 0.00624776 0.00132093 0.00328029 ) 0 
( 0.00716616 0.00966498 0.00680274 ) 0 
( 0.00713243 0.00419807 0.00455651 ) 0 
( 0.00336281 0.00616171 0.00465421 ) 0 
( 0.0119379 0.00204026 0.00170217 ) 0 
( 0.000276177 0.0124885 0.00418923 ) 0 
( 0.000642279 0.0124275 0.00512636 ) 0 
( 0.00888941 0.00302449 0.00630215 ) 0 
( 0.0027021 0.00082792 0.0021562 ) 0 
( 0.0130938 0.00228793 0.00192107 ) 0 
( 0.00228214 0.0112488 0.00679556 ) 0 
( 0.00324047 0.00447944 0.0044599 ) 0 
( 0.00540911 0.00940088 0.00136927 ) 0 
( 0.0079575 0.0107194 0.00211643 ) 0 
( 0.0103853 0.00399931 0.00352544 ) 0 
( 0.0102383 0.0019851 0.00755397 ) 0 
( 0.0060361 0.00240138 0.00446624 ) 0 
( 0.00337458 0.00258051 0.00782955 ) 0 
( 0.0012155 0.00420235 0.00267613 ) 0 
( 0.0103215 0.00152331 0.00666241 ) 0 
( 0.000984553 0.00559525 0.00491587 ) 0 
( 0.00655127 0.000244358 0.00697113 ) 0 
( 0.00386669 0.00776113 0.00452219 ) 0 
( 0.0132525 0.0014632 0.000499651 ) 0 
( 0.00755656 0.0018579 0.00746166 ) 0 
( 0.00542359 0.000537846 0.00211557 ) 0 
( 0.00555475 0.00319684 0.00485735 ) 0 
( 0.00224672 0.00141441 0.00538171 ) 0 
( 0.00102476 0.00906855 0.00531546 ) 0 
( 0.00871515 0.00561968 0.00166725 ) 0 
( 0.00963336 0.000323107 0.0053841 ) 0 
( 0.000840711 0.00165491 0.00284046 ) 0 
( 0.000535783 0.0110416 0.00380916 ) 0 
( 0.00486716 0.003681 0.00666067 ) 0 
( 0.00400331 1.82448e-07 0.00205056 ) 0 
( 0.00274062 0.00670408 0.00821454 ) 0 
( 0.00215264 0.0046717 0.00751409 ) 0 
( 0.00972159 0.000856537 0.00226237 ) 0 
( 0.0118686 0.00369921 0.00163728 ) 0 
( 0.0038281 0.0102949 0.00658068 ) 0 
( 0.0104178 0.00404581 0.00205853 ) 0 
( 0.0040137 0.00690371 0.000499708 ) 0 
( 0.00112784 0.00732981 0.00603574 ) 0 
( 0.000420155 0.0116338 0.007581 ) 0 
( 0.00116493 0.000615345 0.00534821 ) 0 
( 0.00355465 0.00956183 0.00721954 ) 0 
( 0.000233467 0.00650266 0.00739506 ) 0 
( 0.00249238 0.000690024 0.00467243 ) 0 
( 0.0127503 0.00317703 0.000499483 ) 0 
( 0.0132902 0.00126276 0.00395054 ) 0 
( 0.00251579 0.00740521 0.000499733 ) 0 
( 0.00380581 0.000585012 0.00126404 ) 0 
( 0.0129827 0.00311007 0.00433235 ) 0 
( 0.0072108 0.0112345 0.00407417 ) 0 
( 0.00998195 0.0058103 0.000499742 ) 0 
( 0.00436476 0.0100425 0.00577601 ) 0 
( 0.00412018 0.00150415 0.00553341 ) 0 
( 0.00270471 0.0102139 0.00115179 ) 0 
( 0.00934506 0.00953418 0.001629 ) 0 
( 0.00339101 0.00492129 0.000499739 ) 0 
( 0.00938114 0.0058397 0.00534718 ) 0 
( 0.012209 0.00221028 0.00751588 ) 0 
( 0.00915131 0.00721202 0.00614781 ) 0 
( 0.00968623 0.00377209 0.00134972 ) 0 
( 0.0112001 0.00181648 0.00628571 ) 0 
( 0.000910919 0.0133189 0.00664057 ) 0 
( 0.00727114 0.00932731 0.00130012 ) 0 
( 0.00179086 0.00465632 0.000499562 ) 0 
( 0.0124283 0.000576656 0.00539351 ) 0 
( 0.00284865 0.0111201 0.00517097 ) 0 
( 0.00453151 0.00433575 0.00437599 ) 0 
( 0.00832788 0.00399647 0.00379308 ) 0 
( 0.00682191 0.0114755 0.000967454 ) 0 
( 0.00404254 0.00745288 0.00821029 ) 0 
( 0.0126508 0.00328035 0.00340445 ) 0 
( 0.000436637 0.00165822 0.000499535 ) 0 
( 0.00247037 0.0120205 0.00740244 ) 0 
( 0.00106354 0.00736118 0.00388683 ) 0 
( 0.00298905 0.00383289 0.00373171 ) 0 
( 0.00381499 0.000807231 0.00618221 ) 0 
( 0.00814726 0.00941781 0.00676845 ) 0 
( 0.00649935 8.57938e-06 0.000499864 ) 0 
( 0.011122 0.00355355 0.00403386 ) 0 
( 0.00524096 0.0034192 0.00355733 ) 0 
( 0.000433034 0.00308224 0.00663612 ) 0 
( 0.011549 0.00275597 0.00360795 ) 0 
( 0.00280964 0.011213 0.00412016 ) 0 
( 0.00644811 0.00736081 0.00686279 ) 0 
( 0.0062911 0.00273124 0.00563752 ) 0 
( 0.0122555 0.00405445 0.000499768 ) 0 
( 0.00341278 0.0091416 0.00632356 ) 0 
( 0.0115539 4.38949e-05 0.000499632 ) 0 
( 0.00725294 0.0112083 0.00672033 ) 0 
( 0.00441952 0.00788131 0.00623982 ) 0 
( 0.00704444 0.00321601 0.00424543 ) 0 
( 0.0011058 0.00367897 0.00716719 ) 0 
( 0.0111493 0.00165165 0.00459624 ) 0 
( 0.00399617 0.00270735 0.00392037 ) 0 
( 0.00270011 0.0130694 0.0034312 ) 0 
( 0.000253726 0.000568781 0.00822093 ) 0 
( 0.00144925 0.00488986 0.00545577 ) 0 
( 0.00535389 0.00571027 0.00679212 ) 0 
( 0.00523797 0.0092446 0.00364663 ) 0 
( 0.0108478 0.00635497 0.00427903 ) 0 
( 0.0106298 0.00341907 0.00130905 ) 0 
( 0.00745563 0.00144454 0.00136326 ) 0 
( 0.00741645 0.000280585 0.00636593 ) 0 
( 0.00174068 0.0013859 0.00225844 ) 0 
( 0.00324642 0.00625875 0.000499836 ) 0 
( 0.0013737 0.00928028 0.00432854 ) 0 
( 0.00833853 0.00578123 0.00666689 ) 0 
( 0.0072112 0.00815152 0.00429153 ) 0 
( 0.00288806 0.000736125 0.000499453 ) 0 
( 0.00635697 0.00688123 0.00131779 ) 0 
( 0.00122043 0.00900043 0.00761943 ) 0 
( 0.00185518 0.00904155 0.00684819 ) 0 
( 0.00326812 0.00320918 0.00705919 ) 0 
( 0.00194302 0.00744599 0.00327254 ) 0 
( 0.00643033 0.00585776 0.00748623 ) 0 
( 0.00344803 0.00308448 0.000622062 ) 0 
( 0.00312341 0.000571748 0.00543929 ) 0 
( 0.00695829 0.00764125 0.00106219 ) 0 
( 0.00142431 0.0118175 0.00211737 ) 0 
( 0.00898437 0.00587682 0.000499815 ) 0 
( 0.00220589 0.008568 0.00197549 ) 0 
( 0.0119879 0.00320323 0.00439076 ) 0 
( 0.00192624 0.0127861 0.000499762 ) 0 
( 0.0101547 0.00230082 0.00126382 ) 0 
( 0.00683527 0.00479213 0.00349741 ) 0 
( 0.000950186 0.00531053 0.00625109 ) 0 
( 0.00588783 0.0119627 0.00538355 ) 0 
( 0.00410869 0.00207605 0.00471307 ) 0 
( 0.0101409 0.00105813 0.0047871 ) 0 
( 0.00343217 0.00634209 0.00312154 ) 0 
( 0.00613103 0.00337885 0.000499746 ) 0 
( 0.00800221 0.000338138 0.003796 ) 0 
( 0.00675931 0.0087951 0.00652511 ) 0 
( 0.00155658 0.00857874 0.00601377 ) 0 
( 0.0123465 0.000645991 0.0011691 ) 0 
( 0.00493423 0.0056123 0.00122887 ) 0 
( 0.0133233 0.000100962 0.00142964 ) 0 
( 0.0112232 0.00446278 0.00163721 ) 0 
( 0.0054995 0.0110581 0.00049974 ) 0 
( 0.0059465 0.0119525 0.000499763 ) 0 
( 0.00519188 0.0122992 0.00171326 ) 0 
( 0.00300972 0.00952001 0.000499633 ) 0 
( 0.000645289 0.00885567 0.00632299 ) 0 
( 0.00567854 0.0077465 0.00168712 ) 0 
( 0.0117204 0.00639186 0.00747681 ) 0 
( 0.00930102 0.00833247 0.0051072 ) 0 
( 0.00160293 0.00113315 0.00713127 ) 0 
( 0.0114196 0.00519822 0.000989047 ) 0 
( 0.00438494 0.00984677 0.000499828 ) 0 
( 0.000982876 0.000906659 0.00181615 ) 0 
( 0.00382556 0.00868603 0.00489995 ) 0 
( 0.0102675 0.00609802 0.00271404 ) 0 
( 0.0121601 0.00136474 0.000499732 ) 0 
( 0.00367047 0.00231754 0.00603666 ) 0 
( 0.00448239 0.00205267 0.000499586 ) 0 
( 0.00231964 0.013147 0.00556469 ) 0 
( 0.00160117 0.0123802 0.00774075 ) 0 
( 0.0011731 0.00834771 0.00462993 ) 0 
( 0.00149431 0.0132563 0.00140484 ) 0 
( 0.00721046 0.0016241 0.00277531 ) 0 
( 0.000438195 0.00979911 0.00658199 ) 0 
( 0.00497188 0.00148572 0.00492725 ) 0 
( 0.00228148 0.00410573 0.00438352 ) 0 
( 0.0119957 0.00585897 0.00532957 ) 0 
( 0.000751766 0.00815073 0.00560296 ) 0 
( 0.00503116 0.0123551 0.000499866 ) 0 
( 0.00547544 0.00227067 0.00528782 ) 0 
( 0.00792812 0.00612236 0.00488525 ) 0 
( 0.00702291 0.00299597 0.00304716 ) 0 
( 0.00382447 0.00537078 0.00316146 ) 0 
( 0.0119459 0.00311835 0.0027138 ) 0 
( 0.0109032 0.00770371 0.00521574 ) 0 
( 0.00269376 0.00616979 0.00377346 ) 0 
( 0.00123142 0.0023272 0.00679895 ) 0 
( 0.00246454 0.011775 0.00200786 ) 0 
( 0.00843672 0.00517186 0.00484916 ) 0 
( 0.0128028 0.00378421 0.00129162 ) 0 
( 0.00501092 0.00785741 0.000499655 ) 0 
( 0.000531306 0.00311348 0.00479712 ) 0 
( 0.000867411 0.000310794 0.00747497 ) 0 
( 0.00699438 0.00854268 0.00339585 ) 0 
( 0.00849662 0.00876986 0.00550844 ) 0 
( 0.00989179 0.00766417 0.00556681 ) 0 
( 4.34259e-05 0.00896118 0.0055314 ) 0 
( 0.0108016 0.0069058 0.00217016 ) 0 
( 0.00980299 0.00136222 0.00119159 ) 0 
( 0.00364815 0.00596443 0.00733621 ) 0 
( 0.00869751 0.00415392 0.00049971 ) 0 
( 0.00500054 0.000590718 0.0066896 ) 0 
( 0.0120331 0.00298339 0.00680475 ) 0 
( 0.00545359 0.0110255 0.00568566 ) 0 
( 0.00904144 0.00452151 0.00425696 ) 0 
( 0.00330807 0.00996237 0.00576225 ) 0 
( 0.00443861 0.00314096 0.000499692 ) 0 
( 0.00846271 0.00920062 0.00129811 ) 0 
( 0.00707652 0.00106202 0.0058428 ) 0 
( 0.00778813 0.00623517 0.007367 ) 0 
( 0.0103759 0.00368904 0.00675959 ) 0 
( 0.00867459 0.00872924 0.00443045 ) 0 
( 0.00833323 0.00732669 0.00443113 ) 0 
( 0.00738212 0.00997189 0.00507139 ) 0 
( 0.000429147 0.0055619 0.0070668 ) 0 
( 0.00723665 0.000529454 0.00441094 ) 0 
( 0.0029489 0.00770046 0.00793397 ) 0 
( 0.00246564 0.00294629 0.000499606 ) 0 
( 0.00588724 0.011978 0.00408187 ) 0 
( 0.00754053 0.0103654 0.00127962 ) 0 
( 0.00938145 0.00368625 0.00686713 ) 0 
( 0.0109987 0.00587348 0.00622559 ) 0 
( 0.00761598 0.00860521 0.00700699 ) 0 
( 0.0124678 2.31842e-05 0.00194172 ) 0 
( 0.000961402 0.00587607 0.00317302 ) 0 
( 0.0130038 0.0027948 0.00695299 ) 0 
( 0.00110632 0.00712339 0.0071133 ) 0 
( 0.00778891 0.0013561 0.00415781 ) 0 
( 0.00501603 0.00424395 0.00747377 ) 0 
( 0.00660001 0.000990249 0.00191068 ) 0 
( 0.000355657 0.0133183 0.00278457 ) 0 
( 0.000703461 0.00871421 0.000499799 ) 0 
( 0.00692877 0.00247662 0.00491055 ) 0 
( 0.00967133 0.00791909 0.000499779 ) 0 
( 0.00480723 0.00254011 0.00335968 ) 0 
( 0.00806179 0.00740347 0.00317156 ) 0 
( 0.00121978 0.00417583 0.00614843 ) 0 
( 0.00970439 0.00064161 0.000499724 ) 0 
( 0.0016221 0.00348311 0.000499828 ) 0 
( 0.00710641 0.00301419 0.00620835 ) 0 
( 0.00365115 0.00737277 0.0054539 ) 0 
( 0.00800657 0.00814851 0.00489748 ) 0 
( 0.00862987 0.0101857 0.00137705 ) 0 
( 0.0104011 0.00548147 0.00447191 ) 0 
( 0.00685378 0.0014867 0.00674139 ) 0 
( 0.000162051 0.00700691 0.000499742 ) 0 
( 0.00126338 0.0116578 0.00498072 ) 0 
( 0.00842712 0.00477452 0.00587125 ) 0 
( 0.0118956 0.00393951 0.0050634 ) 0 
( 0.00775403 0.0108677 0.00482893 ) 0 
( 8.68267e-05 0.00534573 0.000499534 ) 0 
( 0.0116984 0.00643131 0.00140204 ) 0 
( 0.0107439 0.00242621 0.00410627 ) 0 
( 0.00200078 0.0100705 0.00440428 ) 0 
( 0.00490824 0.00902497 0.00216287 ) 0 
( 0.00977013 0.00364693 0.00594657 ) 0 
( 0.00172682 0.00410801 0.00133307 ) 0 
( 0.00616146 0.00742156 0.00049968 ) 0 
( 0.00365446 0.00629744 0.00827882 ) 0 
( 0.00273103 0.00897072 0.00743278 ) 0 
( 0.00110562 0.00296355 0.00121942 ) 0 
( 0.00637324 0.00862382 0.00520191 ) 0 
( 0.000104472 0.00711469 0.00661486 ) 0 
( 0.0113988 0.00526979 0.00448671 ) 0 
( 0.00780613 0.000667155 0.00188518 ) 0 
( 0.005091 0.00845573 0.00129666 ) 0 
( 0.00225161 0.0106446 0.00351519 ) 0 
( 0.00368943 0.00998639 0.00399715 ) 0 
( 0.00209291 0.0119172 0.00411035 ) 0 
( 0.0109725 0.00594648 0.000499633 ) 0 
( 0.0090133 0.00926539 0.00621662 ) 0 
( 0.00119597 0.00948266 0.000907964 ) 0 
( 0.00597879 0.00864362 0.00334108 ) 0 
( 0.00663218 0.00426769 0.00141738 ) 0 
( 0.00435167 0.00855098 0.00401046 ) 0 
( 0.00654641 0.00679291 0.00371175 ) 0 
( 0.00768686 0.0109026 0.00587311 ) 0 
( 0.00861406 0.00847416 0.00667966 ) 0 
( 0.0096381 0.00554304 0.00346867 ) 0 
( 0.00978453 0.00201906 0.00403523 ) 0 
( 0.00386321 0.00177856 0.0074532 ) 0 
( 0.00116666 0.00655963 0.000499848 ) 0 
( 0.00537953 0.00249743 0.00148259 ) 0 
( 0.0118997 0.00382714 0.00628458 ) 0 
( 0.00477913 0.00037036 0.00784009 ) 0 
( 0.00482296 0.00874697 0.00487033 ) 0 
( 0.0058288 0.00870047 0.00194633 ) 0 
( 0.0042219 0.00482509 0.00104756 ) 0 
( 0.00232415 0.011867 0.000499824 ) 0 
( 0.0014549 0.0113703 0.000499632 ) 0 
( 0.0077545 0.002505 0.00549419 ) 0 
( 0.0102165 0.00751736 0.00123534 ) 0 
( 0.0048458 0.00736803 0.00334308 ) 0 
( 6.94366e-05 0.000907911 0.00222273 ) 0 
( 0.00601518 0.00588967 0.00275005 ) 0 
( 0.00831833 0.000237796 0.00829642 ) 0 
( 0.00562683 0.0104569 0.00128842 ) 0 
( 0.0131568 0.00226276 0.00383075 ) 0 
( 0.00537327 0.00707759 0.00100977 ) 0 
( 0.00153144 0.0065071 0.00826016 ) 0 
( 0.00259404 0.00714439 0.00397374 ) 0 
( 0.00768755 0.00578885 0.00392538 ) 0 
( 0.00354445 0.00831086 0.00578313 ) 0 
( 0.00580341 0.00144063 0.00431572 ) 0 
( 0.0126113 0.0042761 0.00348899 ) 0 
( 0.00336289 0.00820516 0.00716481 ) 0 
( 0.00944622 0.00677604 0.000499782 ) 0 
( 0.00434116 0.00598202 0.00524915 ) 0 
( 0.00380351 0.0118455 0.00607701 ) 0 
( 0.00872438 0.00344159 0.00306182 ) 0 
( 0.00244877 0.00540936 0.000499463 ) 0 
( 0.00392321 0.0111658 0.00123449 ) 0 
( 0.00460681 0.00957417 0.00434908 ) 0 
( 0.000971772 0.00717756 0.00287341 ) 0 
( 0.00266792 0.00573193 0.00229417 ) 0 
( 0.0120745 0.00127419 0.00453465 ) 0 
( 0.00373722 0.0110105 0.00363822 ) 0 
( 0.00126361 0.0124273 0.00433843 ) 0 
( 0.000876349 0.00473784 0.00869749 ) 0 
( 0.00546745 0.00835692 0.00553063 ) 0 
( 0.00563427 0.0088417 0.000499801 ) 0 
( 0.00658151 0.00100565 0.000499841 ) 0 
( 0.0063772 0.00483482 0.00440131 ) 0 
( 0.00263133 0.00595112 0.00131939 ) 0 
( 0.0102096 0.00860171 0.00542491 ) 0 
( 0.00298095 0.0130131 0.00744536 ) 0 
( 0.000864347 0.00634014 0.00645075 ) 0 
( 0.00230066 0.00689457 0.00133194 ) 0 
( 0.0123283 0.00508651 0.00297609 ) 0 
( 0.00797064 0.00584191 0.00103787 ) 0 
( 0.0109874 0.0043741 0.00465672 ) 0 
( 0.00918183 0.00854284 0.00297309 ) 0 
( 0.00958638 0.00104248 0.00395242 ) 0 
( 0.00930095 0.00779797 0.00694514 ) 0 
( 0.0031446 0.00345764 0.00609716 ) 0 
( 0.0029068 0.00184292 0.00212656 ) 0 
( 0.00605059 0.00191881 0.00715384 ) 0 
( 0.00997602 0.00887152 0.000499718 ) 0 