FoamFile
{version 2.0; format ascii;class vectorField; location 0;object  v;}
2477
(
( 0.000740568 0.00272763 0.0184882 )  
( 0.00165029 0.000346799 0.0199368 )  
( 0.000462775 0.00109886 0.0174166 )  
( 0.00259224 0.000397354 0.016777 )  
( -0.000833873 -6.00613e-05 3.07325e-05 )  
( 0.000368807 0.00217463 0.0201178 )  
( -0.000782405 -0.000204801 0.0161034 )  
( 0.000466518 0.000574302 0.0176428 )  
( 0.00114718 0.00236308 0.0137544 )  
( 0.000110812 -0.000157275 0.0198021 )  
( 0.00092636 -0.000482085 0.0106736 )  
( 0.000372607 0.00110396 -0.0002947 )  
( 0.000673985 7.16648e-05 1.03152e-05 )  
( -0.000165986 0.00230387 0.0176154 )  
( 0.000298458 0.000400436 0.0133186 )  
( -0.00190348 -0.00066356 0.0186422 )  
( 0.000133058 -0.000425997 0.000251447 )  
( -9.27397e-05 -0.000193868 0.0194419 )  
( -0.000701177 -6.31321e-05 0.0199131 )  
( -0.000454969 0.000191338 5.27668e-06 )  
( 0.00226786 0.00209853 0.0176609 )  
( -0.000957744 0.00181086 0.0110905 )  
( -0.000610272 -4.66114e-05 0.0107174 )  
( 0.000788908 0.000376174 0.0191246 )  
( 0.00146459 -2.44472e-05 0.0179063 )  
( 0.00251926 0.00157494 0.0166136 )  
( -0.00379219 0.00145553 -0.00195294 )  
( -0.00113932 0.00561197 0.0127512 )  
( 0.000333813 0.000517986 0.0196195 )  
( 0.000689268 0.000642218 0.0184872 )  
( -5.39988e-05 -0.00075591 -1.17415e-05 )  
( -0.000943302 5.83878e-05 0.000273201 )  
( 0.0011269 -0.000436247 0.0156034 )  
( -2.61491e-05 0.00100649 0.0147945 )  
( -0.000674015 0.000137849 0.0110928 )  
( -0.00273577 0.00418321 0.0192642 )  
( 0.000704034 -0.00198195 0.0123669 )  
( -0.000319569 -0.00114672 0.0157822 )  
( -0.000545466 0.0036698 0.0129902 )  
( -0.000188011 -0.000477662 -2.86889e-05 )  
( -0.000235686 0.000212919 0.0142646 )  
( -5.57896e-05 0.00413891 0.0123913 )  
( -0.00202417 -0.00172632 0.0134411 )  
( 0.00251267 0.000303504 0.01381 )  
( -0.000527113 -0.00304248 0.0134378 )  
( -0.00200449 -0.000693321 0.013321 )  
( -0.00119867 0.00141632 0.0185618 )  
( -0.00030833 0.000787645 0.0153914 )  
( 0.00133353 -0.000909833 0.0180729 )  
( -0.000584305 0.00266946 0.020881 )  
( -4.17629e-05 0.0042609 0.0132464 )  
( -0.000184761 -0.000358576 4.22575e-05 )  
( 0.00144731 0.000353467 0.010487 )  
( -0.000259764 0.000349568 0.0173033 )  
( -0.000148845 -0.000206897 6.50883e-06 )  
( -0.000639332 -0.000362536 0.0199899 )  
( 0.000109241 -0.00155883 0.0137552 )  
( 0.000114314 0.000347113 0.000330109 )  
( 0.00149982 8.47957e-05 0.0209861 )  
( 0.000359442 -0.000677049 -0.000409493 )  
( 0.000867662 -0.000795086 0.0176718 )  
( 0.00025287 -8.06789e-05 1.49632e-05 )  
( -0.000946541 0.00109699 0.0156099 )  
( 0.000723329 -0.000799992 0.015777 )  
( -0.000750147 -0.000171342 3.29153e-05 )  
( 0.000686794 0.000944924 0.0175286 )  
( 0.000341899 0.000220562 0.000258043 )  
( -2.55334e-05 -0.000739177 4.79389e-06 )  
( -0.00250046 0.000552683 0.0162797 )  
( 0.000194808 -0.00152625 0.012614 )  
( 0.00141955 0.000234957 0.0149265 )  
( 2.38536e-05 -0.000877972 -0.000131789 )  
( 0.00133811 0.000372351 0.0175364 )  
( 0.00242554 0.00282084 0.0124618 )  
( 0.000313348 -0.000899456 -3.02631e-05 )  
( -0.00022735 0.000298734 0.0110022 )  
( 0.00154675 0.000348647 0.0150635 )  
( 6.8501e-05 -0.000120575 1.85983e-05 )  
( 0.00195889 -0.000874187 0.0124619 )  
( 0.00176713 -0.00078993 0.0155531 )  
( -0.000939752 0.000827476 0.0198396 )  
( 0.000185923 -0.00045195 -4.39768e-05 )  
( -0.00185779 -0.00128822 0.01833 )  
( -0.000179219 -0.00190422 -0.000647935 )  
( 0.00091313 -0.000402836 0.0136176 )  
( -0.000136155 -0.000663916 0.0165062 )  
( 0.000847748 -0.000735248 0.0172262 )  
( -0.000700353 0.00247897 0.0147904 )  
( -0.00127322 -0.001318 0.0193782 )  
( -0.000176034 -9.08857e-05 -0.000123177 )  
( 4.16253e-05 1.49608e-05 -0.000280172 )  
( 0.00183937 -5.06381e-05 0.0157424 )  
( -0.000493992 0.000318862 -7.02961e-05 )  
( 0.000621478 0.00197697 0.0186796 )  
( -0.000530651 -0.00212954 0.0132011 )  
( 0.000882988 -0.00240324 0.0190661 )  
( 0.000247817 3.91368e-05 -7.15261e-05 )  
( -1.81213e-05 1.36939e-05 -8.58723e-05 )  
( 0.000435007 0.00170828 0.0165671 )  
( 0.000498011 -0.000739592 0.01981 )  
( 0.00245872 -0.00340011 0.0123571 )  
( -8.96714e-05 9.57724e-05 0.0194251 )  
( 0.00028171 -0.000236622 -8.37042e-06 )  
( -0.00486959 -0.00269223 0.0219158 )  
( 0.00164356 0.00122588 0.0145778 )  
( 0.000372717 -0.000301135 -1.58759e-05 )  
( -0.00126867 0.00412266 0.015746 )  
( 0.00232547 0.00133854 0.0180714 )  
( 3.08888e-05 0.00180505 0.0130205 )  
( -0.000527969 0.00262814 0.0191578 )  
( 0.00229339 -0.00252575 0.0175857 )  
( -0.00195952 0.000585447 0.0192574 )  
( -7.02436e-05 0.00363898 0.00600703 )  
( -0.00184105 0.00144834 0.0150306 )  
( -0.00026674 -0.000146623 -0.000282829 )  
( 6.38713e-05 -7.17423e-05 1.0815e-05 )  
( 0.00016183 -0.000480769 1.46849e-06 )  
( -0.000312205 -0.00104985 0.0159963 )  
( -9.32975e-05 2.61525e-05 0.000109939 )  
( -0.00238124 0.00124303 0.0189616 )  
( 8.79858e-05 0.000130171 9.28262e-05 )  
( -0.00194073 -0.000624152 0.011572 )  
( -0.00190217 0.000139004 0.0180574 )  
( 0.00163783 -0.00369767 0.0180399 )  
( -0.000838756 0.000941439 0.0184969 )  
( 0.0029422 -0.00345852 0.0169806 )  
( 0.000185675 0.00015543 -0.000489944 )  
( 0.00167638 0.00071055 0.0164182 )  
( -0.00257725 -0.000988094 0.0121978 )  
( 0.00247238 0.00278533 0.012079 )  
( -0.000429208 0.000809825 0.0190499 )  
( -8.98116e-05 -6.01891e-05 6.3082e-06 )  
( -0.000465696 0.000654383 0.0197625 )  
( -8.96885e-05 0.00105906 0.0153424 )  
( 0.0019994 -0.000342024 0.00974055 )  
( 0.00166768 -0.002108 0.0124594 )  
( 0.000235789 -0.000184929 0.00011496 )  
( 0.000123368 0.00415804 0.00686971 )  
( 0.00118752 0.000174179 0.0135347 )  
( 0.00183943 -0.0019464 0.0184228 )  
( 0.00188783 -6.37614e-05 0.0155358 )  
( -0.00169429 -0.000404066 0.00997177 )  
( 0.0016088 -0.00225858 0.0173533 )  
( -0.000593666 0.000610754 0.0147398 )  
( -0.000210616 0.000266251 -3.39959e-05 )  
( -0.000158279 -0.000283085 -8.52607e-05 )  
( 0.000108724 0.000983086 0.0137157 )  
( 7.04835e-05 -0.00205581 -0.00075362 )  
( -0.000363078 -0.000132775 -0.000111846 )  
( 0.00265283 0.000561265 0.014631 )  
( 0.0022794 -0.000334014 0.00979466 )  
( 0.000639294 -0.000549316 0.0119743 )  
( 0.00105044 0.00125536 0.0144736 )  
( 0.00187879 0.00269088 0.00609871 )  
( 0.00478498 0.000307616 0.0184237 )  
( -4.50422e-05 0.00114738 0.013947 )  
( 0.00371533 0.00060269 0.0203325 )  
( 0.00174768 0.00106375 0.0170956 )  
( -0.00186513 0.00117461 0.0187064 )  
( -0.000735517 0.000896891 -0.0016133 )  
( 0.00104666 -0.00114489 0.0195495 )  
( 0.00335951 0.000122107 0.0187045 )  
( 0.000182493 -0.000338889 0.017693 )  
( 0.00278069 0.000830816 0.015892 )  
( -0.00355113 -0.000284515 0.0185479 )  
( -0.000778764 -0.000188477 -0.000344095 )  
( 0.00339396 0.0018167 0.0131039 )  
( -0.000291617 0.000539547 0.0187743 )  
( 0.000702811 0.000615883 0.0159863 )  
( -0.000325917 9.66087e-06 4.2833e-05 )  
( 0.000952674 -0.00213919 0.0136488 )  
( 0.00502893 0.00196007 0.0164658 )  
( 0.00705809 0.000729461 0.0107702 )  
( -0.000400634 -0.000556812 6.28676e-06 )  
( -0.00121672 0.00159995 0.0188742 )  
( 0.00356732 -0.00100442 -0.000441643 )  
( 0.000324348 -4.06535e-05 -4.79928e-05 )  
( 0.0024948 0.000377131 0.0132202 )  
( -0.00112714 0.000941553 0.0171345 )  
( 0.000933421 0.000810856 0.0160803 )  
( 0.000315151 -0.00127041 0.0181535 )  
( 0.000955276 -0.000472155 0.017792 )  
( -0.000378571 -0.000940874 -0.000396727 )  
( 0.00290305 0.000831954 0.0108843 )  
( 0.00151686 -0.000496478 -0.00105563 )  
( -0.000618573 -0.000985437 0.0102684 )  
( 0.0023227 0.00133153 0.0144374 )  
( -0.000190963 0.000326511 0.0203136 )  
( -0.000458643 -0.000812672 0.0175514 )  
( 0.00327451 0.000663902 0.00701118 )  
( 0.000178007 -0.000448441 -0.000154031 )  
( 0.00359703 -0.00194031 0.0105643 )  
( 0.0014072 0.000938058 0.0210929 )  
( -0.000190452 0.00227592 0.0125046 )  
( 0.000632546 -0.000898743 0.0126529 )  
( 0.000104495 -3.73775e-05 0.0158146 )  
( 0.000568474 0.000187051 0.0124944 )  
( 0.000391338 0.00174326 0.00103471 )  
( -0.00078894 0.000207613 0.0188431 )  
( 0.0010994 0.000784451 0.0108465 )  
( 0.000683691 0.00035426 0.0102802 )  
( -0.000122553 -0.000488533 6.43449e-05 )  
( -0.000359866 -0.000209535 8.86312e-05 )  
( 0.00321398 0.00111801 0.0118654 )  
( -0.000602501 0.000652944 0.019658 )  
( -0.000250857 5.53753e-05 -0.000281722 )  
( 0.00016599 -0.000253203 0.0151371 )  
( 0.000235805 -9.89861e-05 0.000248565 )  
( -0.0015769 -0.000364293 0.012652 )  
( 0.00129347 -0.000757726 0.0165707 )  
( 0.00105868 -0.000396575 -0.000178275 )  
( 0.000335727 0.000626301 0.0159882 )  
( -0.0011269 -0.000289066 -0.000350435 )  
( -0.00178083 0.000282536 0.0141033 )  
( -0.00101485 -0.000229156 -0.000120414 )  
( 2.77368e-05 -0.00180864 0.0124694 )  
( 0.0011391 -0.00104597 0.0104443 )  
( 9.17863e-05 -0.000579122 0.0140723 )  
( 0.000115891 0.000173459 2.88503e-05 )  
( -0.0012893 0.0010546 0.0166527 )  
( 0.00282362 -0.00278691 0.0106192 )  
( 0.00311281 -0.00205495 0.0146409 )  
( -0.000322451 -0.000158276 1.39377e-05 )  
( 4.5235e-05 -0.00120572 -0.000494828 )  
( 6.43673e-05 5.33008e-05 0.0150645 )  
( -0.00209597 0.00286131 0.0110804 )  
( 0.00114273 0.00466722 0.0172 )  
( -1.21863e-05 -2.30573e-05 -4.39838e-06 )  
( 0.00267783 0.00253078 0.0151537 )  
( -0.000662564 0.00133006 0.0111538 )  
( 0.00032556 -0.000184005 -4.04688e-05 )  
( 0.000785821 -0.000507421 0.0146206 )  
( -0.00114704 -0.000512993 0.0179714 )  
( 3.70629e-05 -0.000287433 -7.0698e-05 )  
( 0.00495681 -0.000783829 0.0131734 )  
( 0.00653848 -0.00363482 -0.00267261 )  
( -0.0010094 0.000781622 0.012639 )  
( 0.00159321 0.000800678 0.0137021 )  
( -0.00134018 -0.00102304 0.0154403 )  
( 0.0034521 -0.000870175 0.0122712 )  
( -0.000292993 -0.000308357 0.0138361 )  
( 0.000193126 -0.000596521 -3.40246e-06 )  
( -0.00051 0.00188858 0.0123512 )  
( -4.89688e-05 -0.000268192 -0.000289545 )  
( 0.000191685 -0.000189523 -0.00010706 )  
( 0.000236227 -0.000106967 0.000140479 )  
( 0.00117226 -0.00257909 0.0117571 )  
( 6.68683e-05 -5.80148e-05 -5.1182e-06 )  
( 0.00217139 0.00107231 0.0183128 )  
( 0.00594474 1.29518e-05 0.0114914 )  
( 0.010241 0.00386958 0.0174399 )  
( -0.00511296 0.00294477 0.0182481 )  
( -0.000727745 -1.27119e-05 -0.000535746 )  
( -0.000248969 -0.0013868 0.0187084 )  
( -0.00148264 0.000434819 0.0178407 )  
( 0.000154071 0.000456036 0.0189692 )  
( 9.52276e-05 -0.00222356 -0.000101443 )  
( -0.00134397 0.00122327 0.0209386 )  
( 0.00130039 0.000625347 0.0164305 )  
( 0.000293302 -0.00295938 0.0145353 )  
( 0.000152999 0.000789294 -5.16023e-06 )  
( -0.000416119 -0.000192232 0.0157596 )  
( 0.000330611 -0.00154376 0.0104797 )  
( 0.0017892 -0.000789501 0.01398 )  
( -0.00038648 -0.000748855 3.15853e-05 )  
( -0.000415726 0.00054518 0.0124784 )  
( -0.0015983 0.00107464 0.0161847 )  
( -0.000693141 -0.000106497 5.87722e-05 )  
( -0.00166487 -0.00100867 0.0203602 )  
( 0.00267712 0.000969408 0.0164885 )  
( -0.000538572 -0.000923079 -0.00132647 )  
( 0.00164321 0.000121899 0.0166499 )  
( -0.00022222 0.00176803 0.0122357 )  
( -0.000234623 6.47531e-05 -0.000354229 )  
( 0.000134586 4.85203e-05 6.20578e-05 )  
( -0.000458268 0.000680582 0.0189573 )  
( 0.000144936 -0.000154054 -0.000208836 )  
( 1.41445e-05 -0.000138015 0.000315124 )  
( 0.00403239 0.00033958 0.00972795 )  
( 0.000826454 -0.000861263 0.0159133 )  
( -0.000309055 -0.000149121 -3.77792e-05 )  
( -0.0026992 -0.000389538 -9.6449e-06 )  
( 0.00166616 -0.000549038 0.011336 )  
( 5.92594e-05 5.05923e-05 -2.15888e-05 )  
( -6.8077e-05 5.2152e-05 1.6121e-06 )  
( 0.000393217 0.00165762 0.0166279 )  
( 0.0026102 -0.000753567 0.0109397 )  
( -0.00080767 0.000354303 0.000155646 )  
( -0.00189771 0.000167129 0.0186322 )  
( 0.00163481 -0.00284582 0.0119076 )  
( -0.000445987 0.00290934 0.0170869 )  
( 0.000232103 0.00161903 0.016851 )  
( 0.00224629 -0.000727915 0.019016 )  
( -0.000206081 -0.00011966 -0.000284248 )  
( -0.000511931 -0.000316001 0.0198816 )  
( -0.000453769 -3.521e-05 0.000106717 )  
( -0.000291084 -0.000176172 0.00868579 )  
( -0.000672352 0.000823926 0.0133093 )  
( -0.00103584 -0.000669631 0.0163903 )  
( 3.85502e-05 0.000489443 0.0162519 )  
( 0.00271428 -0.0021534 0.0164045 )  
( 0.00151152 -0.000536091 0.015261 )  
( 0.00112304 0.00196408 0.0124383 )  
( 0.00101159 -0.000743918 0.0175114 )  
( 0.00275133 0.000903356 0.0166156 )  
( 0.00131596 0.000204911 0.0176953 )  
( 0.000157207 0.00145055 0.0176758 )  
( -0.000574364 -0.0001411 1.38303e-05 )  
( 6.52121e-05 3.10619e-05 -8.46257e-06 )  
( -0.000112449 -0.00024045 7.33525e-05 )  
( -0.000277317 0.000237213 3.96195e-05 )  
( 0.00106871 -0.00134354 0.0103286 )  
( -0.000815234 0.000580567 0.015064 )  
( -0.000667309 -0.00075313 0.0175019 )  
( 0.00468948 -0.00137349 0.00615748 )  
( 0.00189047 -0.00681902 -0.00165025 )  
( 0.00271939 0.00122506 0.0144937 )  
( 0.000371541 -0.000738513 0.0170827 )  
( 0.00170439 -0.000784459 0.0142693 )  
( 0.00262842 -0.00153535 0.0138628 )  
( -0.000172224 0.000752784 0.0182948 )  
( 0.00574997 -0.000390761 0.0110183 )  
( -0.00012819 0.00107477 0.0134859 )  
( -0.000380369 0.00100629 0.0189295 )  
( -0.000225241 0.000237723 0.0196055 )  
( 0.00295031 -0.00102098 0.0149578 )  
( 0.00156802 0.000911211 0.014142 )  
( 0.000789902 -0.000246548 0.0162292 )  
( -0.000116778 -0.00262127 0.0185873 )  
( 0.000752056 -0.000375394 0.011385 )  
( 0.000734069 0.00409674 0.01464 )  
( 0.000347293 -0.000342505 -0.000145741 )  
( 0.00114547 0.000353847 0.0171911 )  
( -0.000102602 -0.00154623 -4.41236e-05 )  
( 0.00160416 -0.00121086 0.0187436 )  
( 0.000322943 -0.000286862 -0.000115613 )  
( 0.00215189 -0.001946 0.0134729 )  
( 9.59676e-05 0.000197636 0.00014479 )  
( 0.000802926 -0.000860535 0.0176582 )  
( -0.000328585 -0.000556974 0.000256497 )  
( 0.00113563 -0.000296709 0.0177479 )  
( -0.00234621 0.00321121 0.0129705 )  
( 0.000346631 -0.000784039 1.39203e-05 )  
( -0.00128207 0.00308128 0.011718 )  
( -0.000811462 -0.000416817 -0.000835909 )  
( -0.00274397 0.00265589 0.0187299 )  
( -0.00025398 1.01169e-05 0.000190221 )  
( -0.000319085 -0.00184862 -0.000507271 )  
( 0.000347579 0.00482318 0.00541881 )  
( 0.000784925 4.62795e-05 1.05996e-05 )  
( -0.00199401 0.00125459 0.012661 )  
( 0.00101823 -0.0011529 0.015637 )  
( 0.00361004 0.00107867 0.0147355 )  
( 0.000102331 -0.00140121 0.0210947 )  
( -0.000499592 0.000448751 0.0194417 )  
( -0.00127432 0.00124388 0.0174734 )  
( -0.000590352 -0.00102524 -5.19837e-07 )  
( 0.00130429 0.00207466 0.014222 )  
( 0.00122637 0.00172518 -0.00121037 )  
( 0.000407143 -0.0018649 0.0131871 )  
( -0.000117965 -8.84307e-06 0.000163554 )  
( -0.000146208 0.000199757 3.44634e-05 )  
( 0.00456691 0.000353167 0.0161235 )  
( 0.00199984 -0.000716431 0.0149372 )  
( -0.00101832 0.00199559 0.0195168 )  
( 0.00145203 -0.000470627 0.00985167 )  
( 0.00103903 1.9937e-05 -0.000445989 )  
( 0.00243807 -0.000379274 0.0112388 )  
( 0.00375133 -0.00334372 0.0160973 )  
( -0.00116769 0.000282602 0.0201187 )  
( -0.00129947 0.000308853 0.0184951 )  
( 0.000610728 0.000788866 0.02124 )  
( -0.000557375 -0.00105238 -1.93804e-05 )  
( 0.000649481 -0.000394366 0.0187689 )  
( -0.000122163 1.72388e-05 4.77528e-05 )  
( 0.00276585 -0.00218202 0.0107032 )  
( 0.00152572 -0.00021714 0.0179145 )  
( -0.00128079 -0.00148869 -0.00200814 )  
( 0.00157462 0.000536094 0.0145341 )  
( 0.0030014 0.000765933 0.0172152 )  
( 0.00498137 -0.00313477 0.0170645 )  
( 0.00133036 -0.00134263 0.0130968 )  
( 0.0063415 -5.42497e-05 0.0110098 )  
( -7.62084e-05 0.000723344 0.017653 )  
( -0.00125304 -0.00115883 -0.00063614 )  
( -0.000797054 -5.4294e-05 -1.39724e-05 )  
( 0.00271024 -0.00113005 0.0108906 )  
( -9.82667e-05 5.05594e-05 -0.00016299 )  
( -0.000859515 -0.000279249 0.0123422 )  
( 0.00106772 0.00166177 0.0115286 )  
( -0.00215839 -0.0017638 0.0203999 )  
( -0.00143621 -0.00125449 0.0185749 )  
( 0.000621857 -0.000986918 0.0145812 )  
( -0.000185987 0.000242128 0.000159378 )  
( -0.000637366 0.0011738 0.0124179 )  
( 0.000554703 -9.7874e-05 0.0117619 )  
( -0.000336984 -0.000654869 0.017477 )  
( -0.00023454 0.000549941 0.0174691 )  
( 0.000129529 0.000151109 0.0193916 )  
( -0.000143952 -2.56242e-05 -0.000463395 )  
( -0.00048799 -0.000299415 0.000470501 )  
( -0.000595194 0.00122515 0.0184617 )  
( 0.00157833 3.56878e-06 0.0160381 )  
( -0.00105951 0.000614042 0.01731 )  
( -0.000190666 -0.000114851 3.12121e-05 )  
( 0.000631423 0.0012937 0.0185926 )  
( -0.000626535 0.0034012 0.0192266 )  
( 0.00111695 -0.00187523 0.0147623 )  
( 0.00297165 0.000772575 0.00893223 )  
( -0.00133571 0.00683872 0.0195089 )  
( 0.000365517 -0.00154656 0.0132078 )  
( 0.00199544 0.00321692 0.00841483 )  
( 0.00164193 -3.19689e-05 0.0192719 )  
( -0.000272798 0.000546853 0.0198466 )  
( -0.00122116 0.00110842 0.0183111 )  
( -0.000440076 -0.000513602 0.0197755 )  
( -0.000866867 5.95785e-05 0.0186424 )  
( -2.71216e-05 0.000823562 0.0173268 )  
( 0.000219463 -0.000375823 -7.3062e-05 )  
( -0.00015601 -0.000172807 0.0174753 )  
( 0.000222129 -0.0010703 0.0176951 )  
( 0.000363184 0.00068572 0.000106947 )  
( 0.00012275 -0.00134799 -0.000130581 )  
( 0.00518846 -0.00235243 0.0175915 )  
( 0.00263202 -0.00124814 0.0128012 )  
( -0.0029938 -0.00047092 0.0163679 )  
( 0.00175527 -0.000368985 0.0115162 )  
( 0.00222875 0.000796459 0.0201671 )  
( 2.73248e-05 0.000550881 8.4472e-05 )  
( 0.00151747 -0.000817033 0.011539 )  
( 0.00220884 0.000207023 0.0162211 )  
( -4.01885e-07 0.000166089 0.017214 )  
( 6.73715e-07 -0.000240071 0.000189404 )  
( -0.00157975 0.00079368 0.000102851 )  
( -0.000612198 6.6103e-05 0.0144287 )  
( 0.00278813 -0.00131865 0.0135185 )  
( -0.00083603 -1.69515e-05 -0.000124088 )  
( 5.97453e-05 -6.26351e-05 -1.48149e-05 )  
( -0.00233245 -0.000830332 0.0145184 )  
( -0.000584697 0.00139417 0.0198252 )  
( 0.0013261 -0.00147197 0.0147647 )  
( 0.00071392 -0.000133319 0.0194522 )  
( 0.000449184 0.00398336 0.00480619 )  
( -0.00151677 0.00190629 0.0175929 )  
( 0.000919728 0.000762024 0.0175752 )  
( -0.000540921 -0.000995634 0.0209103 )  
( 0.00126406 0.00134211 0.0147733 )  
( -0.000123645 -2.56299e-05 1.90305e-05 )  
( -0.000945488 0.000871773 0.0180965 )  
( -0.00068266 0.00226441 0.00275294 )  
( 0.00233927 0.000331244 0.0196551 )  
( 0.00418987 -0.00204627 0.0178019 )  
( -0.000145794 2.65489e-05 0.0146785 )  
( 0.000115487 5.54267e-05 -0.000233804 )  
( -1.67159e-05 0.000496084 0.0159129 )  
( 0.000913842 -0.00159606 0.0121792 )  
( 0.000508911 -0.00148311 0.0146812 )  
( 0.000109246 1.65435e-05 0.018012 )  
( -0.00364654 -0.00162788 -0.00161353 )  
( -0.000679581 0.000725237 0.0175838 )  
( 0.000249315 -0.00110128 0.0175671 )  
( 0.000434074 -0.00111622 -0.00114387 )  
( -0.000391182 -5.36541e-05 -0.000810486 )  
( 0.0018079 -0.0021449 0.0155698 )  
( -0.000360024 -5.19493e-05 0.000110726 )  
( -0.000150246 -0.000119896 -2.44416e-05 )  
( 0.000706764 -0.000985949 0.0155266 )  
( 0.00105962 0.000769244 0.0152304 )  
( -0.00210289 -0.00245303 0.019917 )  
( 0.00148103 -0.0032467 0.0160738 )  
( 0.00107665 -0.00118581 0.0169543 )  
( 0.00417715 -0.00169742 0.0174292 )  
( 7.54025e-05 0.000122066 -9.27661e-05 )  
( -0.000202138 0.00256351 0.0135362 )  
( 0.000122622 3.82252e-05 8.1726e-05 )  
( -0.00128847 5.49205e-05 -0.00088945 )  
( -0.000438798 0.00451024 0.0108804 )  
( 0.000271891 -0.000934628 0.0103402 )  
( 4.98398e-05 8.98342e-08 8.25858e-06 )  
( 0.00466184 -0.00202742 0.0172446 )  
( 0.00241771 -0.00140397 0.0178437 )  
( -0.000945534 4.09699e-05 -7.88693e-05 )  
( 0.000735601 -0.000660316 -0.00105751 )  
( -0.000143074 -0.000494089 -4.58532e-05 )  
( -0.000520179 0.000320025 0.015125 )  
( 0.00044153 -0.00185098 0.0177498 )  
( 7.33876e-05 0.00104093 0.0159921 )  
( 0.000588466 -2.86219e-05 -4.44054e-05 )  
( -0.000948885 0.00245192 0.0191592 )  
( 2.96356e-05 3.41774e-05 0.0165701 )  
( -3.81494e-05 0.000377569 0.000290156 )  
( 0.000210022 -1.26471e-05 5.62645e-06 )  
( -0.00177437 -0.00100192 0.0171181 )  
( 0.0030108 0.000840028 0.0173422 )  
( 0.00326475 0.000100659 0.0148286 )  
( -0.000136869 0.000554362 0.011171 )  
( -0.000780175 0.000484097 -0.00103262 )  
( 0.00185748 0.00132125 0.0203601 )  
( -0.0044402 0.00252454 0.0116537 )  
( 0.00022422 5.79645e-05 -1.82434e-06 )  
( -0.00241576 0.000852902 0.0140498 )  
( 4.06434e-05 0.00156369 0.0135083 )  
( 0.00135952 1.95343e-05 0.0118028 )  
( 0.00379496 -0.00136565 0.0185816 )  
( -0.00121889 0.00299347 0.0167514 )  
( -0.00291235 -0.000530755 -8.81218e-08 )  
( -0.00141454 0.000775758 0.0145624 )  
( 0.00361697 -0.00311765 0.0150097 )  
( 0.000152471 -0.000387472 0.018897 )  
( -0.000340722 0.00172874 0.013507 )  
( 2.68364e-05 -0.00393716 0.0194546 )  
( -0.000622442 0.000572615 0.0135138 )  
( -0.00172732 -0.000249343 0.0168206 )  
( -8.63735e-05 -0.000172038 2.95267e-05 )  
( 0.00182436 0.000411018 0.0154098 )  
( 6.67003e-05 8.62844e-05 -4.53092e-05 )  
( 9.77869e-05 -0.000159134 0.00968057 )  
( 0.00307945 -0.000830909 0.0198628 )  
( -0.000654787 0.000223304 0.0150358 )  
( 0.00142435 -0.000359645 0.0186274 )  
( -0.000388152 0.00107452 0.0132428 )  
( 0.000997205 0.000110091 0.0149871 )  
( 0.00327841 -0.00161276 0.0126102 )  
( 0.000137397 0.000288744 0.0190801 )  
( 0.000700331 6.87479e-05 0.0174121 )  
( 7.07768e-06 -0.000341657 0.0193747 )  
( 0.000394685 -0.00112274 0.0118748 )  
( -0.00190134 -0.00103224 0.015002 )  
( -0.000601485 -0.000143062 8.60366e-05 )  
( -0.000407938 -0.000414361 -0.000225013 )  
( -0.00123751 0.000227443 0.0190159 )  
( -0.000374936 0.000147534 0.000116739 )  
( 0.000660725 -0.00127726 -8.52488e-07 )  
( -0.000712393 -0.000488606 0.0135604 )  
( 0.000323706 0.0006197 0.0161689 )  
( 0.000404552 0.00154062 0.0133733 )  
( -0.000229772 0.000353801 1.42101e-05 )  
( -0.0006812 -1.72638e-05 -0.000581338 )  
( -0.000341829 -0.00096203 0.0150315 )  
( 0.00028615 -0.00212066 0.0152618 )  
( 0.00200345 9.50334e-05 0.0196347 )  
( 0.00329693 0.00127416 0.0119055 )  
( 0.00025026 -0.00116493 0.0175087 )  
( -9.30326e-05 9.98674e-05 -4.63226e-05 )  
( 0.00358908 -0.0020229 0.0177254 )  
( -0.000142296 -0.000809111 0.000113147 )  
( 0.000598025 -0.00223326 -0.00042027 )  
( -3.12099e-06 1.74817e-05 2.49827e-05 )  
( 5.78688e-05 -9.81881e-05 0.00020173 )  
( -0.00138963 0.000997276 0.0148456 )  
( -0.000486135 -0.000537777 2.62815e-05 )  
( 0.000381684 -0.00046677 -4.34783e-05 )  
( 0.00152825 0.00156495 0.0128802 )  
( 0.000417183 0.00164317 0.0170267 )  
( 0.00317944 -0.00179506 0.0140954 )  
( 0.00422828 -0.00116364 0.0179177 )  
( -0.00140564 0.00115708 0.0162462 )  
( -0.000218368 0.000350455 0.0172595 )  
( 5.10017e-05 3.42876e-07 1.71689e-05 )  
( 0.00128288 0.00122763 0.0133864 )  
( -0.00128943 -0.00209147 0.0180215 )  
( 1.12453e-05 -0.000516989 0.014516 )  
( -0.000670475 0.000629076 -0.000419194 )  
( -0.000205655 -0.000390154 9.46387e-05 )  
( 2.5983e-05 -2.89594e-05 -2.90249e-05 )  
( -0.000431143 -0.000248784 -0.000704912 )  
( -0.000138375 -0.000132915 -9.59437e-06 )  
( -0.00114201 0.00048022 5.74352e-05 )  
( -0.000157556 1.96113e-05 0.000611266 )  
( -0.000164657 9.0106e-05 -2.07888e-05 )  
( 0.00245654 -0.00228025 0.0161376 )  
( 0.00209091 3.89952e-05 -0.00192663 )  
( -0.00130089 0.00240734 0.038219 )  
( -0.00199307 -0.00127538 0.0123019 )  
( 0.000179486 -4.15079e-05 0.0185677 )  
( 7.19763e-05 -6.05625e-05 -0.000130058 )  
( -0.000249537 0.000101162 -3.3831e-06 )  
( -0.000532509 3.36275e-05 0.000387288 )  
( 0.000843926 0.000924986 0.0157046 )  
( -0.00531991 0.000966694 0.015394 )  
( -0.000567752 0.00108624 5.40713e-05 )  
( -0.000314562 -0.000896098 0.0176774 )  
( -0.00034069 -4.12277e-05 -3.35094e-05 )  
( 0.0014978 -0.000209869 0.0107879 )  
( -0.00135699 0.00174339 0.0161415 )  
( -0.000816896 -0.0013493 0.0134665 )  
( -0.000279706 -0.000778551 7.53105e-05 )  
( 0.00113289 -0.00144632 0.0131543 )  
( 0.00165012 -0.00212294 0.0146621 )  
( 0.00876217 -0.00752707 0.0171833 )  
( 0.00227635 0.00123513 0.0122698 )  
( -0.00135654 0.00278868 0.0149825 )  
( 0.000663277 -0.000484861 0.0134966 )  
( -0.00139461 -5.02048e-05 5.86621e-06 )  
( -0.00151246 7.04619e-05 0.0152934 )  
( -0.0014241 -0.00014538 0.0156391 )  
( 0.000581031 0.000892336 0.0153012 )  
( 0.000516806 0.00203767 0.0143484 )  
( -0.00686496 0.00212556 0.0138733 )  
( -0.00121206 0.00146963 0.0109281 )  
( 0.000673005 -0.000503152 0.0177374 )  
( -0.000902835 -0.000383298 0.0186977 )  
( -0.00165118 -0.000235298 -0.000545223 )  
( -0.00191904 0.0020167 0.0153512 )  
( -2.2262e-05 -4.85412e-05 2.36226e-05 )  
( 1.71702e-05 -0.000321279 0.000119758 )  
( -0.00243667 -0.000983542 0.0177959 )  
( -0.00012535 0.000149328 0.0188261 )  
( 0.00208184 -0.000831028 0.0134683 )  
( -0.000267677 -0.000967146 0.0147389 )  
( -0.00346726 0.000666425 0.0143085 )  
( 0.00147014 -0.000341674 0.0172763 )  
( 0.000699549 -0.000100574 -0.000322663 )  
( -0.000462151 -0.00106224 -0.000963397 )  
( 2.77159e-05 7.05957e-05 0.017862 )  
( -1.59093e-05 -0.000117927 1.15279e-05 )  
( -0.00105951 0.000410463 0.0197481 )  
( -0.00158368 0.000804934 0.0174002 )  
( 0.00316311 4.77704e-05 0.0168256 )  
( -0.00167102 -0.000849002 0.0157426 )  
( 0.00360368 0.000684993 0.0152789 )  
( -0.000133765 0.000126641 2.43571e-05 )  
( 0.000473223 -0.000140957 -0.000712702 )  
( -0.00083765 0.000375176 0.0185448 )  
( -0.00113673 -0.000323932 0.0155485 )  
( -0.000818861 -0.00148294 0.0155565 )  
( 0.000554539 -0.00127972 0.014543 )  
( -0.000651941 -0.000620161 0.0141263 )  
( -3.25462e-05 0.000818769 0.0134821 )  
( 0.000242348 -0.000705339 0.0176952 )  
( 0.00167159 0.000399013 0.0146013 )  
( 0.000458799 -0.000665007 0.0183828 )  
( -0.000242291 0.00062011 -1.21569e-05 )  
( 0.00120318 -0.000992974 0.0109714 )  
( 0.00018407 -0.000292135 -1.38031e-05 )  
( -0.00158321 0.000952057 0.0181179 )  
( -0.0015558 0.00145713 0.0184488 )  
( -0.000111099 0.0023861 0.0173757 )  
( -0.000461395 0.000299303 -0.000698177 )  
( 0.00237533 0.00377617 0.0120712 )  
( -0.00190563 0.00020316 0.0196583 )  
( 0.00431607 -0.000982281 0.0189271 )  
( 0.00342401 -0.0015084 0.0145993 )  
( 0.000429145 -0.00103507 0.017847 )  
( -0.000756876 4.71597e-05 -4.24222e-05 )  
( 0.00143208 -0.000864165 0.0112838 )  
( -0.000548475 -0.000524735 -2.14215e-05 )  
( -0.000364905 0.0012399 0.0171659 )  
( -2.99202e-05 2.1319e-05 -1.02743e-05 )  
( 0.000593457 -0.0013744 0.0149051 )  
( -0.000573881 0.00283939 0.0119139 )  
( 0.000571198 -0.000146638 0.0174896 )  
( 0.000140892 0.000163776 1.23388e-05 )  
( 0.000480188 0.00189992 2.42584e-05 )  
( -0.00130215 0.000853004 0.01925 )  
( 0.00328971 0.000444756 0.0144153 )  
( -0.000352089 -0.000391092 0.0144246 )  
( 0.000641654 -0.000563128 -0.000544109 )  
( -0.000397848 -0.00124813 0.0172416 )  
( -0.00154124 0.0009257 0.0188934 )  
( 0.00124058 -0.00130944 -0.000315107 )  
( -2.20048e-05 -0.00111722 0.0153733 )  
( 2.64265e-05 0.000347715 0.0158445 )  
( -0.00214486 0.00355882 0.013839 )  
( 0.00102199 -0.000510616 0.00972843 )  
( 0.000328741 0.000296672 6.86664e-05 )  
( 2.80106e-05 7.42037e-05 -3.84273e-05 )  
( -0.000821742 0.00295585 0.0164795 )  
( -0.000758399 0.000370753 0.0147128 )  
( 0.000109788 0.000307998 -0.000460856 )  
( -0.000347876 0.000932531 0.0182227 )  
( 0.000528156 -0.000527346 -0.000413021 )  
( -0.000421752 0.000747226 -9.47906e-05 )  
( 0.00115904 0.000277184 0.0176784 )  
( 0.00240692 -0.00315524 0.0158574 )  
( -0.000111934 0.000592559 0.000418887 )  
( 0.00180126 0.00205926 0.0175471 )  
( 0.000880075 -0.00176558 0.0165334 )  
( 0.00177396 -0.00121015 0.0164788 )  
( 0.000173187 -0.000379242 -0.000724612 )  
( -0.000253136 -0.000168355 1.57553e-05 )  
( -0.000987834 0.000535388 0.0156408 )  
( 0.000458643 -0.000950516 0.0136311 )  
( 0.00228704 -0.00118063 0.0136018 )  
( 0.000100727 -0.000142193 -5.48275e-05 )  
( -0.000868471 0.005244 0.0148093 )  
( -0.00158357 -0.000546164 -0.000370213 )  
( -0.000313789 0.00181273 0.0139009 )  
( 9.14388e-05 -0.000882759 -0.000114418 )  
( 0.000645848 0.00141638 0.0153594 )  
( 0.00180385 0.0033688 0.0125609 )  
( 0.00170252 -0.00176277 0.0110088 )  
( 0.0012384 0.00516514 0.0163458 )  
( 0.000688852 0.00226391 0.016462 )  
( 0.00102145 0.00168789 0.0148121 )  
( -0.00123383 0.000533667 0.0200687 )  
( -1.9921e-07 0.000156948 -1.01636e-05 )  
( -0.000241294 -2.89127e-05 7.67524e-05 )  
( -0.000580742 0.00086954 0.0185928 )  
( -0.000584956 0.000978494 0.0186949 )  
( 0.00112892 -0.000801906 0.0156864 )  
( 3.41596e-05 9.86761e-05 -0.000509615 )  
( -0.000115976 -0.000426715 4.15409e-05 )  
( 0.000137972 -0.000282754 4.84418e-06 )  
( -0.000633622 0.000110257 2.87938e-05 )  
( -0.00188774 0.000444901 0.0171751 )  
( -3.39154e-05 -0.000313313 -0.000215991 )  
( 0.00154801 -0.0014196 0.0160193 )  
( -0.00070853 0.000219892 0.000155447 )  
( 0.00550689 0.00443742 0.0106935 )  
( -0.000459707 0.00087327 0.0189772 )  
( 0.000359521 -0.000107048 -2.0209e-05 )  
( -0.00059885 0.00314163 0.0129392 )  
( 0.000177438 -0.000593599 -0.000442499 )  
( 0.00145188 -0.000682225 0.0183822 )  
( 0.00137304 0.00014453 0.0147506 )  
( 0.00103017 -0.000392664 0.014968 )  
( 0.00166602 0.000135082 0.0156571 )  
( 0.00332106 -0.00169703 0.0134597 )  
( -0.00360363 0.00232445 0.0137562 )  
( 6.41156e-06 -0.000208239 0.0163329 )  
( -6.29186e-06 2.89014e-05 2.40245e-05 )  
( 0.00344235 0.00261428 0.0171927 )  
( 0.00644235 -0.00335541 0.0115999 )  
( 0.00148958 0.00170845 0.0115983 )  
( -6.31135e-05 -4.71582e-05 5.97492e-05 )  
( 0.000159373 -0.000479314 -0.000230085 )  
( 0.00139683 -0.00201713 0.013234 )  
( -0.00086262 -0.000351343 0.0101041 )  
( -8.70152e-05 5.18541e-05 0.000367687 )  
( 0.000981221 0.00473467 0.0162922 )  
( 0.000501747 -0.00187092 0.0142547 )  
( 0.00260847 -0.000460387 0.0133151 )  
( 0.00041031 -0.00055373 0.0177124 )  
( 0.00196658 0.000886483 0.0164368 )  
( -9.80403e-05 -8.6957e-05 2.16621e-05 )  