/*--------------------------------*- C++ -*----------------------------------*\
| =========                 |                                                 |
| \\      /  F ield         | OpenFOAM: The Open Source CFD Toolbox           |
|  \\    /   O peration     | Version:  2506                                  |
|   \\  /    A nd           | Website:  www.openfoam.com                      |
|    \\/     M anipulation  |                                                 |
\*---------------------------------------------------------------------------*/
FoamFile
{
    version     2.0;
    format      ascii;
    arch        "LSB;label=32;scalar=64";
    class       surfaceScalarField;
    location    "0.04";
    object      phi;
}
// * * * * * * * * * * * * * * * * * * * * * * * * * * * * * * * * * * * * * //

dimensions      [0 3 -1 0 0 0 0];

oriented        oriented;

internalField   nonuniform List<scalar> 
13248
(
-1.40221e-09
-2.90438e-09
2.75562e-08
3.88425e-09
6.48022e-10
-3.78352e-09
-1.53882e-09
3.41591e-08
-2.93356e-09
-9.40965e-10
-3.91643e-10
2.11637e-08
3.93884e-09
-3.51897e-09
-3.53219e-09
3.52406e-08
-1.86405e-09
4.42445e-09
3.46475e-11
1.58061e-08
3.68347e-09
-3.85406e-09
-4.39083e-09
4.17724e-08
-1.61712e-09
7.34517e-10
-2.47124e-10
2.15342e-08
1.88912e-09
-1.78523e-09
2.38331e-08
3.57535e-09
2.73398e-09
-2.72286e-10
-1.59752e-09
2.83641e-08
-1.98156e-09
-4.58041e-09
-3.11208e-09
3.10169e-08
-4.2929e-09
-5.85111e-09
3.1344e-08
-7.81868e-10
-1.71255e-09
2.25756e-08
-1.6845e-09
-4.68036e-09
3.31952e-08
-5.01275e-10
-2.21344e-09
2.46872e-08
-5.98732e-11
-1.38596e-09
2.78806e-08
1.91228e-09
2.17269e-08
2.25019e-09
-8.88212e-10
-1.06201e-09
2.86834e-08
-8.54039e-10
-3.06214e-09
2.93208e-09
2.39767e-08
8.76038e-10
2.66377e-09
1.51463e-08
-1.73512e-09
6.09996e-09
2.27146e-08
-6.27011e-10
7.36471e-10
2.11091e-08
5.06403e-10
-2.17603e-09
2.61827e-08
3.76205e-09
1.53216e-09
2.17429e-08
-1.46102e-09
3.5474e-08
-4.68393e-10
2.90266e-09
-2.47e-09
2.44139e-08
1.76466e-09
-6.35535e-09
-9.91513e-09
4.95663e-08
3.5308e-09
-1.03136e-09
2.17113e-08
-7.35556e-09
-2.67247e-09
4.75062e-08
-2.54088e-09
1.28315e-09
2.22885e-08
2.88838e-09
5.48285e-09
1.40887e-08
-1.13919e-10
4.85385e-09
2.68337e-08
3.28115e-09
1.83407e-08
4.38196e-09
-1.11806e-09
-1.11709e-09
2.49672e-08
2.79962e-09
1.72565e-10
-2.88893e-10
1.66855e-08
1.79026e-09
3.67029e-10
2.44775e-08
-1.38248e-09
-3.92951e-09
3.21573e-08
1.0256e-09
-2.04528e-09
2.89297e-08
4.6539e-09
-2.01015e-09
3.15611e-08
-1.47131e-10
-1.82138e-09
3.91329e-08
1.63789e-09
2.90739e-08
7.31018e-11
-6.06451e-10
6.77979e-09
1.80814e-08
2.49167e-09
9.05111e-10
2.59247e-09
2.33468e-08
-1.93428e-09
2.25478e-09
2.84428e-08
3.02355e-09
3.79055e-11
1.87355e-08
4.36848e-10
1.56193e-09
2.91329e-08
2.31797e-09
2.10316e-09
2.19984e-08
2.39566e-09
2.48566e-09
2.29486e-08
1.35529e-09
2.9012e-08
1.54188e-09
-4.4561e-09
-2.10335e-09
3.57538e-08
5.43404e-09
5.41393e-11
9.22765e-10
2.48212e-08
-3.4349e-09
6.47576e-10
3.27922e-08
4.12245e-09
2.39554e-09
1.78738e-08
1.3465e-10
1.22625e-09
3.24581e-08
3.15973e-09
5.4427e-09
2.11476e-08
1.45989e-09
2.28239e-09
3.01859e-08
4.19633e-09
2.40892e-08
2.38219e-09
-5.06615e-10
1.78994e-08
3.47609e-09
4.72304e-09
1.03707e-09
2.09361e-08
6.07864e-09
-6.16412e-10
2.79136e-08
2.16275e-09
1.70933e-09
2.14546e-08
6.23554e-09
3.84698e-09
2.42918e-08
2.4574e-09
-7.515e-10
3.89223e-08
-1.30075e-09
1.7694e-09
2.72662e-08
5.31452e-11
3.57725e-08
-1.44865e-09
-9.83626e-10
-1.31137e-09
-1.66801e-09
2.81637e-08
2.96258e-09
-5.90691e-10
-2.93832e-09
-5.25028e-09
4.00937e-08
9.42558e-10
-1.61261e-09
-1.48744e-09
2.08755e-08
4.49898e-10
1.40532e-09
-5.5065e-10
2.91852e-08
3.58809e-09
-2.12267e-09
-2.3949e-09
2.37056e-08
-1.97656e-09
2.4037e-09
2.18127e-09
3.38039e-08
1.2609e-09
7.87873e-10
-2.4155e-10
2.24111e-08
9.80481e-10
-6.33026e-10
2.29657e-08
1.65939e-09
6.28984e-10
-3.14e-09
2.91056e-11
2.6163e-08
3.64392e-09
-1.96353e-10
3.46853e-09
1.93545e-08
-9.55249e-10
1.29329e-09
2.93222e-08
-2.9114e-09
3.3301e-09
2.0651e-08
4.03671e-09
1.42188e-09
2.24303e-08
2.90164e-10
1.27617e-09
2.93389e-08
8.64824e-10
1.51168e-09
2.55528e-08
-6.44489e-10
2.07944e-08
1.80877e-09
1.11218e-09
-1.4336e-09
2.7791e-08
1.2429e-09
-1.99865e-09
-1.004e-08
4.0596e-08
1.39522e-09
-1.75426e-09
1.47999e-08
-3.02049e-09
-4.37608e-09
3.48365e-08
2.0237e-09
1.26892e-09
1.6218e-08
1.0622e-09
2.49144e-11
2.83955e-08
-7.63982e-10
1.02845e-09
2.40523e-08
4.27049e-09
2.59003e-08
3.8948e-09
-8.42895e-09
-3.43374e-09
3.24012e-08
2.4417e-09
3.1007e-09
7.304e-09
2.06926e-08
1.09592e-09
3.94343e-09
1.80183e-08
1.03344e-09
4.77344e-10
4.27151e-08
4.10288e-10
-1.00141e-09
2.51823e-08
2.3535e-09
-1.84536e-09
1.40158e-08
2.80594e-09
-3.53642e-09
3.09461e-08
1.6266e-10
2.65591e-08
-1.30468e-09
3.7121e-09
1.94024e-09
1.31246e-08
2.75647e-09
-2.39051e-09
-2.27236e-09
3.23645e-08
-3.22793e-09
-3.1316e-09
3.239e-08
-7.70072e-10
-1.56206e-10
3.03333e-08
-1.18329e-09
1.27869e-09
2.70626e-08
1.58695e-09
3.25035e-09
2.36952e-08
3.94842e-09
2.5552e-09
3.06799e-08
-1.14689e-09
3.52806e-08
-9.48646e-10
-1.31338e-10
-4.29884e-10
1.9147e-08
1.43577e-09
-1.69579e-10
1.47121e-09
1.96415e-08
2.4657e-11
-3.2254e-10
2.54395e-08
1.05486e-09
9.28381e-10
1.66208e-08
5.49916e-10
-2.93093e-09
3.38474e-08
1.30336e-09
1.44114e-09
2.30542e-08
7.26766e-10
7.36354e-10
2.5344e-08
9.26051e-11
2.65613e-08
1.93804e-09
1.95558e-09
3.77724e-09
2.77674e-08
1.82366e-09
-2.32497e-09
2.09499e-09
2.8478e-08
1.51857e-09
3.94675e-09
2.46794e-08
-3.59157e-09
1.92905e-10
2.37195e-08
4.63237e-09
6.48586e-09
1.48174e-08
4.9631e-10
3.79203e-09
2.29328e-08
1.61061e-10
1.52792e-09
2.97296e-08
-1.87236e-10
2.2704e-08
1.82615e-09
-8.03973e-10
2.47017e-08
-1.55348e-09
-6.67668e-10
-1.38853e-09
2.5704e-08
-2.08832e-09
-7.10044e-10
3.11827e-08
-8.42593e-13
1.80849e-09
1.82104e-08
9.18542e-10
2.97773e-09
2.9563e-08
4.55533e-11
-1.87696e-09
4.76999e-08
-1.30772e-10
-1.5305e-09
2.50473e-08
3.40028e-09
2.26768e-08
5.78392e-09
5.59407e-09
-3.24912e-09
-3.84154e-09
4.44865e-08
-7.373e-09
-1.85911e-09
3.22754e-09
-5.18647e-10
3.18294e-08
2.30625e-09
-7.8585e-10
-2.201e-09
2.99282e-08
-2.83826e-09
-1.63293e-09
-8.17842e-10
3.14106e-08
-5.60488e-10
-3.28853e-09
1.10883e-09
2.57506e-08
-1.49823e-09
1.15887e-10
1.41753e-09
2.79446e-08
1.0373e-09
1.35135e-09
-5.58672e-12
2.02611e-08
9.20123e-10
2.09299e-09
2.60208e-08
-2.57974e-09
-1.21702e-09
7.10171e-10
2.23861e-10
1.99661e-08
1.42132e-09
9.80163e-10
-3.03921e-09
2.1605e-08
4.84224e-10
-1.12371e-09
2.87409e-08
7.10791e-10
-2.92578e-09
2.25324e-08
-1.35955e-09
-6.82279e-10
2.62918e-08
-3.64146e-10
1.36251e-09
2.83985e-08
2.88539e-09
-6.34534e-10
2.29322e-08
-1.77867e-09
2.81518e-08
-6.00297e-10
-1.33203e-09
-1.21718e-10
2.9234e-08
2.34622e-10
2.68531e-09
-3.79679e-10
3.39191e-08
3.42539e-10
-1.68515e-09
1.77041e-08
2.48776e-09
-6.91382e-09
3.66793e-08
6.89205e-10
-1.16938e-09
1.85037e-08
-2.52993e-09
2.00123e-09
3.09758e-08
1.06086e-09
-7.66753e-10
2.05938e-08
-1.40182e-09
2.59543e-08
6.30018e-10
-7.81042e-10
4.61946e-09
2.80075e-08
4.33599e-10
-1.73843e-10
3.93992e-09
1.57659e-08
3.43332e-11
1.64188e-09
1.44831e-08
5.20856e-09
1.57689e-09
2.90496e-08
3.03948e-09
-1.8429e-09
2.80252e-08
-3.37451e-09
-4.23283e-09
2.66639e-08
-1.23331e-10
-1.23026e-09
2.81585e-08
1.05792e-09
2.27488e-08
1.22733e-09
-3.84752e-09
-1.21823e-09
2.55288e-08
-2.71901e-09
-2.31781e-09
-1.18688e-09
3.59615e-08
-1.32206e-09
-8.37576e-10
3.38738e-08
-1.68053e-10
-1.12321e-10
3.08689e-08
-8.75973e-10
2.7076e-09
2.32197e-08
1.45916e-09
9.95599e-10
1.61316e-08
2.86515e-09
-1.56634e-09
2.961e-08
-1.97897e-09
4.18961e-08
-7.13491e-10
-1.54758e-09
-2.40467e-09
2.49686e-08
-3.0875e-09
-1.21036e-09
-1.97053e-09
2.00879e-08
-3.53734e-10
-8.76565e-10
2.46218e-08
2.94878e-09
1.75851e-09
1.14475e-08
-2.24151e-09
-1.58186e-09
4.33271e-08
-1.59117e-09
-3.55196e-11
2.3435e-08
1.43709e-09
5.97853e-11
2.06897e-08
2.13678e-09
2.31582e-08
7.24393e-10
-1.98141e-09
1.51505e-09
2.71536e-08
-1.32455e-09
-4.91519e-10
1.20341e-09
2.38142e-08
2.70835e-09
-1.046e-10
2.07076e-08
-8.58281e-10
-1.49407e-09
3.05388e-08
9.45926e-11
-1.85941e-11
1.23013e-08
-1.76884e-09
-3.28745e-09
2.80482e-08
3.15575e-09
2.43971e-09
2.24251e-08
3.53524e-09
2.09547e-08
3.50659e-09
-2.31071e-09
3.40971e-08
3.47097e-10
-5.91678e-09
-1.92369e-09
3.32258e-08
-6.70543e-09
2.07608e-09
2.27453e-08
4.33301e-09
3.25899e-10
1.60568e-08
2.40979e-09
-3.1909e-09
3.2235e-08
8.26111e-10
3.66987e-09
3.36506e-08
3.90109e-09
3.18833e-09
2.56602e-08
2.30846e-09
2.85923e-08
4.251e-10
3.8296e-10
-2.67898e-09
2.31065e-09
4.4514e-08
-1.50483e-09
1.84562e-09
2.75605e-09
1.37552e-09
2.44958e-08
5.23077e-10
1.96919e-09
2.53664e-09
3.02031e-08
-2.02475e-09
-3.8682e-09
3.09093e-09
3.70861e-08
-2.92895e-09
7.51972e-10
9.31846e-10
1.81059e-08
2.09273e-09
1.74494e-09
-2.6045e-10
2.35707e-08
3.64137e-09
3.76225e-10
1.63451e-10
2.2823e-08
-1.35664e-09
1.60245e-09
2.43598e-08
-1.11918e-09
1.55399e-09
-1.01123e-09
-3.57699e-09
3.06161e-08
-3.75113e-09
2.76912e-09
-4.12285e-09
2.33231e-08
2.1461e-09
-4.39369e-09
3.62942e-08
-5.71442e-09
-8.25654e-09
4.17403e-08
-2.82687e-10
1.40885e-09
2.03831e-08
2.54226e-09
1.80451e-09
2.35086e-08
1.28471e-09
1.01598e-09
2.33372e-08
1.44414e-10
3.20675e-08
-1.17302e-09
-2.96551e-09
-1.5074e-09
3.3455e-08
-3.32506e-09
2.12791e-09
2.27788e-09
2.2425e-08
-1.76204e-09
-4.3676e-10
1.76372e-08
4.4524e-09
-1.21017e-09
2.34185e-08
2.28955e-10
-1.56518e-09
2.57012e-08
1.99604e-09
2.94935e-09
2.80639e-08
-4.7723e-10
-1.86673e-09
2.59497e-08
8.47071e-10
2.73151e-08
-2.54073e-09
1.55347e-09
4.17582e-09
2.33329e-08
-2.56214e-09
-4.21877e-10
-6.27627e-10
2.06467e-08
-1.36759e-09
3.0568e-09
1.19353e-08
3.73988e-09
4.72922e-09
1.80027e-08
5.03507e-09
3.58127e-09
2.15837e-08
-2.12887e-09
-2.78399e-09
3.95612e-08
2.37608e-09
-1.29714e-09
2.30839e-08
-6.56184e-09
3.59563e-08
-3.4225e-09
-2.24615e-09
2.24531e-09
3.23691e-08
-2.66365e-09
3.61037e-09
1.00267e-09
2.84747e-08
-2.1912e-09
6.59782e-10
4.20723e-08
4.16936e-09
3.02202e-09
2.62156e-08
-2.03253e-09
-4.82339e-09
3.78262e-08
4.72359e-12
-1.5101e-09
1.28205e-08
-3.19164e-09
-3.62516e-10
3.18718e-08
2.32279e-09
2.60054e-08
3.8144e-09
-1.61301e-09
3.86275e-09
2.76669e-08
-2.70276e-09
1.9424e-09
-4.34857e-10
1.797e-08
1.02005e-09
9.83611e-10
2.52203e-08
-2.88526e-09
-9.15271e-10
1.92901e-08
-2.95219e-10
2.42908e-09
3.34846e-08
1.03974e-09
4.69337e-10
2.01206e-08
-2.56577e-10
-5.6772e-10
2.21912e-08
5.51579e-10
2.48118e-08
-1.3893e-10
-4.53401e-09
-5.53593e-09
4.7472e-08
-6.38573e-09
2.80313e-09
-1.08457e-09
1.71268e-08
-1.00935e-09
-3.0553e-09
2.8559e-08
4.25374e-10
-1.70664e-09
2.98954e-08
-1.64484e-09
-1.69807e-09
1.84986e-08
9.15716e-11
-3.86344e-10
2.71675e-08
3.88548e-10
3.2405e-09
1.83199e-08
-2.73158e-10
2.22546e-08
-8.66247e-11
-3.71505e-09
3.36974e-08
1.40989e-09
-2.83098e-09
3.80289e-10
2.40151e-08
4.0308e-09
4.7732e-10
1.92053e-08
3.877e-10
2.87508e-10
1.69361e-08
-2.39601e-09
-9.95229e-10
3.10414e-08
7.78286e-10
4.27822e-09
2.7356e-08
6.34821e-10
-3.99848e-09
3.74851e-08
-3.07734e-10
2.52363e-08
-2.81027e-09
1.8947e-09
2.63073e-10
4.45238e-09
3.2091e-08
3.89979e-09
3.8077e-09
5.87553e-11
9.07732e-10
2.19089e-08
1.88356e-09
3.74942e-10
1.2367e-09
2.65151e-08
2.13514e-09
5.33909e-09
4.53328e-10
3.02441e-08
1.42445e-09
-2.04923e-09
-2.35489e-09
2.38826e-08
3.96649e-09
2.82363e-10
-2.26828e-09
2.04701e-08
3.03733e-09
3.5931e-10
-1.16126e-09
2.245e-08
1.45738e-09
-2.10772e-10
2.2324e-08
-3.01567e-10
2.90746e-09
-1.42235e-09
-1.52776e-09
4.01376e-08
-2.11897e-09
-5.04756e-10
1.01896e-09
2.22943e-08
-1.00163e-09
1.23491e-09
3.67929e-08
7.39776e-12
2.33361e-09
3.8851e-08
-7.82024e-10
6.60544e-10
1.81571e-08
1.85411e-09
2.7289e-09
1.58753e-08
1.27735e-09
7.92819e-10
2.19599e-08
-2.4791e-10
2.70072e-08
6.37484e-09
1.14757e-09
-6.69232e-10
2.93618e-08
2.08707e-09
-3.82224e-10
1.62542e-09
2.33483e-08
1.83261e-11
1.31907e-09
1.71525e-08
1.21845e-11
2.16284e-09
2.35954e-08
-2.59928e-10
-6.01682e-10
2.72356e-08
-7.61523e-10
-6.28151e-10
3.19226e-08
4.96248e-10
-5.77338e-10
2.60621e-08
3.14817e-09
2.27063e-08
1.70907e-09
3.1201e-09
8.283e-11
1.62779e-08
3.18289e-09
3.67203e-10
-4.7836e-09
2.98087e-08
2.2227e-11
-6.25057e-09
1.985e-08
-2.28309e-09
-3.26372e-09
2.57346e-08
-2.83538e-10
1.82278e-09
1.71598e-08
-5.00236e-10
7.03829e-09
3.21114e-08
3.85589e-09
3.38536e-09
1.47651e-08
-8.5672e-10
4.36855e-08
1.31548e-10
-8.91425e-10
1.8161e-09
3.11118e-08
4.15492e-10
-5.81668e-10
1.60547e-09
2.17759e-08
1.77083e-09
1.25298e-09
3.22163e-08
3.25771e-09
7.55563e-10
2.07095e-08
6.04617e-09
-9.89171e-12
3.68704e-08
-4.02276e-09
-1.35828e-09
3.1286e-08
-1.0882e-09
4.30087e-09
2.80218e-08
4.2849e-09
1.65385e-08
3.23717e-09
-7.79876e-10
6.14999e-09
2.48043e-08
-6.91405e-10
-1.15196e-09
8.18863e-10
1.91287e-08
1.6352e-09
3.09639e-09
2.05898e-08
1.58926e-09
6.9834e-10
1.93933e-08
1.12839e-09
2.40852e-09
3.15271e-08
2.16398e-09
1.7451e-10
1.75522e-08
1.51327e-09
-3.64936e-10
2.75077e-08
-9.50225e-10
3.22461e-08
-6.85933e-10
-4.2659e-09
-6.80724e-09
7.3885e-08
-9.18979e-09
-5.47385e-10
-1.00148e-09
1.52286e-08
-3.48489e-10
-3.58711e-10
3.18152e-08
2.88966e-09
1.86247e-09
2.54931e-08
-5.63273e-10
3.36463e-09
2.09955e-08
1.18171e-09
3.81766e-10
2.52152e-08
5.80939e-10
-1.91929e-09
2.0475e-08
-3.48987e-09
2.83013e-08
-2.92609e-09
-1.0348e-09
2.56384e-08
3.56227e-09
-1.27574e-09
7.05334e-10
2.01191e-08
1.15436e-09
1.85398e-09
1.72484e-08
4.49595e-10
5.42807e-09
1.66627e-08
-1.43825e-09
-3.73789e-09
4.8246e-08
-4.67411e-09
-9.66107e-10
2.55577e-08
-5.91704e-10
-2.49536e-09
3.39572e-08
3.13783e-09
1.78696e-08
2.07153e-09
-6.90084e-10
4.81393e-10
-4.83776e-09
4.02007e-08
-1.64952e-09
-2.10386e-09
-2.04735e-09
-7.4638e-10
2.40112e-08
1.17275e-09
-1.13226e-09
-7.74009e-09
3.18222e-08
1.51791e-09
5.32055e-11
-4.19471e-09
3.13009e-08
1.95248e-09
-6.12309e-10
-6.8495e-09
3.11266e-08
2.7104e-10
-8.02273e-10
-3.8593e-09
2.47914e-08
-2.72082e-10
1.68855e-09
-2.6906e-09
1.68023e-08
5.84739e-09
-2.70537e-09
3.2011e-08
-3.22899e-11
-5.26085e-09
3.71395e-09
2.76895e-09
2.76555e-08
1.16143e-09
-7.9928e-09
-1.10475e-09
3.43594e-08
-9.86991e-10
3.95081e-09
1.80962e-08
1.1488e-09
1.63791e-09
3.08826e-08
1.45908e-10
-9.62253e-10
1.32728e-08
1.27529e-10
-1.71992e-09
1.37543e-08
2.59391e-09
-3.06235e-09
1.98653e-08
-5.42647e-10
2.56946e-08
1.74374e-09
3.02979e-11
2.40515e-09
3.15851e-08
-1.88978e-09
-1.64938e-09
3.37835e-09
2.05449e-08
-2.89934e-09
1.91977e-09
2.04335e-08
-1.65189e-09
1.96758e-09
2.20183e-08
-8.78664e-10
1.96212e-10
2.53039e-08
-3.04402e-09
-4.03099e-10
3.27711e-08
3.58507e-09
2.76149e-09
1.36092e-08
2.33644e-09
1.91849e-08
4.2273e-09
1.92889e-11
-3.11865e-09
2.94966e-08
-7.71421e-09
-4.66096e-09
-3.13572e-09
4.1003e-08
-4.91652e-09
-4.5851e-10
2.24839e-08
-3.27536e-09
1.74535e-09
2.43156e-08
-1.16515e-09
3.25218e-09
1.19937e-08
1.51591e-09
6.14003e-09
2.28872e-08
3.79591e-09
2.40028e-09
1.28463e-08
4.50252e-09
4.40139e-08
1.30135e-09
-1.59095e-10
5.11433e-10
2.99089e-08
-2.26806e-09
-2.0248e-10
1.01911e-09
1.76645e-08
-1.14725e-09
-7.75372e-10
3.34779e-08
-7.67349e-10
2.15256e-10
2.18599e-08
-2.52374e-09
-2.41612e-10
4.21205e-08
4.99995e-09
4.64442e-09
2.52579e-08
3.06536e-09
2.25271e-09
3.01039e-08
-4.43816e-10
2.63387e-08
-1.78854e-09
1.16221e-09
1.82035e-09
2.20262e-08
3.06905e-10
-2.2564e-09
1.11266e-09
2.24538e-08
2.74984e-10
-1.46863e-09
1.87516e-08
-1.35964e-09
1.09673e-09
2.01465e-08
1.48164e-09
4.31508e-09
2.41291e-08
3.83518e-09
3.17526e-09
1.66678e-08
4.2572e-09
2.07495e-09
2.72634e-08
-1.03841e-09
3.80239e-08
-9.26139e-10
3.58717e-09
-3.42377e-09
7.47535e-08
7.88371e-10
-5.97112e-09
-1.8444e-09
2.77439e-08
4.19891e-09
1.51003e-09
1.86665e-08
7.44515e-10
2.08519e-09
2.79591e-08
5.38023e-10
-2.63401e-09
2.81511e-08
1.80205e-09
7.9603e-10
2.63304e-08
3.79214e-10
1.51586e-10
2.38212e-08
4.30883e-10
2.97102e-08
-2.49904e-09
1.92279e-09
3.06425e-08
-1.06841e-08
3.33417e-10
-2.57974e-09
2.44101e-08
-1.63288e-09
2.41835e-09
1.61257e-08
-2.3654e-09
-7.71647e-09
2.99935e-08
-1.11076e-09
5.30289e-09
2.77788e-08
4.81396e-09
6.12639e-10
3.06639e-08
3.80125e-10
2.68676e-10
3.75551e-08
-3.10235e-09
1.9524e-08
-1.34955e-09
3.94714e-10
1.43915e-09
4.46399e-10
3.64762e-08
-8.07584e-11
1.91975e-09
-8.34669e-10
-1.50352e-09
2.79444e-08
-1.56058e-10
3.92665e-10
1.15834e-09
2.87087e-08
7.28147e-10
4.453e-10
-9.40533e-10
2.9049e-08
3.13868e-09
6.03217e-10
1.7197e-10
3.03666e-08
4.30755e-10
1.19937e-10
-8.37777e-11
2.40263e-08
1.33242e-09
-1.55218e-09
-2.72464e-10
2.01036e-08
-1.35672e-09
8.07005e-10
2.96216e-08
-5.90638e-11
9.00058e-11
7.17762e-10
1.14742e-09
2.87018e-08
-2.4648e-09
2.34469e-09
6.0638e-10
3.06228e-08
4.86714e-09
-3.86295e-10
1.71177e-08
7.40011e-09
3.74094e-10
2.70354e-08
-3.52127e-10
-6.32263e-10
2.18288e-08
-9.23201e-10
-1.5478e-09
1.57895e-08
-3.3869e-10
6.33961e-11
1.89455e-08
8.40956e-10
2.58067e-08
-4.85072e-10
2.2627e-09
1.27014e-09
2.95092e-08
-3.09792e-10
7.74596e-10
-1.47232e-09
2.41118e-08
6.21951e-11
1.0955e-09
1.96642e-08
-3.00395e-11
-5.6263e-10
2.30464e-08
-4.77215e-10
3.51895e-10
2.47674e-08
7.74163e-10
3.07599e-10
2.96653e-08
-5.42674e-10
-1.22213e-09
1.62111e-08
-1.06752e-09
2.21881e-08
-1.6365e-09
-8.58685e-10
-1.00018e-09
3.2065e-08
5.60479e-10
3.2589e-10
1.82226e-09
3.65238e-08
-1.2063e-09
1.4588e-10
2.49661e-08
1.64752e-10
-4.22479e-10
2.28046e-08
-5.59011e-10
-2.29204e-09
1.53615e-08
-1.28209e-10
-3.78364e-10
2.31417e-08
-2.5119e-09
-2.29962e-09
1.63095e-08
2.81314e-09
3.53157e-08
2.30406e-09
3.664e-10
-1.30977e-09
2.84584e-08
1.39439e-09
-1.73569e-09
-7.4937e-10
2.2339e-08
9.13936e-10
-1.34016e-09
3.2314e-08
-1.89867e-09
8.55262e-11
2.41642e-08
1.03244e-09
1.11996e-09
3.57774e-08
1.20791e-10
3.02959e-10
2.54891e-08
3.37334e-10
4.84549e-10
2.71017e-08
-6.04773e-10
3.04931e-08
-3.98617e-10
4.18306e-10
-5.99944e-09
2.66081e-08
-3.10482e-10
-2.94952e-09
-5.82907e-10
2.56545e-08
-2.35758e-09
-2.83815e-09
1.96578e-08
-1.0707e-09
-1.05762e-09
2.00029e-08
1.43835e-10
-2.63565e-10
2.42977e-08
-9.12917e-10
-7.55112e-10
1.87822e-08
-7.33002e-10
1.04969e-09
2.65187e-08
9.44453e-10
3.54952e-08
2.46398e-10
3.90716e-09
2.36997e-09
5.74828e-08
4.99426e-09
-1.45961e-09
6.3209e-11
3.24644e-08
-2.2923e-09
-1.21036e-09
1.78715e-08
-1.15069e-10
-3.68208e-10
2.50922e-08
2.733e-10
4.0555e-11
2.74589e-08
2.12574e-10
-1.61251e-10
2.57969e-08
-6.19562e-10
-8.44927e-10
2.65476e-08
8.5679e-10
2.93102e-08
-1.32001e-10
8.43679e-10
3.23662e-08
-9.25448e-10
7.28248e-10
6.31476e-10
2.69042e-08
-2.21874e-09
-1.5766e-09
1.89739e-08
-1.85083e-09
-5.83762e-10
2.79578e-08
6.75564e-10
-2.14674e-10
2.79585e-08
-5.08583e-10
-8.96246e-10
3.02882e-08
8.95732e-10
7.40515e-10
3.46846e-08
3.8882e-10
2.38751e-08
-3.75556e-10
-2.3781e-09
-1.03181e-09
4.3393e-10
3.09638e-08
4.29631e-09
1.81447e-09
4.31098e-10
5.3287e-10
2.7107e-08
-1.15801e-09
9.52654e-10
1.75139e-09
2.65557e-08
-1.20838e-10
5.86438e-10
5.74313e-10
2.81029e-08
7.36029e-10
7.07334e-10
7.67661e-10
3.01241e-08
-6.45136e-10
3.76688e-10
-1.80399e-10
2.43745e-08
1.62301e-10
2.14891e-12
1.04452e-10
2.22323e-08
-1.85888e-09
-9.14611e-10
2.79507e-08
1.05245e-09
1.53492e-09
-2.85253e-09
-3.00455e-10
2.82712e-08
4.01805e-09
1.44432e-09
-8.04305e-11
2.69405e-08
8.95102e-10
-8.52363e-10
2.0271e-08
6.0529e-10
-6.13398e-10
2.85113e-08
7.00328e-10
-2.63882e-10
2.2766e-08
-1.8182e-10
-2.12559e-09
1.86163e-08
-4.14481e-10
-7.36543e-10
2.00184e-08
-1.66896e-09
2.70754e-08
-9.30139e-10
-2.19327e-09
-1.20894e-09
2.75805e-08
5.03169e-09
8.95871e-11
-1.83738e-09
2.35863e-08
-6.74561e-11
-1.40627e-09
2.03757e-08
-2.64778e-10
-9.13701e-10
2.35433e-08
1.61209e-11
-5.5338e-10
2.47761e-08
1.24737e-09
-1.05331e-09
2.7361e-08
-3.46589e-10
-1.11104e-09
1.81797e-08
-2.60022e-09
2.46281e-08
-1.85638e-09
-3.05118e-09
-2.85701e-10
2.90559e-08
5.13776e-09
1.28558e-09
1.04102e-09
2.93087e-08
7.46549e-10
-9.8941e-10
2.50881e-08
4.36642e-10
-5.7255e-10
2.27729e-08
-6.4261e-10
-2.81921e-09
1.87055e-08
1.09321e-11
-3.01436e-10
2.17369e-08
-1.95537e-09
-2.39512e-09
1.9558e-08
-1.17834e-09
3.12731e-08
6.66787e-10
-1.30193e-09
-1.31699e-09
2.74968e-08
3.29491e-09
-1.48649e-09
-8.97471e-10
2.44625e-08
-2.8532e-10
1.09298e-09
2.90303e-08
-1.7835e-09
-4.86767e-10
2.55762e-08
5.04606e-12
-4.87987e-10
3.16573e-08
-6.87687e-10
-5.84892e-10
2.64636e-08
-1.65627e-09
-1.44867e-09
2.71241e-08
-1.16591e-09
2.872e-08
1.02715e-10
-1.04763e-09
-4.20481e-09
2.81728e-08
2.37082e-09
5.89744e-10
-1.73322e-09
2.48523e-08
-1.51002e-09
-1.12992e-09
2.39807e-08
-1.7265e-09
-2.15694e-09
2.18894e-08
-1.38418e-09
-1.66614e-09
2.51331e-08
-2.87865e-09
-1.98749e-09
2.16792e-08
-3.25488e-09
-1.01714e-09
2.64637e-08
1.34523e-09
2.9758e-08
-2.85916e-11
1.98239e-09
4.07328e-09
4.10129e-08
6.20974e-09
2.48882e-09
6.97435e-10
2.95273e-08
-2.05742e-09
-7.56862e-10
2.20432e-08
-1.80262e-09
-1.19442e-09
2.38756e-08
-1.57832e-09
-9.48591e-10
2.65164e-08
-1.97969e-09
-1.20617e-09
2.54175e-08
-1.65388e-09
-1.10294e-09
2.63081e-08
1.93643e-09
2.72971e-08
-2.31949e-10
-7.17738e-10
3.27423e-08
1.94408e-09
2.47193e-09
-5.47792e-10
2.74574e-08
-2.62075e-11
-3.0853e-09
2.1089e-08
-3.34412e-10
-1.89692e-09
2.4806e-08
7.69143e-10
-2.14585e-09
2.81421e-08
-8.84008e-10
-2.11545e-09
2.86997e-08
3.52274e-10
1.95584e-10
3.02515e-08
1.01997e-09
2.49313e-08
1.40061e-09
-3.24123e-10
2.91589e-09
2.34449e-09
2.91554e-08
-2.42492e-09
-1.02724e-09
1.91701e-09
1.92954e-09
2.77438e-08
-1.56728e-09
1.64031e-10
2.80504e-09
2.68149e-08
-1.3115e-09
2.30777e-10
1.55262e-09
2.72877e-08
-8.03635e-10
1.75994e-09
3.62837e-09
2.79078e-08
-2.94155e-09
1.3389e-11
2.56652e-09
2.59657e-08
-2.41175e-09
-2.303e-09
2.66622e-09
2.55249e-08
-3.64274e-09
1.15637e-09
2.73244e-08
-7.62114e-10
-2.0718e-09
1.46111e-09
8.3553e-10
2.75966e-08
7.22618e-10
2.26227e-09
1.2304e-09
2.68384e-08
-1.68517e-11
7.41429e-10
2.4615e-08
1.54977e-09
1.91966e-09
2.65772e-08
1.69384e-09
1.24588e-09
2.50054e-08
-6.30913e-10
-2.42926e-10
2.37504e-08
-3.45081e-09
1.17368e-09
2.43301e-08
6.45323e-10
2.7228e-08
-3.09189e-09
2.19324e-09
-1.02661e-10
2.71917e-08
-8.66186e-10
1.94786e-09
-6.82088e-10
2.57444e-08
8.90636e-11
-1.36387e-09
2.43398e-08
-4.69456e-11
5.09898e-10
2.50902e-08
4.7609e-10
2.73335e-10
2.52252e-08
1.49606e-09
1.39421e-10
2.59576e-08
-2.33132e-09
-6.85604e-10
2.38662e-08
-1.2761e-09
2.67176e-08
-2.50011e-09
9.9424e-10
-3.87408e-10
2.7863e-08
4.84347e-10
2.21568e-09
-2.09754e-11
2.74258e-08
1.80044e-09
-1.65218e-09
2.57904e-08
1.53338e-09
-1.16796e-09
2.47179e-08
2.49154e-10
-3.33251e-09
2.35949e-08
-6.17662e-10
-1.8465e-09
2.45906e-08
-3.1529e-09
-3.03351e-09
2.44397e-08
-8.84551e-10
2.85239e-08
-7.94084e-10
1.34336e-09
-1.39169e-09
2.76886e-08
-5.32171e-10
3.73309e-10
-8.38008e-10
2.62492e-08
5.36641e-10
2.39405e-10
2.69763e-08
-6.8778e-10
-2.70742e-10
2.59029e-08
6.51717e-10
-6.56555e-10
2.76422e-08
-3.39426e-10
-8.20471e-10
2.64281e-08
-1.44738e-09
-1.76924e-09
2.69702e-08
-1.22518e-09
2.82249e-08
-6.11218e-10
1.88222e-09
-3.22093e-09
2.84019e-08
-2.82606e-10
1.52185e-09
-2.10382e-09
2.64783e-08
7.42783e-10
-4.77089e-10
2.54755e-08
-8.80074e-10
-1.48833e-09
2.47293e-08
-6.06418e-10
-1.6576e-09
2.58604e-08
-2.34774e-09
-2.57474e-09
2.51755e-08
-2.40048e-09
-2.24831e-09
2.69953e-08
-1.3068e-09
2.8464e-08
-1.02487e-09
3.2972e-09
4.06626e-10
3.22782e-08
1.80913e-09
3.22048e-09
-9.35643e-10
2.84349e-08
3.63707e-10
-9.23603e-10
2.53458e-08
-1.45543e-09
-1.35378e-09
2.55596e-08
-1.14193e-09
-2.07981e-09
2.66246e-08
-1.94127e-09
-2.9105e-09
2.65532e-08
-1.85653e-09
-3.41877e-09
2.73944e-08
-2.50591e-09
2.80031e-08
-1.36365e-09
2.01543e-09
2.9852e-08
8.96323e-10
3.84322e-10
2.26989e-09
2.78567e-08
-1.59004e-09
-7.03467e-10
2.53112e-08
-2.1727e-09
-2.39738e-09
2.61381e-08
-9.93346e-10
-1.98071e-09
2.76322e-08
-1.98644e-09
-2.28801e-09
2.80944e-08
-1.99766e-09
-1.23402e-09
2.90556e-08
-3.27647e-09
2.79844e-08
-4.80937e-09
-1.98375e-09
1.0316e-09
1.279e-09
2.83185e-08
-6.77453e-10
-7.97062e-10
9.25279e-10
1.41155e-09
2.77295e-08
-1.29067e-09
2.51317e-10
1.70655e-09
2.72182e-08
-1.43518e-09
1.75323e-10
1.43886e-09
2.72855e-08
-1.3603e-09
6.54063e-10
2.00802e-09
2.74165e-08
-1.99495e-09
-3.62007e-11
1.42266e-09
2.68251e-08
-1.5916e-09
-8.23757e-10
1.12497e-09
2.67805e-08
-1.5929e-09
4.38023e-11
2.73696e-08
9.10135e-12
-9.21518e-10
6.52486e-10
4.56453e-10
2.74713e-08
2.95583e-10
1.02279e-09
7.90134e-10
2.70895e-08
2.31635e-10
7.20701e-10
2.63921e-08
5.04286e-10
1.05786e-09
2.66862e-08
3.74821e-10
8.04974e-10
2.63381e-08
-6.0997e-10
1.47814e-10
2.60102e-08
-1.67781e-09
2.7513e-10
2.62481e-08
-2.5363e-10
2.73159e-08
-1.46779e-09
1.09001e-09
-1.09954e-10
2.73166e-08
-6.48664e-10
1.04456e-09
-1.48549e-10
2.67288e-08
2.65019e-10
-3.05895e-10
2.61458e-08
-1.43977e-11
2.1162e-10
2.62151e-08
-1.8941e-10
1.18768e-11
2.61942e-08
-2.98181e-10
-1.95914e-10
2.64104e-08
-1.68329e-09
-6.39161e-10
2.61651e-08
-9.22354e-10
2.72766e-08
-1.57291e-09
8.18273e-10
-3.85395e-10
2.75243e-08
-2.03328e-10
1.17581e-09
-2.03786e-10
2.71237e-08
8.25854e-10
-6.55211e-10
2.64887e-08
3.53259e-10
-6.57522e-10
2.60576e-08
-4.38818e-10
-1.40847e-09
2.58091e-08
-9.75585e-10
-1.1745e-09
2.61055e-08
-2.02524e-09
-1.54413e-09
2.63952e-08
-9.38088e-10
2.77082e-08
-1.19425e-09
1.03436e-09
-7.24865e-10
2.76585e-08
-6.64936e-10
5.98864e-10
-5.39815e-10
2.70213e-08
3.52405e-10
-2.58621e-10
2.68271e-08
-4.53476e-10
-4.54388e-10
2.65069e-08
-3.95708e-10
-7.19485e-10
2.68934e-08
-1.03689e-09
-8.98191e-10
2.67936e-08
-1.54367e-09
-1.23851e-09
2.71711e-08
-9.86248e-10
2.78715e-08
-1.14079e-09
1.16742e-09
-1.10892e-09
2.8025e-08
-4.06683e-10
9.82976e-10
-1.0273e-09
2.71495e-08
3.14335e-10
-6.58493e-10
2.65436e-08
-6.49136e-10
-1.03009e-09
2.62688e-08
-8.59123e-10
-1.26943e-09
2.66193e-08
-1.65968e-09
-1.57033e-09
2.66482e-08
-1.76535e-09
-1.46849e-09
2.73315e-08
-1.00638e-09
2.80081e-08
-1.28917e-09
1.34055e-09
3.87335e-10
2.90871e-08
3.54069e-10
1.40098e-09
-4.95831e-10
2.78423e-08
1.1116e-10
-7.58117e-10
2.67346e-08
-9.19799e-10
-1.0751e-09
2.66352e-08
-1.10354e-09
-1.49075e-09
2.70293e-08
-1.52297e-09
-1.78112e-09
2.71832e-08
-1.43622e-09
-1.83949e-09
2.76787e-08
-1.38219e-09
2.80781e-08
-1.13544e-09
5.0849e-10
2.84844e-08
6.65408e-10
5.8068e-10
7.59135e-10
2.77655e-08
-6.55724e-10
-4.43286e-10
2.68811e-08
-1.12635e-09
-1.39108e-09
2.69788e-08
-9.68179e-10
-1.40699e-09
2.75785e-08
-1.42168e-09
-1.51672e-09
2.78912e-08
-1.46835e-09
-9.88796e-10
2.83979e-08
-1.70967e-09
2.84454e-08
-1.8987e-09
-9.33253e-10
7.24979e-10
1.04423e-09
2.80607e-08
-5.88907e-10
-9.22135e-10
6.49748e-10
9.91746e-10
2.77858e-08
-9.72486e-10
3.19791e-10
9.92653e-10
2.75215e-08
-9.65691e-10
1.37035e-10
9.20393e-10
2.74693e-08
-9.21239e-10
1.23755e-10
9.99281e-10
2.74761e-08
-1.04556e-09
-2.48197e-10
7.4955e-10
2.73035e-08
-8.55977e-10
-5.75545e-10
5.92807e-10
2.73435e-08
-8.28442e-10
1.92281e-10
2.75647e-08
-2.33459e-10
-7.29429e-10
5.00843e-10
5.14617e-10
2.76117e-08
-1.11318e-10
5.83995e-10
5.81822e-10
2.74165e-08
2.65071e-10
5.57341e-10
2.71466e-08
1.54873e-10
5.90022e-10
2.71262e-08
-3.53014e-11
4.86977e-10
2.70407e-08
-4.67256e-10
2.17434e-10
2.69739e-08
-8.73209e-10
1.36846e-10
2.71096e-08
-8.32903e-11
2.75153e-08
-7.97252e-10
6.16737e-10
1.18988e-10
2.75068e-08
-4.11102e-10
5.83641e-10
9.93504e-11
2.72446e-08
2.48318e-10
5.79625e-11
2.69805e-08
-8.41492e-12
1.37049e-10
2.69239e-08
-2.60175e-10
2.61129e-11
2.6907e-08
-4.98418e-10
-1.20445e-10
2.69862e-08
-9.61362e-10
-3.184e-10
2.7083e-08
-4.37875e-10
2.75255e-08
-8.5572e-10
5.40975e-10
-1.94182e-10
2.75461e-08
-2.49421e-10
5.95112e-10
-1.45542e-10
2.73142e-08
3.54123e-10
-2.49848e-10
2.70365e-08
1.60049e-12
-3.16008e-10
2.68599e-08
-4.11916e-10
-5.58161e-10
2.68083e-08
-7.57455e-10
-6.10034e-10
2.69409e-08
-1.10064e-09
-7.51023e-10
2.71705e-08
-6.63216e-10
2.7662e-08
-8.29058e-10
6.06394e-10
-3.84174e-10
2.76641e-08
-4.21778e-10
4.66468e-10
-3.45699e-10
2.73614e-08
1.89649e-10
-3.00399e-10
2.71547e-08
-2.49691e-10
-3.95673e-10
2.70272e-08
-4.82724e-10
-5.54465e-10
2.71197e-08
-8.24516e-10
-6.78131e-10
2.72022e-08
-1.03291e-09
-8.20352e-10
2.74485e-08
-7.89538e-10
2.78093e-08
-8.44613e-10
6.24299e-10
-5.3155e-10
2.78348e-08
-2.86757e-10
5.2808e-10
-5.58787e-10
2.74584e-08
1.28838e-10
-5.1446e-10
2.71563e-08
-3.83654e-10
-6.51944e-10
2.70376e-08
-6.6982e-10
-8.10111e-10
2.71598e-08
-1.02738e-09
-9.51178e-10
2.72786e-08
-1.12428e-09
-9.91558e-10
2.75996e-08
-9.14549e-10
2.79473e-08
-9.38395e-10
6.16983e-10
-1.44195e-10
2.81515e-08
-6.88938e-11
5.7846e-10
-4.01282e-10
2.77229e-08
2.70035e-11
-5.43951e-10
2.73149e-08
-5.29029e-10
-6.95058e-10
2.7234e-08
-7.98381e-10
-9.06201e-10
2.73939e-08
-1.05521e-09
-1.05889e-09
2.75477e-08
-1.06914e-09
-1.1362e-09
2.78373e-08
-1.10383e-09
2.81088e-08
-9.10549e-10
3.23881e-10
2.80052e-08
-8.30821e-12
1.94034e-11
3.32332e-10
2.7756e-08
-4.00644e-10
-1.96591e-10
2.74401e-08
-5.74322e-10
-7.4914e-10
2.74336e-08
-5.97741e-10
-9.58739e-10
2.76842e-08
-8.02814e-10
-1.12097e-09
2.78959e-08
-9.01482e-10
-1.02543e-09
2.81941e-08
-1.02784e-09
2.83916e-08
-1.18619e-09
-8.89113e-10
3.2395e-10
5.9217e-10
2.79311e-08
-2.24124e-10
-5.62314e-10
3.17656e-10
5.7608e-10
2.78028e-08
-5.86693e-10
1.91417e-10
5.61576e-10
2.76748e-08
-5.88561e-10
8.01246e-11
5.29317e-10
2.76212e-08
-5.69868e-10
1.02693e-11
5.07288e-10
2.76056e-08
-5.67069e-10
-1.57187e-10
3.73257e-10
2.75537e-08
-4.56184e-10
-2.79166e-10
2.60473e-10
2.759e-08
-3.8531e-10
5.57312e-11
2.76789e-08
-9.90492e-11
-3.50252e-10
2.53697e-10
3.297e-10
2.77053e-08
-8.45901e-11
2.82015e-10
3.55992e-10
2.76083e-08
1.56318e-10
3.4634e-10
2.74876e-08
4.02051e-11
3.28094e-10
2.74431e-08
-9.01023e-11
2.6455e-10
2.74134e-08
-2.86443e-10
1.34083e-10
2.7409e-08
-4.37362e-10
3.35407e-11
2.74869e-08
-1.01428e-10
2.76477e-08
-4.13158e-10
3.00337e-10
1.12008e-10
2.7633e-08
-2.08771e-10
2.8141e-10
1.07863e-10
2.75117e-08
1.30138e-10
8.83401e-11
2.73898e-08
-3.69942e-11
7.81344e-11
2.73404e-08
-2.06522e-10
7.47585e-12
2.73328e-08
-3.77479e-10
-8.87726e-11
2.73797e-08
-5.35567e-10
-1.97236e-10
2.74713e-08
-2.81825e-10
2.76608e-08
-4.90876e-10
2.82229e-10
-8.31292e-11