/*--------------------------------*- C++ -*----------------------------------*\
| =========                 |                                                 |
| \\      /  F ield         | OpenFOAM: The Open Source CFD Toolbox           |
|  \\    /   O peration     | Version:  2506                                  |
|   \\  /    A nd           | Website:  www.openfoam.com                      |
|    \\/     M anipulation  |                                                 |
\*---------------------------------------------------------------------------*/
FoamFile
{
    version     2.0;
    format      ascii;
    arch        "LSB;label=32;scalar=64";
    class       surfaceScalarField;
    location    "0.005";
    object      phi;
}
// * * * * * * * * * * * * * * * * * * * * * * * * * * * * * * * * * * * * * //

dimensions      [0 3 -1 0 0 0 0];

oriented        oriented;

internalField   nonuniform List<scalar> 
1200
(
0.00155823
-2.67279e-06
-1.7202e-05
0.00153332
1.21391e-05
-1.08254e-07
0.00153166
9.35396e-07
1.36834e-05
0.00154864
-7.89285e-06
1.77793e-05
0.00156921
-1.74848e-06
-9.24103e-06
0.00159782
-9.06509e-06
-4.34886e-05
0.00157692
-6.61589e-06
2.27053e-06
0.00155754
-5.07944e-06
8.13494e-07
0.00156764
9.41476e-07
-1.40049e-05
0.00157144
2.4664e-06
-4.35297e-06
0.00155376
8.48984e-06
1.11299e-05
0.00155308
-3.14811e-08
-6.53841e-06
0.00154921
-3.72158e-06
-7.77093e-06
0.00153135
7.09127e-06
-5.42891e-06
0.00154123
4.3819e-07
-3.58848e-06
0.00155659
-3.98523e-06
-2.50206e-08
0.00155647
6.08687e-08
-2.25036e-07
0.00157682
-1.35581e-05
-5.80246e-07
0.00156848
-1.49973e-06
1.52503e-05
0.00156407
4.59172e-06
5.74624e-06
0.0015882
-7.47612e-06
-4.87467e-06
0.00158442
-5.5161e-06
-2.0988e-05
0.00155005
1.1032e-06
-1.26979e-05
0.00153845
-2.94855e-06
-8.62551e-06
0.00154925
-1.18685e-06
-3.00696e-06
0.00153822
4.69569e-06
2.6326e-06
0.00152689
6.972e-06
1.20226e-05
0.00153671
8.09164e-07
2.02275e-05
0.00154616
-2.7837e-06
1.76909e-05
0.00151653
1.65266e-05
2.35893e-05
0.0015113
8.19494e-06
1.66983e-05
-1.02979e-05
-6.51694e-06
0.00154067
9.03609e-06
-1.03596e-05
0.00154051
1.4464e-05
-2.28509e-06
0.00156808
-7.02122e-06
1.05398e-05
0.00158854
-1.15475e-05
1.61896e-05
0.00160217
-4.6971e-06
3.73481e-06
0.00161394
-9.94193e-06
-3.69984e-05
0.00158904
-4.5149e-06
-7.10278e-06
0.001556
-4.69088e-07
3.13192e-06
0.00155058
1.13039e-06
-5.01706e-06
0.00156593
-9.47528e-06
-8.33518e-06
0.00158505
-1.04494e-05
4.23303e-06
0.0015863
-1.03848e-06
2.19235e-06
0.00157089
3.09649e-06
-5.09508e-06
0.00157082
4.27851e-06
-3.88933e-06
0.00157404
2.65746e-06
4.29451e-06
0.00156989
4.17971e-07
6.03681e-06
0.00157479
-6.76931e-06
-1.8444e-06
0.00157638
-1.46884e-05
6.59726e-06
0.00157285
-2.4468e-06
7.55388e-06
0.0015813
-1.40663e-06
-2.64505e-06
0.0015802
-2.1169e-06
3.36027e-06
0.00156035
2.74665e-06
-7.01081e-07
0.00155987
-7.84661e-06
-1.91192e-05
0.00155188
-2.81927e-06
-1.23842e-05
0.00156201
5.00157e-06
-1.07986e-05
0.00155517
1.13938e-05
-6.25813e-06
0.00155489
1.1343e-05
3.04655e-06
0.00154925
2.66563e-06
2.69236e-05
0.00154392
9.30102e-07
1.74052e-05
0.00156114
6.58857e-06
2.1906e-06
0.00157854
5.03063e-06
7.28464e-06
5.1941e-06
1.59412e-05
0.00154756
-1.7381e-06
4.20069e-06
0.00157205
4.23413e-07
4.10588e-07
0.00158173
-6.88005e-07
7.76589e-06
0.00158792
-4.8845e-06
3.22649e-06
0.00159895
-9.43012e-06
1.51069e-06
0.00159512
-8.71912e-06
-2.29083e-05
0.00158609
-9.15523e-06
-6.85515e-06
0.00158253
-4.01244e-06
-4.85104e-06
0.0015975
-9.67257e-06
-8.53224e-06
0.00158374
6.08381e-06
-7.27208e-06
0.00155562
8.63855e-06
4.83362e-06
0.00153943
1.5787e-06
7.72124e-06
0.00155415
-8.09987e-06
-8.67662e-06
0.00158372
-9.20826e-06
-1.55349e-05
0.00158155
6.6847e-06
-1.18834e-06
0.00156809
1.83805e-07
-2.68869e-06
0.00158014
-1.04134e-05
-5.98403e-06
0.00158229
-3.12928e-06
2.38253e-06
0.0015886
2.3962e-06
-1.8643e-06
0.00159263
-7.23404e-06
1.03989e-06
0.00159333
-7.42149e-06
8.30259e-06
0.0015658
1.33509e-05
-3.70554e-06
0.00153247
3.74256e-06
-4.45649e-06
0.00152732
-4.66903e-06
-2.58331e-06
0.00152848
9.5331e-07
8.46582e-07
0.00154137
5.91092e-06
-2.61188e-06
0.00155639
2.8172e-06
-2.76307e-06
0.00154962
-3.32039e-08
1.80141e-05
0.00154536
2.25464e-06
1.59691e-05
0.00155729
9.31732e-06
1.61345e-06
0.00155438
1.52148e-05
1.06659e-05
1.28289e-05
1.04527e-05
0.00158484
-2.45089e-06
4.70699e-06
0.00156762
1.53908e-05
-5.83093e-07
0.0015503
1.92081e-05
1.84015e-07
0.00156493
-1.00745e-05
-6.29679e-07
0.00160317
-4.07865e-05
-8.45504e-06
0.00163266
-2.78838e-05
-1.69743e-05
0.00163124
-1.39987e-06
-5.30909e-06
0.00160236
1.29672e-05
1.80725e-06
0.00158088
-5.04688e-06
5.11424e-06
0.00158078
-5.41164e-06
7.2426e-06
0.00158945
-6.12837e-06
-2.01134e-06
0.00159913
-3.5407e-06
-3.97536e-06
0.00156509
2.31113e-05
8.02117e-06
0.0015386
1.08359e-05
1.0381e-05
0.00154649
-4.57772e-06
-1.28476e-06
0.00154685
-7.21814e-06
-8.60676e-06
0.0015335
1.81399e-06
5.95966e-07
0.00153254
-1.14516e-06
-6.55878e-07
0.00153878
-3.25473e-06
-1.06037e-06
0.00152594
-6.80756e-06
7.0901e-06
0.0015175
-5.94409e-06
3.72669e-06
0.0015191
8.22795e-06
-9.52984e-06
0.00151434
6.41529e-06
-4.62081e-06
0.00150262
3.43958e-06
3.37205e-06
0.00150531
1.92032e-06
7.42786e-07
0.00154729
-1.41922e-05
-1.29245e-05
0.0015631
-1.55732e-05
2.575e-06
0.00155354
-4.84414e-06
8.72845e-06
0.00155992
3.77785e-06
4.55274e-06
0.00159121
-2.42913e-08
-7.33306e-07
0.00157973
3.0928e-05
3.90572e-06
1.65066e-05
5.74878e-06
0.00158475
3.05332e-05
5.89527e-06
0.00157404
2.87749e-05
3.24018e-06
0.00156883
2.08522e-05
2.19573e-06
0.00154174
5.91727e-06
5.85181e-06
0.00155095
-4.84577e-05
-6.31475e-06
0.0015833
-4.30575e-05
-1.50809e-05
0.0016095
-5.06641e-06
-7.09072e-06
0.00158105
2.03172e-05
1.68831e-05
0.00154765
1.1549e-05
6.91704e-06
0.00154156
1.17817e-06
-2.86166e-06
0.00154463
-6.46929e-06
-8.14598e-07
0.00151475
4.04035e-06
1.14995e-05
0.00153045
1.37794e-05
5.61104e-06
0.00156697
-4.4574e-06
2.15939e-06
0.00157347
-1.99511e-06
-7.53312e-06
0.00155473
5.39564e-06
-5.29222e-06
0.0015444
6.00338e-06
1.06123e-06
0.00154709
-1.0148e-06
-1.95556e-06
0.00155508
-2.83065e-06
-7.7111e-06
0.00154173
2.14573e-06
-2.08367e-06
0.00154119
-6.17503e-06
-9.66733e-06
0.00156039
-4.62162e-06
-2.20594e-06
0.00157171
-3.7441e-06
-1.37446e-06
0.00157533
-2.18325e-06
-5.58885e-07
0.00159135
-4.1998e-06
-7.1959e-06
0.0016001
-9.89592e-06
-6.94973e-06
0.00157479
1.33167e-06
2.66417e-06
0.00156299
-1.76097e-07
-6.68468e-06
0.00155578
1.4428e-05
6.55013e-06
0.00157973
-6.36327e-06
8.89771e-06
0.00162475
-2.43011e-06
-4.74885e-06
7.70482e-06
-5.16511e-07
0.00159867
1.30568e-05
-5.84682e-06
0.00160757
1.52729e-05
-4.6707e-06
0.0016229
3.37476e-06
-4.36013e-06
0.00160815
1.29578e-05
4.38451e-06
0.00155996
-4.82076e-06
8.60531e-06
0.00152224
-1.07203e-05
1.28246e-05
0.00153179
-4.78563e-06
4.90647e-06
0.00155948
-2.61821e-06
2.61502e-06
0.00157774
-7.73602e-07
-5.13134e-06
0.00159936
-8.30598e-06
-5.80168e-07
0.00160067
-1.09671e-06
-1.91851e-06
0.00158404
1.09836e-05
1.20593e-05
0.00158908
1.65e-05
2.12399e-06
0.00156632
1.59173e-05
3.15538e-06
0.00154633
-1.93178e-06
3.95615e-06
0.00155096
-5.1117e-06
-2.79641e-06
0.00154222
1.39842e-05
-1.6395e-06
0.00152688
6.88131e-06
-4.54523e-06
0.00153086
-1.39983e-05
-6.38161e-06
0.00154282
-1.18779e-05
-4.95274e-07
0.00155025
-1.0371e-05
-8.64966e-07
0.00156423
-9.25987e-06
3.5187e-06
0.00156865
-1.22445e-05
1.02865e-05
0.00156013
-7.20221e-06
-7.21806e-07
0.00155004
5.274e-06
-1.21317e-05
0.00155374
4.14631e-07
-1.51264e-06
0.00156766
-1.21451e-05
8.59909e-06
0.0015649
-2.99223e-07
3.92683e-06
0.00157134
2.07429e-05
-1.29088e-05
0.00155236
1.32354e-05
-3.91343e-06
0.00155518
-1.15817e-05
3.00578e-06
-1.66065e-05
-4.89691e-06
0.00157694
4.63392e-06
-1.3668e-05
0.00156556
7.12539e-06
-1.74204e-06
0.0015521
1.14592e-06
-3.5237e-06
0.00157661
4.90071e-07
-6.42084e-06
0.00157152
-3.1069e-07
6.09047e-06
0.00153711
-6.39793e-07
2.52537e-05
0.00154031
5.00118e-06
2.8856e-06
0.00155707
-1.02993e-06
-2.41271e-06
0.00155226
-6.04379e-07
1.1063e-05
0.0015447
1.82225e-07
9.71803e-06
0.00153701
3.02693e-06
8.68066e-06
0.00153104
4.93478e-06
1.83771e-05
0.00154617
-1.76023e-06
1.63676e-05
0.00158467
-9.41411e-07
-1.02308e-05
0.00159527
-1.55765e-06
-1.92214e-05
0.00159183
1.34358e-06
-9.26962e-06
0.00162303
6.73479e-06
-1.9406e-05
0.00163148
2.31898e-06
-7.93253e-06
0.00161303
-1.10863e-05
4.97557e-07
0.00160275
-7.14866e-06
6.808e-06
0.00158738
-2.58869e-06
1.26521e-05
0.00158479
-9.20541e-06
7.19147e-06
0.00157814
-1.40703e-05
4.07028e-06
0.00155186
3.95836e-06
-1.01971e-07
0.00155643
1.31005e-06
-2.17858e-06
0.00156254
-9.27666e-06
1.63406e-06
0.00156941
-7.93258e-07
1.17166e-05
0.00157017
1.49987e-06
9.93312e-06
0.0015993
-3.8503e-06
-2.9209e-05
0.00160197
2.90716e-06
-2.36587e-05
0.00157548
7.96159e-06
9.35002e-06
-1.48789e-06
2.95531e-07
0.00155923
-2.69512e-06
0.00155225
4.01926e-06
0.00155441
-4.69227e-06
0.00157823
-1.58466e-05
0.00157985
-4.07082e-06
0.00156953
4.70947e-06
0.00159755
-8.41192e-06
0.00160858
-3.16074e-07
0.00158046
2.92699e-05
0.00156877
2.14434e-05
0.00157426
4.74154e-06
0.00157837
1.07671e-05
0.00158238
7.44531e-06
0.001585
-6.40622e-06
0.00157964
1.1498e-06
0.00158715
-6.24598e-06
0.0016171
-2.27404e-05
0.00162738
-1.48236e-05
0.00158259
1.53046e-05
0.00155753
9.35585e-06
0.00154856
-8.86929e-07
0.00153508
8.74923e-06
0.00151746
8.82508e-06
0.00153708
-1.18352e-05
0.00155686
-1.21931e-05
0.00154881
4.88322e-06
0.00154753
2.31307e-05
0.00156441
2.83159e-06
0.00155417
-1.66658e-05
0.00153233
-1.32563e-05
0.00154604
-2.17608e-06
-8.45456e-06
0.00153861
3.66004e-06
0.00151931
1.8281e-05
0.00151645
6.21098e-06
0.00153376
-2.48383e-06
0.00156857
-8.84144e-06
0.00156079
-1.17685e-05
0.00156086
-1.17216e-06
0.00155383
-4.45404e-07
0.00153691
4.56469e-06
0.001543
-1.69285e-06
0.00155782
-4.20472e-06
0.00155108
-6.18096e-06
0.00155746
-1.10756e-05
0.0015589
1.29248e-06
0.00153896
1.02297e-05
0.00153638
-8.52195e-06
0.00153479
-5.27631e-06
0.00153652
7.28098e-06
0.00155324
6.48934e-06
0.00156276
-1.72266e-06
0.00154746
3.67829e-06
0.00152583
2.05957e-06
0.00151689
3.62154e-06
0.0015034
5.65396e-06
0.00148674
7.56091e-06
0.0014839
-3.84739e-06
0.00149937
-1.03185e-05
0.00152315
-8.75839e-06
0.00154227
-7.51866e-06
0.00154933
7.65426e-06
0.00156254
9.77638e-08
-3.82668e-06
0.00152554
1.83429e-05
0.0015042
3.42772e-05
0.00151995
-3.63585e-06
0.00157092
-2.57566e-05
0.00159202
-2.69228e-06
0.00155548
7.27788e-06
0.00155889
-7.43319e-06
0.00156001
-8.37107e-06
0.00154962
8.19032e-06
0.00154831
-6.43474e-06
0.00156185
-2.39013e-05
0.0015517
-4.62244e-06
0.0015372
-2.98481e-06
0.00154603
-3.41352e-07
0.0015575
3.94529e-06
0.00153983
2.07461e-06
0.00152079
5.09112e-06
0.0015431
1.07981e-06
0.00156502
-3.24211e-06
0.00156399
-5.35501e-06
0.00157359
-6.15749e-06
0.00156227
1.97664e-06
0.00154015
1.19606e-05
0.00153425
1.00665e-05
0.0015251
1.22973e-05
0.00150493
8.29106e-06
0.00151039
-8.15113e-06
0.00153075
-8.70292e-06
0.00152123
4.95543e-06
0.00152699
4.3e-06
0.00154294
-1.17316e-05
-8.08532e-06
0.00154497
-2.98406e-06
0.00158741
-1.03731e-07
0.0015857
1.64817e-06
0.00156679
-8.87874e-06
0.00158543
-1.32757e-05
0.0016005
2.73121e-06
0.00158607
1.72972e-06
0.0015599
-3.28765e-07
0.0015704
4.32299e-07
0.00157495
-1.70704e-06
0.00154636
-2.09341e-06
0.00154328
5.98496e-08
0.00152929
8.59141e-06
0.00151538
2.98206e-06
0.00152149
2.858e-07
0.00152242
-1.57989e-06
0.00153223
-1.16242e-06
0.00155724
-9.00449e-06
0.00155774
-5.29115e-06
0.00153911
-1.41661e-06
0.0015357
-3.86892e-06
0.00151254
1.4799e-05
0.00149302
1.40986e-05
0.00148728
3.08933e-07
0.00149249
-2.30203e-06
0.00151418
-9.60564e-07
0.00153296
-7.51231e-06
0.00154045
2.38034e-06
0.00154002
9.04143e-06
0.00154044
4.26225e-07
0.00152579
1.10317e-06
1.34407e-07
0.00154037
-3.98486e-06
0.00153585
9.0143e-06
0.00152284
8.01614e-06
0.00152179
-1.66488e-05
0.00155503
-4.19766e-05
0.00160477
-2.69226e-05
0.0016102
2.73269e-06
0.00156436
3.12853e-05
0.00154453
1.00384e-05
0.0015389
-5.80295e-07
0.00152988
-7.53595e-06
0.00152054
5.45059e-06
0.001517
2.39679e-05
0.00153026
3.94639e-06
0.00154254
-1.08123e-05
0.00154098
-5.11284e-06
0.00154137
-5.49636e-07
0.00153698
-2.85903e-06
0.00154131
-7.7779e-06
0.00155102
-9.67224e-06
0.00153933
4.50426e-06
0.00152987
1.23254e-05
0.00152877
3.81088e-06
0.00152698
-9.93234e-06
0.00152821
-3.5487e-06
0.00152361
5.88626e-06
0.00153328
8.8074e-07
0.0015429
4.0494e-06
0.00152978
2.0478e-05
0.00152028
3.83972e-06
0.00152493
-2.53996e-06
-4.7899e-06
0.00155255
-5.80619e-07
0.00153954
2.42805e-05
0.00153316
1.45273e-05
0.00154339
-3.10123e-05
0.00152268
-2.49681e-05
0.00150565
-1.14158e-05
0.00151338
-7.81272e-06
0.00155623
1.55565e-05
0.00155645
1.46594e-05
0.00153703
5.2999e-06
0.00149979
6.64635e-06
0.00149857
7.60339e-06
0.0015243
9.35659e-06
0.00155216
-5.43818e-06
0.00154132
-2.36223e-06
0.00153173
-1.18491e-06
0.0015345
-6.03969e-06
0.00153973
-3.07946e-06
0.00153486
3.42945e-07
0.00152478
3.22902e-07
0.00151568
-3.7885e-07
0.00152915
-5.29274e-07
0.00154627
-8.69808e-06
0.00154661
-1.14684e-05
0.00153601
-3.58066e-06
0.00153733
2.52468e-06
0.00154353
2.5379e-06
0.0015314
1.419e-05
0.00154048
8.27949e-06
0.00154802
-1.71548e-06
0.00154541
-4.18861e-06
-5.31916e-06
0.00151486
4.74467e-06
0.00154693
6.14264e-06
0.00154686
1.06253e-05
0.00149902
-1.13426e-05
0.00148463
-1.44422e-05
0.00151823
-1.15204e-05
0.00154872
-1.32913e-05
0.00159237
-8.01404e-06
0.00158997
2.0088e-06
0.00156476
7.49109e-06
0.00155868
2.37643e-06
0.00156011
2.10141e-05
0.0015539
2.52315e-05
0.00153879
4.26593e-06
0.00154391
-1.28172e-05
0.00154792
-7.84039e-06
0.00154568
-7.1296e-06
0.00153265
-3.48868e-06
0.0015253
-2.0472e-06
0.00153709
-8.50964e-06
0.00154256
-5.96233e-06
0.00154204
4.89777e-06
0.00155145
-4.9569e-06
0.00154901
-5.60782e-06
0.00154298
-2.31828e-06
0.00154534
-2.47659e-06
0.00155472
-1.55416e-06
0.00157607
5.27208e-06
0.00157616
7.4619e-06
0.00155747
9.8523e-06
0.001536
1.06079e-05
2.72786e-06
0.00152988
7.71378e-06
0.0015334
9.52543e-06
0.00155227
-5.06714e-06
0.0015246
-8.7703e-06
0.00150044
-8.31396e-06
0.00151849
-1.42661e-05
0.00153043
-8.28546e-06
0.00154915
-5.61749e-06
0.0015692
-7.20282e-06
0.00155773
1.29654e-05
0.00155028
1.05448e-05
0.00158027
6.3839e-06
0.00161732
2.9856e-06
0.00161342
2.20057e-06
0.00158879
-7.0795e-07
0.00157981
-7.62322e-06
0.00156679
-7.38805e-06
0.00156342
-1.78086e-06
0.00155147
1.63768e-06
0.00154024
-3.1941e-06
0.00154354
3.54883e-06
0.00154823
3.51226e-06
0.00154438
-1.26222e-06
0.00153592
2.73759e-06
0.00153671
-1.80024e-06
0.00154198
-5.9668e-06
0.00155375
-1.29572e-06
0.00156426
-3.46045e-06
0.00155164
-5.21046e-06
0.00153145
1.03221e-05
0.00154119
1.23053e-05
1.78092e-06
0.00153754
0.00157035
0.00156616
0.00153323
0.00151804
0.00151047
0.00149719
0.00148938
0.00150555
0.00153262
0.00154168
0.00154632
0.00155519
0.00155754
0.00155519
0.00153991
0.00152415
0.00152093
0.00151719
0.00151661
0.00151889
0.00153568
0.0015421
0.00153343
0.00152387
0.00152246
0.00154772
0.00154766
0.00152006
0.00151639
0.00153509
)
;

boundaryField
{
    wall
    {
        type            calculated;
        value           uniform 0;
    }
    outlet
    {
        type            cyclic;
        value           nonuniform List<scalar> 
16
(
0.00154108
0.00155559
0.00153761
0.00157356
0.0016244
0.0015794
0.0015642
0.0015583
0.00156027
0.00155368
0.00151594
0.00153225
0.00155091
0.00151556
0.00154044
0.00152852
)
;
    }
    inlet
    {
        type            cyclic;
        value           nonuniform List<scalar> 
16
(
-0.00154108
-0.00155559
-0.00153761
-0.00157356
-0.0016244
-0.0015794
-0.0015642
-0.0015583
-0.00156027
-0.00155368
-0.00151594
-0.00153225
-0.00155091
-0.00151556
-0.00154044
-0.00152852
)
;
    }
    procBoundary2to1
    {
        type            processor;
        value           nonuniform List<scalar> 
256
(
2.71967e-06
1.2885e-05
-1.29651e-05
-2.68676e-05
-9.57381e-06
2.3936e-05
2.52544e-05
2.36372e-05
2.96319e-06
-1.90561e-06
-1.94511e-06
7.25218e-06
1.53608e-05
1.61986e-05
-6.73167e-06
-1.13463e-05
2.8014e-07
-6.21053e-06
-5.40546e-06
-5.93573e-06
-1.17728e-05
3.02816e-05
4.59628e-05
2.31806e-05
-6.60661e-06
3.70091e-06
-7.66357e-06
-3.08628e-05
-2.43571e-05
-1.04856e-05
-1.96623e-05
-1.29609e-05
1.35688e-05
1.21094e-07
-3.01541e-05
-3.29939e-05
-1.44142e-05
2.61016e-05
2.98989e-05
2.52967e-05
1.02527e-05
4.92305e-06
-4.40678e-06
-2.43862e-06
1.36844e-05
6.77747e-06
-9.73685e-06
-6.29153e-06
3.77852e-06
-7.05951e-06
-3.07269e-06
1.9045e-07
-7.6257e-06
1.22918e-05
2.85535e-05
2.02389e-05
-5.51367e-06
6.39662e-06
-7.13491e-06
-2.31404e-05
-1.57921e-05
-9.47227e-06
-2.15206e-05
-8.47927e-06
-3.37633e-06
-1.08611e-05
-2.37833e-05
-1.60713e-05
-7.8097e-06
2.55133e-05
2.05304e-05
1.19513e-05
4.36004e-06
5.47311e-06
4.20219e-06
5.85412e-06
5.14835e-06
-5.4424e-07
-6.74639e-07
1.63888e-05
-2.42388e-06
-1.60893e-05
-9.28644e-06
7.56895e-07
-3.69749e-06
2.06264e-05
2.61935e-05
9.58339e-06
2.04289e-06
-4.79718e-06
-3.72498e-06
-8.55164e-06
-1.30285e-05
-1.62688e-05
-1.79422e-05
-1.31883e-06
-1.52743e-05
2.84099e-06
-2.76949e-06
-8.80448e-06
1.56926e-06
6.64726e-06
-1.02552e-06
1.00997e-05
1.1737e-05
4.34949e-06
8.10885e-06
-5.85757e-07
-5.19449e-06
-3.93218e-06
4.65772e-06
1.5651e-05
5.22025e-07
-3.66394e-07
4.71426e-07
5.32742e-06
3.23103e-06
1.30579e-05
6.70845e-06
2.34302e-07
-4.3962e-06
-8.95745e-06
7.05282e-09
5.64496e-06
-1.24537e-05
-2.12194e-05
-8.13888e-06
-3.25617e-06
7.70647e-07
-5.92316e-06
1.37809e-06
5.24614e-06
4.77024e-06
-2.09035e-06
-1.54448e-05
4.21155e-06
9.88791e-06
2.3661e-06
-1.91526e-06
1.08021e-05
-1.19778e-05
-2.33947e-05
-1.54951e-06
1.14232e-05
5.07581e-06
-8.57603e-07
-7.06127e-07
6.48005e-06
1.04431e-05
-4.14857e-06
2.12753e-07
2.56538e-06
-2.70871e-06
-6.09379e-06
5.74098e-06
1.38154e-05
-9.9918e-06
-2.65086e-05
-6.91088e-06
9.67216e-06
4.06048e-06
9.26967e-06
6.5052e-06
3.32846e-06
-4.05317e-06
-7.43754e-06
-1.47446e-05
-7.36527e-06
-8.0979e-07
-1.15488e-05
-4.76955e-06
-2.3673e-06
-9.88943e-06
-7.69849e-07
1.59673e-05
8.67707e-06
2.40337e-06
1.1985e-05
1.35648e-05
2.56291e-06
-2.36527e-06
-1.28606e-05
-6.21391e-06
1.42606e-05
1.27488e-05
-1.24968e-05
-9.0346e-06
-1.04856e-06
1.55851e-07
3.29219e-06
3.32822e-06
4.98189e-06
9.351e-06
2.12695e-05
1.9215e-05
-5.62139e-06
-5.51158e-06
-9.19264e-07
-1.58799e-05
-1.59347e-05
-6.42317e-06
-1.06386e-05
-5.1208e-06
-6.36009e-06
-1.32333e-05
-1.14113e-05
8.2489e-06
6.25088e-06
-4.54384e-06
4.04435e-06
1.50441e-05
-1.25898e-06
-5.06059e-06
-4.6561e-06
4.39832e-06
1.52243e-05
1.57492e-06
1.94529e-06
-2.99403e-05
-1.24903e-05
2.4675e-05
3.13151e-05
-2.40636e-06
-4.13395e-06
6.39649e-06
1.00825e-05
3.67587e-06
-7.47628e-06
2.14084e-06
4.96984e-06
-1.46089e-05
-1.17471e-05
-1.75035e-06
-9.57639e-06
-7.19981e-06
-9.94132e-06
-1.32179e-05
2.83967e-06
2.65736e-06
7.52174e-08
-4.68128e-07
6.85782e-06
1.84052e-05
8.55513e-06
7.26358e-06
-4.47548e-06
-5.27751e-06
-3.81921e-06
-6.27752e-06
-6.10888e-06
-2.26454e-05
-1.82151e-05
2.30542e-05
3.80039e-05
-3.56825e-06
-5.29024e-06
)
;
    }
    procBoundary2to3
    {
        type            processor;
        value           nonuniform List<scalar> 
256
(
7.95967e-07
9.08185e-07
1.03339e-05
2.95437e-06
-3.52071e-05
-2.39419e-05
3.37368e-06
8.28521e-06
-1.6458e-06
-8.74843e-06
5.14484e-07
6.37602e-06
-3.07264e-06
-8.16335e-06
6.12479e-06
1.10758e-05
6.63836e-06
-9.58519e-06
-7.95895e-06
-2.05044e-06
6.74794e-06
-1.4203e-06
-7.38007e-06
-7.8793e-07
6.094e-06
9.31405e-06
6.87355e-06
5.20215e-06
6.09431e-06
8.87214e-06
3.39116e-06
-4.17538e-07
3.09298e-06
3.06363e-06
4.63585e-06
-1.15037e-05
-2.35146e-05
-1.95048e-05
-4.25222e-06
9.93406e-06
1.7467e-06
-2.28415e-06
1.03878e-05
1.0789e-05
1.31579e-06
-1.10889e-05
-8.94148e-07
1.31085e-05
6.83339e-06
-9.51326e-06
-4.63505e-06
2.01825e-06
3.59524e-06
1.07052e-05
-5.34518e-06
-1.08882e-05
-6.39344e-06
1.78049e-06
-4.58762e-06
6.51406e-06
1.44485e-05
-2.0998e-07
3.16391e-06
9.45682e-06
-3.50322e-06
-7.64777e-06
4.19119e-06
5.26349e-06
-6.54809e-06
-3.34326e-05
-1.58339e-06
1.32698e-05
-1.12664e-05
-1.65532e-05
1.16147e-05
6.11602e-06
-6.26026e-06
-4.94444e-06
-3.64031e-06
3.69485e-08
-9.54369e-06
-1.25454e-05
-3.15137e-07
1.57369e-05
9.42277e-06
6.62914e-06
1.2928e-05
1.291e-05
1.02432e-05
-1.50506e-05
-2.21876e-05
-5.51638e-07
1.2312e-05
5.06031e-06
1.24855e-05
1.20787e-05
-2.40974e-06
-5.18287e-06
6.83127e-06
8.1919e-06
-1.29959e-05
-3.70608e-05
-1.17421e-05
1.60289e-05
1.53441e-05
1.1743e-05
1.24523e-05
-2.60746e-08
-3.81599e-06
-3.8443e-06
-2.46485e-06
-3.51527e-06
-4.04808e-07
-2.41561e-06
-2.90455e-06
5.63808e-06
7.04059e-06
2.41071e-06
6.76494e-06
1.54059e-05
7.55726e-07
-1.51748e-05
-1.54871e-05
-2.55739e-06
6.23189e-06
5.35499e-06
2.89677e-06
3.35318e-06
8.51364e-07
9.9045e-07
2.06614e-06
9.97919e-06
-2.61407e-06
-1.35568e-05
-4.27835e-06
-1.02351e-05
2.07331e-06
1.06829e-05
2.22446e-05
1.0567e-05
-5.51166e-06
-1.63186e-05
-5.14074e-06
3.76627e-07
3.78073e-06
-6.97385e-06
-1.09568e-05
-2.00429e-06
4.3187e-06
-2.82147e-06
-5.98561e-06
6.4115e-07
3.43424e-06
-4.90664e-06
-5.19367e-06
-4.70088e-06
9.67755e-06
6.91371e-06
-4.9689e-07
-5.48903e-06
-1.04724e-05
-1.85984e-05
-3.97494e-07
3.25555e-05
1.24702e-05
-2.06671e-05
-2.01006e-05
-1.74721e-05
9.92547e-06
2.2438e-05
8.42671e-06
-2.7829e-06
-7.53871e-06
8.55842e-06
9.29406e-06
-1.45402e-07
1.68659e-06
8.89202e-06
3.36187e-06
-3.45195e-06
-7.55358e-07
-1.38641e-06
-2.86314e-06
-4.14237e-06
-7.36653e-06
1.12929e-06
3.30813e-06
-8.50436e-06
-1.21785e-05
3.20829e-06
9.67485e-06
7.50042e-06
-6.07802e-06
-8.64345e-06
-6.70103e-06
1.86752e-05
2.41283e-05
9.95166e-06
-1.40662e-05
-2.3527e-05
2.25719e-07
1.57098e-05
7.96527e-06
3.02122e-06
1.55514e-06
-4.26579e-06
-6.70112e-06
-5.04611e-07
-6.12029e-06
-6.27482e-06
8.76638e-06
1.27167e-05
-1.56051e-07
3.88383e-06
4.22846e-06
9.53153e-09
-3.47995e-06
-1.53416e-07
-3.11098e-07
8.1617e-06
-3.9197e-06
-3.93685e-06
-2.08603e-06
1.98582e-06
-4.00167e-06
-1.92588e-05
-5.57491e-06
8.31086e-06
2.81203e-06
-1.98594e-06
-3.4173e-06
1.87699e-06
5.89036e-06
7.33731e-06
6.23325e-06
1.25032e-05
1.56781e-06
-6.56132e-06
2.79448e-06
1.40918e-06
-1.4363e-05
-1.33885e-05
2.06798e-05
6.74018e-06
3.84786e-07
-4.52974e-06
1.14819e-06
-4.26142e-07
-4.43694e-06
3.30447e-07
-3.43338e-06
-5.60592e-07
5.72196e-06
7.38045e-07
-8.57656e-06
-1.04413e-07
)
;
    }
}


// ************************************************************************* //
