FoamFile
{version 2.0; format ascii;class Cloud<passiveParticle>; location 0;object  positions;}
2510
(
( 0.0058905 5.10242e-06 0.000499528 ) 0 
( 0.00608426 3.62051e-06 0.00550136 ) 0 
( 0.0023206 0.000195635 0.000499623 ) 0 
( 0.00113589 0.000124177 0.00707953 ) 0 
( 0.00904912 2.51352e-05 0.00569485 ) 0 
( 0.00929156 0.000133147 0.00472308 ) 0 
( 0.0124751 4.95377e-05 0.000499474 ) 0 
( 0.000890085 0.000664287 0.00150899 ) 0 
( 0.0068292 0.000170247 0.00180178 ) 0 
( 0.010029 0.000123943 0.00546122 ) 0 
( 0.00918853 0.000317016 0.0105656 ) 0 
( 0.0123857 0.000208549 0.014341 ) 0 
( 0.00115501 0.000108438 0.0138732 ) 0 
( 0.00255294 0.00049953 0.0146998 ) 0 
( 0.00573192 0.00136501 0.0147511 ) 0 
( 0.00664049 0.00103413 0.0144971 ) 0 
( 0.00892489 0.000259517 0.0134104 ) 0 
( 0.00946083 0.000500623 0.0146313 ) 0 
( 0.0113683 8.04663e-05 0.0130527 ) 0 
( 0.013338 0.000575242 0.0079955 ) 0 
( 0.00462419 0.000716943 0.0148392 ) 0 
( 0.0094109 0.00186619 0.0146382 ) 0 
( 0.0100232 0.000403716 0.011109 ) 0 
( 0.00789379 5.16581e-05 0.00916502 ) 0 
( 0.00725112 0.00574979 0.0152414 ) 0 
( 0.00402268 0.00837672 0.0146173 ) 0 
( 0.00829705 0.000296459 0.0149275 ) 0 
( 0.00202912 0.000788803 0.012994 ) 0 
( 0.00214421 0.000243784 0.0138241 ) 0 
( 0.0119315 0.00105843 0.0140742 ) 0 
( 0.0114777 0.000270917 0.0147551 ) 0 
( 0.0104849 4.91685e-05 0.0145277 ) 0 
( 0.00236571 0.00017115 0.00907211 ) 0 
( 0.00346959 0.00374214 0.00260571 ) 0 
( 0.00173606 0.00543161 0.00792945 ) 0 
( 0.000215623 0.0127542 0.00568332 ) 0 
( 0.00706474 0.00503439 0.00213864 ) 0 
( 0.00680499 0.00473163 0.00530919 ) 0 
( 0.00898329 0.00551817 0.00671987 ) 0 
( 0.000340916 0.013316 0.00355147 ) 0 
( 0.00616996 0.00339348 0.00428449 ) 0 
( 0.00548978 0.0121422 0.004708 ) 0 
( 0.0102993 0.00531241 0.00561774 ) 0 
( 0.000914418 0.00732197 0.00448928 ) 0 
( 0.00713041 0.0103241 0.000499749 ) 0 
( 0.00636627 0.00977541 0.00163086 ) 0 
( 0.00225387 0.0123042 0.00402966 ) 0 
( 0.00187813 0.00315559 0.000499657 ) 0 
( 0.00441713 0.00759486 0.00187659 ) 0 
( 0.0107371 0.00371339 0.00378776 ) 0 
( 0.0112977 0.00535313 0.00565327 ) 0 
( 0.00472555 0.00334098 0.00409437 ) 0 
( 0.00825276 0.00272631 0.00676272 ) 0 
( 0.00875714 0.00266283 0.00484678 ) 0 
( 0.00262169 0.0100475 0.00625934 ) 0 
( 0.00723823 0.00683417 0.00119178 ) 0 
( 0.00673118 0.00465249 0.00411922 ) 0 
( 0.00552135 0.00767283 0.00321549 ) 0 
( 0.00374363 0.0128065 0.00574517 ) 0 
( 0.00252631 0.00796902 0.00303826 ) 0 
( 0.0116734 0.00436991 0.000499636 ) 0 
( 0.00112068 0.00227381 0.0032601 ) 0 
( 0.00530164 0.00687566 0.00454746 ) 0 
( 0.0109945 0.00372771 0.00085623 ) 0 
( 0.00932991 0.0022137 0.00416127 ) 0 
( 0.00275218 0.00148002 0.00626307 ) 0 
( 0.00683162 0.000164046 0.00842734 ) 0 
( 0.000890426 0.00607057 0.00471976 ) 0 
( 0.00184397 0.00813817 0.00784496 ) 0 
( 0.00155086 0.00796237 0.00281077 ) 0 
( 0.00905929 0.00979119 0.00424716 ) 0 
( 0.01285 0.00361953 0.00656767 ) 0 
( 0.00256727 0.00710618 0.00131146 ) 0 
( 0.00992854 0.00321132 0.00544937 ) 0 
( 0.00275856 0.000678777 0.00125885 ) 0 
( 0.00719709 0.00570552 0.00572086 ) 0 
( 0.00580543 0.00469245 0.0056972 ) 0 
( 0.000735587 0.000350146 0.00245376 ) 0 
( 0.00119765 0.00588223 0.00565249 ) 0 
( 0.0087304 0.00128562 0.0068882 ) 0 
( 0.0014002 0.0118857 0.00435087 ) 0 
( 0.00296393 0.00800974 0.0039748 ) 0 
( 0.00748819 0.00214109 0.00553013 ) 0 
( 0.0090066 0.00985428 0.00769883 ) 0 
( 0.0121258 0.00411118 0.00221337 ) 0 
( 0.00570112 0.00821604 0.00647568 ) 0 
( 0.00292495 0.00706666 0.00286914 ) 0 
( 0.00806238 0.00055859 0.00721954 ) 0 
( 0.0100043 0.00526054 0.00312419 ) 0 
( 0.000348233 0.00373871 0.00622832 ) 0 
( 0.00273168 0.000996416 0.00538812 ) 0 
( 0.00398085 0.0101291 0.0031966 ) 0 
( 0.00356552 0.00216221 0.00193841 ) 0 
( 0.00579271 0.00504426 0.00360576 ) 0 
( 0.00826546 0.00136348 0.00777633 ) 0 
( 0.00315408 0.0124055 0.00504419 ) 0 
( 0.00134653 0.00885817 0.00326196 ) 0 
( 0.000902865 0.0123182 0.00510277 ) 0 
( 0.0058462 0.00413145 0.00308526 ) 0 
( 0.00776196 0.00289329 0.00491393 ) 0 
( 0.0018973 0.00999608 0.000499795 ) 0 
( 0.00906497 0.00848042 0.00404629 ) 0 
( 0.00491819 0.00495552 0.0080333 ) 0 
( 0.00936297 6.90252e-05 0.0023274 ) 0 
( 0.00476836 0.00723706 0.00702061 ) 0 
( 0.00223355 0.00522819 0.00708658 ) 0 
( 0.0102366 0.00853293 0.00377589 ) 0 
( 0.00472921 0.00121076 0.00592148 ) 0 
( 0.00693801 0.00361619 0.00745773 ) 0 
( 0.00694608 0.00667946 0.00416868 ) 0 
( 0.000787028 0.00774882 0.00643237 ) 0 
( 0.00640649 0.00641369 0.00207189 ) 0 
( 0.0006458 0.0028693 0.00260856 ) 0 
( 0.0118753 0.00609963 0.0059828 ) 0 
( 0.000920591 0.00126947 0.00475593 ) 0 
( 0.00709949 0.0102264 0.00712493 ) 0 
( 0.00104973 0.00294095 0.00168849 ) 0 
( 0.00799104 0.0106942 0.00206323 ) 0 
( 0.00458172 0.00343467 0.0059653 ) 0 
( 0.0036288 0.0114025 0.0071546 ) 0 
( 0.0111118 0.00133009 0.00437263 ) 0 
( 0.000757363 0.0133282 0.000499735 ) 0 
( 0.00218847 0.000644605 0.00615031 ) 0 
( 0.000527044 0.00911506 0.00273927 ) 0 
( 0.00673409 0.000698273 0.000499722 ) 0 
( 0.00498612 0.00197074 0.0065181 ) 0 
( 0.00336354 0.00513407 0.00129037 ) 0 
( 0.000903323 0.00455605 0.00607524 ) 0 
( 0.000905856 0.00338995 0.000499639 ) 0 
( 0.0114657 0.00290962 0.00049954 ) 0 
( 0.00471484 0.0115032 0.00596706 ) 0 
( 0.00319246 0.00566493 0.00722392 ) 0 
( 0.00269519 0.00115005 0.00309455 ) 0 
( 0.00840837 0.00247809 0.00132625 ) 0 
( 0.00646638 0.00664113 0.00579316 ) 0 
( 0.0122675 0.00526546 0.00371507 ) 0 
( 0.00250024 0.0113971 0.00296233 ) 0 
( 0.00454017 0.00107309 0.00218982 ) 0 
( 0.00259366 0.0112099 0.000499484 ) 0 
( 0.0123518 0.00506513 0.00469106 ) 0 
( 0.000879533 0.00793465 0.00201207 ) 0 
( 0.0045528 0.00911632 0.00499841 ) 0 
( 0.00269039 0.00547178 0.00446488 ) 0 
( 0.0032523 0.00939188 0.00306014 ) 0 
( 0.00490703 0.00945101 0.00256914 ) 0 
( 0.0037024 0.00963462 0.00511461 ) 0 
( 0.003165 0.00433953 0.00186395 ) 0 
( 0.00640942 0.0107134 0.0055304 ) 0 
( 0.0110918 0.00742054 0.00480383 ) 0 
( 0.00709584 0.00103793 0.00222104 ) 0 
( 0.00705001 0.0085006 0.00387301 ) 0 
( 0.0108936 0.00532372 0.00138773 ) 0 
( 0.00944286 0.00818692 0.00492452 ) 0 
( 0.0129425 0.00327354 0.00240202 ) 0 
( 0.000430329 0.00899419 0.00373316 ) 0 
( 0.00391645 0.012707 0.000499882 ) 0 
( 0.00875094 0.0100821 0.00228113 ) 0 
( 0.00197326 0.00915619 0.0011919 ) 0 
( 0.00614622 0.00536712 0.00462185 ) 0 
( 0.00683651 0.00382255 0.00489398 ) 0 
( 0.00791472 0.00721325 0.00206695 ) 0 
( 0.000381141 0.010692 0.00660495 ) 0 
( 6.50221e-05 0.00168071 0.00647389 ) 0 
( 0.0124322 0.00431034 0.00534164 ) 0 
( 0.0104318 0.00189043 0.00145978 ) 0 
( 0.0119818 0.000868621 0.000790647 ) 0 
( 0.0111722 0.00195391 0.000499711 ) 0 
( 0.00557947 0.000821125 0.0072679 ) 0 
( 0.00877683 0.000440384 0.00389988 ) 0 
( 0.0100112 0.0019964 0.00236065 ) 0 
( 0.00177484 0.00783032 0.00656845 ) 0 
( 0.00807224 0.00866506 0.00362331 ) 0 
( 0.00862391 0.00634716 0.00234676 ) 0 
( 0.00653386 0.00277897 0.00600091 ) 0 
( 0.00595352 0.00398507 0.00149733 ) 0 
( 0.000696108 0.00313905 0.00550752 ) 0 
( 0.00860513 0.00445736 0.00511148 ) 0 
( 0.00226489 0.012304 0.000499759 ) 0 
( 0.0122127 0.004554 0.00132104 ) 0 
( 0.00627391 0.00342813 0.00671549 ) 0 
( 0.00457422 0.0080504 0.00756884 ) 0 
( 0.00892127 0.00750317 0.00421762 ) 0 
( 0.00608623 0.00222378 0.00399865 ) 0 
( 0.000976131 0.00414644 0.00418904 ) 0 
( 0.0105007 0.00674549 0.00266599 ) 0 
( 0.00401578 0.0036134 0.00698644 ) 0 
( 0.000266607 0.00454914 0.00691375 ) 0 
( 0.00361055 0.00539447 0.00374315 ) 0 
( 0.0119808 0.00116787 0.00389361 ) 0 
( 0.00221651 0.00137115 0.00444639 ) 0 
( 0.00854014 0.00899376 0.00170018 ) 0 
( 0.00318093 0.0108817 0.00380528 ) 0 
( 0.0023332 0.0122318 0.00648466 ) 0 
( 0.0103837 0.00839083 0.00141624 ) 0 
( 0.00266161 0.00413745 0.00312314 ) 0 
( 0.000749385 0.0119569 0.00303891 ) 0 
( 0.00164029 0.00613573 0.00316427 ) 0 
( 0.00370166 0.00278363 0.00277103 ) 0 
( 0.0050839 0.000137797 0.00567451 ) 0 
( 0.0064485 0.000315278 0.00732927 ) 0 
( 0.00755623 0.000696387 0.00134722 ) 0 
( 0.00999727 0.00532539 0.000499726 ) 0 
( 0.00648131 0.00481513 0.0013167 ) 0 
( 0.00176396 0.0123526 0.00143753 ) 0 
( 0.00630749 0.0117661 0.00239418 ) 0 
( 0.00434616 0.00878922 0.00310084 ) 0 
( 0.00515536 0.0113721 0.00379993 ) 0 
( 0.00316977 0.0103921 0.00467701 ) 0 
( 0.00301212 0.0111251 0.00198633 ) 0 
( 0.00387738 0.00599524 0.00657484 ) 0 
( 0.00987622 0.00707209 0.00600995 ) 0 
( 0.00460584 0.00302414 0.00505386 ) 0 
( 0.00321555 0.0119935 0.000499784 ) 0 
( 0.00270355 0.00422632 0.00414771 ) 0 
( 0.00466578 0.00956766 0.00366093 ) 0 
( 0.00393971 0.00352357 0.00346349 ) 0 
( 0.00944644 0.00100263 0.00572454 ) 0 
( 0.00401567 0.0108677 0.00443605 ) 0 
( 0.00476187 0.00435379 0.000499606 ) 0 
( 0.0034355 0.00838485 0.00301424 ) 0 
( 0.0034344 0.00775573 0.00222314 ) 0 
( 0.00808664 0.00522725 0.00729053 ) 0 
( 0.00739304 0.00839286 0.0067539 ) 0 
( 0.00284815 0.00237737 0.00449634 ) 0 
( 0.000225864 0.00158411 0.0075592 ) 0 
( 0.0070267 0.00828376 0.00573696 ) 0 
( 0.00926378 0.00961283 0.00521018 ) 0 
( 0.010725 0.000799598 0.00700604 ) 0 
( 0.00406818 0.00280678 0.0075777 ) 0 
( 0.0108965 0.00269881 0.00672252 ) 0 
( 0.00400225 0.011033 0.00209064 ) 0 
( 0.00566406 0.000169725 0.0038414 ) 0 
( 0.00803499 0.00975974 0.00108746 ) 0 
( 0.00681237 0.00892329 0.00190384 ) 0 
( 0.00509726 0.00567112 0.00133889 ) 0 
( 0.00699051 0.00228435 0.00450878 ) 0 
( 0.00303267 0.0017313 0.00120993 ) 0 
( 0.000251786 0.00653381 0.00410546 ) 0 
( 0.0035801 0.0119602 0.00165473 ) 0 
( 0.00329027 0.00389221 0.00768879 ) 0 
( 0.0106532 0.00632837 0.00746838 ) 0 
( 0.00480164 0.00564684 0.00229377 ) 0 
( 0.00317852 0.000575442 0.00627081 ) 0 
( 0.000527716 0.00264614 0.00650466 ) 0 
( 0.0120311 0.00373422 0.00457985 ) 0 
( 0.00887876 0.0073419 0.00520824 ) 0 
( 0.00528262 0.00675705 0.00250736 ) 0 
( 0.0100621 0.00246421 0.00479844 ) 0 
( 0.00749575 0.00750797 0.000499482 ) 0 
( 0.00195945 0.00802932 0.00397813 ) 0 
( 0.0114648 5.45982e-05 0.00146775 ) 0 
( 0.00159983 0.00348722 0.0046122 ) 0 
( 0.00638155 0.0080058 0.00501912 ) 0 
( 0.00360769 0.00128964 0.00263989 ) 0 
( 0.00816966 0.00432273 0.00687169 ) 0 
( 0.0133194 0.000905786 0.00423671 ) 0 
( 0.0027999 0.0130532 0.0021839 ) 0 
( 0.0105085 0.00371702 0.00481031 ) 0 
( 0.00974876 0.00430635 0.000499429 ) 0 
( 0.00442608 0.00533492 0.00724994 ) 0 
( 0.00949013 0.00883911 0.00142922 ) 0 
( 0.00672532 0.00501253 0.00626548 ) 0 
( 0.0106524 0.00628995 0.00147821 ) 0 
( 0.00440529 0.00386525 0.0015332 ) 0 
( 0.00192742 0.00703607 0.00279937 ) 0 
( 0.00303597 0.00470665 0.00500803 ) 0 
( 0.0133501 5.38575e-05 0.00136636 ) 0 
( 0.00515944 0.00355683 0.000953643 ) 0 
( 0.00604656 0.00834216 0.00219019 ) 0 
( 0.00559101 0.0121234 0.0057399 ) 0 
( 0.00111276 0.0092913 0.00194819 ) 0 
( 0.00925349 0.00922142 0.00236299 ) 0 
( 0.00215534 0.0107921 0.00368785 ) 0 
( 0.00200312 0.0113005 0.00621235 ) 0 
( 0.00449326 0.0116194 0.00143137 ) 0 
( 0.00176583 0.0050396 0.00622332 ) 0 
( 0.00803329 0.00795147 0.00432283 ) 0 
( 0.00125373 0.00996784 0.00480921 ) 0 
( 0.00311416 0.00726204 0.00471496 ) 0 
( 0.00166437 0.000734873 0.0053037 ) 0 
( 0.01335 7.15143e-05 0.00557497 ) 0 
( 0.0034834 0.000567718 0.00193851 ) 0 
( 0.0118772 0.00179159 0.00187588 ) 0 
( 0.010473 6.99095e-05 0.0031112 ) 0 
( 0.00230656 0.000429303 0.00367376 ) 0 
( 0.00732041 0.00764543 0.00343076 ) 0 
( 0.00866186 0.00813066 0.0021899 ) 0 
( 0.0112361 0.00525749 0.00377319 ) 0 
( 0.00401015 0.00791246 0.00369021 ) 0 
( 0.00449805 0.0119831 0.00301925 ) 0 
( 0.00987981 0.000384765 0.00734217 ) 0 
( 0.00964252 0.0080121 0.00234484 ) 0 
( 0.00428551 0.00627474 0.000499508 ) 0 
( 0.00401464 0.00901592 0.00583523 ) 0 
( 0.0112102 0.00446176 0.00495049 ) 0 
( 0.0133389 0.000552417 0.000499935 ) 0 
( 0.00177509 0.00546486 0.00389345 ) 0 
( 0.00795778 0.005187 0.00533059 ) 0 
( 3.97943e-05 0.00401649 0.00456671 ) 0 
( 0.00166657 0.00335975 0.00560182 ) 0 
( 0.000400667 0.00134853 0.00209779 ) 0 
( 0.000653816 0.011562 0.000499803 ) 0 
( 0.00506317 0.00840263 0.0037418 ) 0 
( 0.0100383 0.00342967 0.00313121 ) 0 
( 0.000410265 0.0121902 0.00648547 ) 0 
( 0.0086216 0.00906301 0.000499816 ) 0 
( 0.00878667 0.000447279 0.00137815 ) 0 
( 0.00222706 0.00183254 0.00703778 ) 0 
( 0.00758021 0.00858271 0.00495976 ) 0 
( 0.00182763 0.00396846 0.00369594 ) 0 
( 0.000149771 0.00956984 0.00547539 ) 0 
( 0.00127058 0.00331624 0.00655946 ) 0 
( 0.00390551 0.00515951 0.0021302 ) 0 
( 0.000900586 0.000959734 0.00795224 ) 0 
( 0.00318889 0.00662968 0.00621254 ) 0 
( 0.0017878 0.0131769 0.00541904 ) 0 
( 0.00708793 0.00763867 0.00441411 ) 0 
( 0.00650004 0.000995387 0.00588989 ) 0 
( 0.00251438 0.00376986 0.00136208 ) 0 
( 0.00816865 0.00598419 0.00637512 ) 0 
( 0.00562261 0.00176934 0.00475918 ) 0 
( 0.000969357 0.0105945 0.00553534 ) 0 
( 0.00771485 0.00130677 0.00490076 ) 0 
( 0.00571991 0.0030152 0.00157982 ) 0 
( 0.0065488 0.00182457 0.00533185 ) 0 
( 0.00221287 0.01049 0.00705715 ) 0 
( 0.00202666 0.00264973 0.00499699 ) 0 
( 0.0110581 0.00747946 0.00720728 ) 0 
( 0.00697105 0.00201031 0.00202475 ) 0 
( 5.91025e-05 0.00500573 0.007996 ) 0 
( 0.00201763 0.0099235 0.00545283 ) 0 
( 0.00738232 0.0107414 0.00390921 ) 0 
( 0.00166867 0.000836511 0.000904302 ) 0 
( 0.000793711 0.00588171 0.000499803 ) 0 
( 0.00105295 0.001642 0.00137741 ) 0 
( 0.00737295 0.00276746 0.00254592 ) 0 
( 0.00128253 0.00914004 0.00424914 ) 0 
( 0.00111352 0.00963282 0.00100843 ) 0 
( 0.00812143 0.00123877 0.00334852 ) 0 
( 0.00755275 0.000197039 0.00251065 ) 0 
( 0.00554268 0.00585381 0.00296283 ) 0 
( 0.0122714 0.00185929 0.0031288 ) 0 
( 0.0040359 0.0020653 0.00681415 ) 0 
( 0.00278864 0.00127649 0.00206618 ) 0 
( 0.00222136 0.00693194 0.00641057 ) 0 
( 0.0128644 0.00195246 0.00582854 ) 0 
( 0.00365244 0.0114498 0.00299594 ) 0 
( 0.0112849 0.00345954 0.00538551 ) 0 
( 0.0100492 0.000297726 0.000499742 ) 0 
( 0.000204977 0.00247968 0.00391665 ) 0 
( 0.00123345 0.0107438 0.000499719 ) 0 
( 0.001834 0.00925701 0.00619415 ) 0 
( 0.00645273 0.00121171 0.00688728 ) 0 
( 0.0072713 0.00599125 0.00234331 ) 0 
( 0.002247 0.0089853 0.00403546 ) 0 
( 0.012018 0.00302876 0.00382336 ) 0 
( 0.00331079 0.00935426 0.00646983 ) 0 
( 0.00109161 0.00183843 0.00691045 ) 0 
( 0.00707471 0.00693405 0.00261235 ) 0 
( 0.00727809 0.0107725 0.0028803 ) 0 
( 0.00550146 0.000933168 0.000499674 ) 0 
( 0.00290691 0.00742671 0.00567905 ) 0 
( 0.00498015 0.0076035 0.00609564 ) 0 
( 0.00589093 0.00174765 0.00615548 ) 0 
( 0.00502854 0.0123668 0.00378445 ) 0 
( 0.00355141 0.00395777 0.00102117 ) 0 
( 0.00186693 0.00735476 0.000499674 ) 0 
( 0.00722494 0.00313158 0.00663164 ) 0 
( 0.00776415 0.00170925 0.00135591 ) 0 
( 0.00276547 0.0120564 0.00225412 ) 0 
( 0.00437331 0.00513424 0.0062714 ) 0 
( 0.00468592 0.0028877 0.00679565 ) 0 
( 0.00463001 0.00981767 0.000570722 ) 0 
( 0.00890536 0.00722719 0.00183772 ) 0 
( 0.00219359 0.010241 0.00452125 ) 0 
( 0.00461875 0.00188238 0.0051886 ) 0 
( 0.00261784 0.00503676 0.00356735 ) 0 
( 0.00329864 0.0117376 0.00431263 ) 0 
( 0.0107599 0.00384401 0.00228898 ) 0 
( 0.00137725 0.00730423 0.00360304 ) 0 
( 0.0051605 0.00191895 0.00208202 ) 0 
( 0.0129466 0.00259721 0.0032491 ) 0 
( 0.0071178 0.0112948 0.000737687 ) 0 
( 0.0102402 0.000740301 0.00240339 ) 0 
( 0.00542933 0.00670402 0.00351428 ) 0 
( 0.0114174 0.00423114 0.00294571 ) 0 
( 0.0072518 0.0092542 0.00565072 ) 0 
( 0.000120231 0.00362186 0.0035215 ) 0 
( 0.00622119 0.00659575 0.00058618 ) 0 
( 0.0045839 0.00810569 0.00532684 ) 0 
( 0.00646207 0.0116341 0.0014119 ) 0 
( 0.0043998 0.00139339 0.00433956 ) 0 
( 0.00472465 0.00291895 0.00158904 ) 0 
( 0.00721425 0.00416602 0.000499541 ) 0 
( 0.00343841 0.00626022 0.00327347 ) 0 
( 0.00246208 0.0050482 0.00179947 ) 0 
( 0.0120266 0.00263943 0.00136753 ) 0 
( 0.00366985 0.00954772 0.000499741 ) 0 
( 0.0019601 0.00899493 0.00505892 ) 0 
( 0.00557459 0.0104152 0.00699104 ) 0 
( 0.000835742 0.000294289 0.00495902 ) 0 
( 0.00139121 0.0035034 0.00760053 ) 0 
( 0.00354604 0.0047815 0.00691701 ) 0 
( 0.0115925 0.00441662 0.00587407 ) 0 
( 0.0033797 0.00627266 0.00427783 ) 0 
( 0.005743 0.0018599 0.00716173 ) 0 
( 0.00226388 0.000565025 0.00769004 ) 0 
( 0.00788939 0.0107316 0.00574947 ) 0 
( 0.00264359 0.00990397 0.00133711 ) 0 
( 0.00160145 0.00174819 0.000499598 ) 0 
( 0.00822082 0.00502288 0.00438 ) 0 
( 0.00383307 0.00795772 0.00467861 ) 0 
( 0.00301125 1.26201e-05 0.00732155 ) 0 
( 0.00272197 0.00475893 0.00635115 ) 0 
( 0.0118541 0.00165011 0.00556275 ) 0 
( 0.00619923 0.00561077 0.00566134 ) 0 
( 0.00273958 0.00321754 0.00216456 ) 0 
( 0.00642366 0.00191505 0.00307102 ) 0 
( 0.00516894 0.0122221 0.00185576 ) 0 
( 0.00870226 0.00295781 0.000499649 ) 0 
( 0.00343914 0.00574102 0.000499636 ) 0 
( 0.00696016 0.00513596 0.000499733 ) 0 
( 0.00096774 0.0108375 0.00251816 ) 0 
( 0.00522268 0.00496644 0.00677116 ) 0 
( 0.00604888 0.0108451 0.00210305 ) 0 
( 0.00291573 0.00481907 0.00769218 ) 0 
( 0.00183665 0.00468914 0.00300058 ) 0 
( 0.0116996 0.00519115 0.00288739 ) 0 
( 0.00489457 0.00383435 0.00317227 ) 0 
( 0.00979026 0.0026568 0.00143983 ) 0 
( 0.00205273 0.00163848 0.00138487 ) 0 
( 0.00640817 0.00748321 0.00771502 ) 0 
( 0.00868141 0.00486461 0.00602598 ) 0 
( 0.00575984 0.00547779 0.0020622 ) 0 
( 0.00410113 0.0119136 0.00529289 ) 0 
( 0.00844734 0.0058645 0.003886 ) 0 
( 0.00930291 0.00409183 0.00136817 ) 0 
( 0.0026664 0.00935702 0.000499776 ) 0 
( 0.00954534 0.00156675 0.0034294 ) 0 
( 0.0115267 0.0043156 0.00394162 ) 0 
( 0.00430509 0.00200478 0.00259258 ) 0 
( 0.00344466 0.000701839 0.00360635 ) 0 
( 0.0054036 0.0112066 0.00139532 ) 0 
( 0.0046188 8.71607e-05 0.00756271 ) 0 
( 0.0085389 0.0102622 0.00634742 ) 0 
( 0.00652017 0.00816207 0.00132502 ) 0 
( 0.00643594 0.00809108 0.0030765 ) 0 
( 0.0023966 0.00997424 0.00293011 ) 0 
( 0.000618758 0.000957634 0.00688643 ) 0 
( 0.00823342 0.0105087 0.00302706 ) 0 
( 0.00801962 2.82226e-05 0.00339339 ) 0 
( 0.00270311 0.00923357 0.00568462 ) 0 
( 0.0048621 0.00438213 0.00581309 ) 0 
( 0.00703473 0.00839505 0.000500124 ) 0 
( 0.00395769 0.00106088 0.00666666 ) 0 
( 0.00131552 0.00704851 0.00181262 ) 0 
( 0.000976961 0.00895729 0.00673315 ) 0 
( 0.00347907 0.00264125 0.00375633 ) 0 
( 0.00436318 0.00882749 0.000499611 ) 0 
( 0.00350476 0.00745829 0.0012598 ) 0 
( 0.0097072 0.00133787 0.00666114 ) 0 
( 0.0119657 0.00358312 0.00104301 ) 0 
( 0.0113193 0.00658605 0.00530908 ) 0 
( 0.00208025 0.0122101 0.0050099 ) 0 
( 0.00660818 0.00560554 0.00374719 ) 0 
( 0.0113575 0.00129151 0.00312156 ) 0 
( 0.00656773 0.0105396 0.00445282 ) 0 
( 0.000273514 0.00242647 0.0013244 ) 0 
( 0.00439665 0.0107913 0.00660879 ) 0 
( 0.00878473 0.00180629 0.00282208 ) 0 
( 0.0131498 0.00230445 0.00065177 ) 0 
( 0.00236684 3.16336e-05 0.005119 ) 0 
( 0.0126701 0.0042018 0.000499807 ) 0 
( 0.0128039 0.00378092 0.00154999 ) 0 
( 0.00648276 0.00932408 0.00377367 ) 0 
( 0.00804784 0.00209533 0.00438368 ) 0 
( 0.00986034 0.00568226 0.00142351 ) 0 
( 0.00430132 0.00525363 0.00447466 ) 0 
( 0.00588882 0.00276026 0.000499692 ) 0 
( 0.00497263 0.00625931 0.00706556 ) 0 
( 0.00690099 0.00470803 0.00309012 ) 0 
( 0.00820784 0.00321615 0.00407835 ) 0 
( 0.0100394 0.00712237 0.00501591 ) 0 
( 0.00899868 0.00633922 0.00138792 ) 0 
( 0.00107246 0.00531177 0.00317144 ) 0 
( 0.0054134 0.00751118 0.00185871 ) 0 
( 0.00433181 0.00246673 0.00594753 ) 0 
( 0.00724729 0.00569382 0.00138889 ) 0 
( 0.00155762 0.0132587 0.00444857 ) 0 
( 0.00703414 0.0113466 0.00599306 ) 0 
( 0.00499706 0.00526166 0.00535721 ) 0 
( 0.00571184 0.00458185 0.00755369 ) 0 
( 0.00643344 0.00907314 0.000922344 ) 0 
( 0.00540761 0.0024199 0.00548736 ) 0 
( 0.00548668 0.0118444 0.00295987 ) 0 
( 0.00160629 0.0115793 0.00340017 ) 0 
( 0.00154596 0.000628781 0.00431058 ) 0 
( 0.00958441 0.00335367 0.000753318 ) 0 
( 0.0119963 0.0026843 0.0050045 ) 0 
( 0.00873213 0.00141294 0.00412722 ) 0 
( 0.00730009 0.00925516 0.00725104 ) 0 
( 0.00986048 0.00407403 0.00410588 ) 0 
( 0.00983204 0.00463716 0.00631449 ) 0 
( 0.0128204 0.00372249 0.00329131 ) 0 
( 0.01085 0.00250181 0.0057435 ) 0 
( 0.0127426 0.0032047 0.000499746 ) 0 
( 0.00879306 0.00779147 0.00609731 ) 0 
( 0.0114736 0.000820243 0.00515277 ) 0 
( 6.8186e-05 0.00450575 0.00179471 ) 0 
( 0.0016275 0.0103748 0.00625513 ) 0 
( 0.00013238 0.00505234 0.000499633 ) 0 
( 0.00886248 0.00671827 0.00356954 ) 0 
( 0.00302276 0.0121906 0.00726191 ) 0 
( 0.000950582 0.00804244 0.00740704 ) 0 
( 0.00355209 0.0102665 0.00680172 ) 0 
( 0.00846384 0.00102795 0.00590745 ) 0 
( 0.00392736 0.00705465 0.00275735 ) 0 
( 0.00691277 0.00784479 0.00223267 ) 0 
( 0.00845641 0.00349081 0.00531963 ) 0 
( 0.0107524 0.00497149 0.00234911 ) 0 
( 0.00613807 0.00727482 0.00250609 ) 0 
( 0.00991658 0.00188991 0.00563132 ) 0 
( 0.0109481 0.00144829 0.00222251 ) 0 
( 0.0124343 0.00044435 0.00677908 ) 0 
( 0.000100696 0.0023369 0.00554914 ) 0 
( 0.00073451 0.0126345 0.00416937 ) 0 
( 0.00401192 0.00175225 0.00782104 ) 0 
( 0.00477609 0.00131443 0.00323084 ) 0 
( 0.0016827 0.000430559 0.00276435 ) 0 
( 0.00418275 0.00793094 0.00660224 ) 0 
( 0.00123435 0.00523367 0.00705929 ) 0 
( 0.0060189 0.000576677 0.00468461 ) 0 
( 0.0132908 0.00126134 0.0065219 ) 0 
( 0.00972444 0.00633343 0.0032374 ) 0 
( 0.00307767 0.00581963 0.00195964 ) 0 
( 0.00748032 0.00472734 0.00128272 ) 0 
( 0.00924452 0.00479724 0.00441724 ) 0 
( 0.00799042 0.00537618 0.00197753 ) 0 
( 0.00385496 0.00835204 0.00153944 ) 0 
( 0.00408587 0.0127059 0.00369824 ) 0 
( 0.0103359 0.00844507 0.00726475 ) 0 
( 0.0132535 0.00160278 0.00135659 ) 0 
( 0.00170387 0.00982166 0.00365098 ) 0 
( 0.00666387 0.00306343 0.00190598 ) 0 
( 0.00204295 0.00639666 0.0020392 ) 0 
( 0.00544769 0.00670346 0.00578782 ) 0 
( 0.00189744 0.0132145 0.00258318 ) 0 
( 9.56162e-05 0.00182694 0.00466612 ) 0 
( 0.000749719 0.00654622 0.00767967 ) 0 
( 0.00868853 0.00659163 0.0045603 ) 0 
( 0.00357044 0.00655742 0.00529087 ) 0 
( 4.281e-05 0.000675951 0.00591644 ) 0 
( 0.00225488 0.00767005 0.00207583 ) 0 
( 0.00361228 0.0101491 0.00130282 ) 0 
( 0.00474091 0.00768269 0.0043624 ) 0 
( 0.00127459 0.00682742 0.00604278 ) 0 
( 1.29293e-05 0.000838684 0.0047923 ) 0 
( 0.000240341 0.0124724 0.00049967 ) 0 
( 0.00581687 0.00862105 0.00556893 ) 0 
( 5.31967e-05 0.0117687 0.00563509 ) 0 
( 0.0102277 0.00358718 0.00148225 ) 0 
( 0.00142605 0.00814992 0.00481534 ) 0 
( 0.00154274 0.00973194 0.00702451 ) 0 
( 0.00204718 0.0107462 0.00234332 ) 0 
( 0.00126468 0.00710519 0.00703021 ) 0 
( 0.0126017 0.00019649 0.00492371 ) 0 
( 0.0103919 0.00688873 0.00375675 ) 0 
( 0.00826803 0.00613538 0.00539159 ) 0 
( 0.00904105 0.00404349 0.00646895 ) 0 
( 0.00195499 0.000764093 0.00185959 ) 0 
( 0.000343269 0.00560837 0.00185305 ) 0 
( 0.00897255 0.00696346 0.000499699 ) 0 
( 0.000182505 0.0125552 0.00216654 ) 0 
( 0.00130859 0.00424432 0.00693441 ) 0 
( 0.00533822 0.00146977 0.00798876 ) 0 
( 0.0106489 0.00608528 0.000499621 ) 0 
( 0.00600408 0.00612622 0.00651487 ) 0 
( 0.000425453 0.0101496 0.000499655 ) 0 
( 0.0106512 0.00254041 0.00389739 ) 0 
( 0.00207783 0.0131874 0.00359505 ) 0 
( 0.0106316 0.0011106 0.000499797 ) 0 
( 0.00897565 0.00543695 0.00181926 ) 0 
( 0.00994486 0.00890648 0.00540499 ) 0 
( 0.000887538 0.00722031 0.00271258 ) 0 
( 0.00636701 0.00760175 0.00605221 ) 0 
( 0.00763384 0.0034137 0.00327091 ) 0 
( 0.00379268 0.00328594 0.00445495 ) 0 
( 0.00921717 0.000470606 0.00657414 ) 0 
( 0.00214689 0.0123494 0.00301885 ) 0 
( 0.0039289 0.00612601 0.00238652 ) 0 
( 0.0123482 0.00117521 0.00482344 ) 0 
( 0.00578449 0.0100941 0.003943 ) 0 
( 0.000343996 0.0132642 0.00687342 ) 0 
( 0.0104612 0.00589123 0.0037526 ) 0 
( 0.00422034 0.00879434 0.00411203 ) 0 
( 0.00399643 0.00788243 0.000499591 ) 0 
( 0.00280123 0.00946346 0.0047166 ) 0 
( 5.86571e-06 0.00927042 0.00649865 ) 0 
( 0.00142372 0.00567551 0.00148146 ) 0 
( 0.00750992 0.00787021 0.00143118 ) 0 
( 0.0106104 0.00810196 0.00636675 ) 0 
( 0.000188992 0.00201545 0.00300482 ) 0 
( 0.00136693 0.00245462 0.00590542 ) 0 
( 0.00893584 0.00565811 0.00482097 ) 0 
( 0.00684168 0.00837764 0.00758778 ) 0 
( 0.00425272 0.0117678 0.00401457 ) 0 
( 0.0131688 0.00219253 0.00228272 ) 0 
( 0.00995513 0.00759952 0.00320117 ) 0 
( 0.00176467 0.00479374 0.00112983 ) 0 
( 0.00665548 0.00702052 0.00686395 ) 0 
( 0.00481334 0.0113911 0.00480481 ) 0 
( 0.00822372 0.00699046 0.00590729 ) 0 
( 0.00405077 0.00697534 0.00451423 ) 0 
( 0.00602005 0.00438626 0.00476989 ) 0 
( 0.00540856 0.00272644 0.00453553 ) 0 
( 0.00336416 0.00224745 0.00607139 ) 0 
( 0.00605318 0.00821758 0.00400643 ) 0 
( 0.00492784 0.0113534 0.00229169 ) 0 
( 0.00372777 0.00162415 0.000499537 ) 0 
( 0.00264512 0.000372349 0.00246805 ) 0 
( 0.00922719 0.00215564 0.000783028 ) 0 
( 0.00126052 0.0126694 0.00671911 ) 0 
( 0.00524944 0.000469884 0.00298054 ) 0 
( 0.00152617 0.00388213 0.00146421 ) 0 
( 0.00695333 0.000999704 0.00789194 ) 0 
( 0.00798429 0.00382484 0.00104405 ) 0 
( 0.00301579 0.0103037 0.000499769 ) 0 
( 0.00973599 0.00805373 0.00588314 ) 0 
( 0.008399 0.00402692 0.00307486 ) 0 
( 0.00364433 0.00451796 0.00322797 ) 0 
( 0.000221709 0.00586207 0.00543617 ) 0 
( 0.00152198 0.00676395 0.00506654 ) 0 
( 0.00287193 0.00760448 0.000499694 ) 0 
( 0.00440571 0.004843 0.00132416 ) 0 
( 0.00516693 0.0104422 0.00607534 ) 0 
( 0.00633612 0.00718625 0.00144096 ) 0 
( 0.00397151 0.000176149 0.0011586 ) 0 
( 0.00425001 0.0108015 0.00542707 ) 0 
( 0.000200146 0.0118066 0.00386874 ) 0 
( 0.0118247 0.00255772 0.00598145 ) 0 
( 0.00157236 0.00653544 0.000993672 ) 0 
( 0.000696649 0.00132285 0.000499572 ) 0 
( 0.000989204 0.0133137 0.00600492 ) 0 
( 0.0126078 0.000697791 0.00155136 ) 0 
( 0.00687489 0.00188006 0.00627536 ) 0 
( 0.00440917 0.00339501 0.00241634 ) 0 
( 0.00489014 0.00270783 0.000499801 ) 0 
( 0.00800164 0.00321347 0.001868 ) 0 
( 0.00960194 0.0025303 0.0031565 ) 0 
( 0.0130501 0.00281277 0.00150696 ) 0 
( 0.006738 0.0115219 0.00326309 ) 0 
( 0.00915873 0.00498957 0.00092899 ) 0 
( 0.00503562 0.000192459 0.000983026 ) 0 
( 0.00934538 0.00646319 0.00530933 ) 0 
( 0.00913241 0.00311717 0.0061039 ) 0 
( 0.00978248 0.00113027 0.00142877 ) 0 
( 0.00217072 0.00627515 0.00565841 ) 0 
( 0.0022995 0.00939109 0.00212342 ) 0 
( 0.0108623 0.00776118 0.00388875 ) 0 
( 0.00755804 0.00529597 0.00368283 ) 0 
( 0.0132481 0.00164824 0.0031566 ) 0 
( 0.00719037 0.00321949 0.00415999 ) 0 
( 0.00263193 0.0118176 0.00129243 ) 0 
( 0.00762406 0.0088576 0.00132361 ) 0 
( 0.0128405 0.00189436 0.00413747 ) 0 
( 0.00320292 0.0129595 0.00657312 ) 0 
( 0.000200525 0.00459354 0.00374363 ) 0 
( 0.00956597 0.000606824 0.00314551 ) 0 
( 0.00763842 0.010949 0.00669255 ) 0 
( 0.00818918 0.00112785 0.00204956 ) 0 
( 0.00844552 0.0045882 0.00150347 ) 0 
( 0.00530626 0.00948461 0.00554286 ) 0 
( 0.000138796 0.00404624 0.000499707 ) 0 
( 0.00341763 0.0129052 0.00295614 ) 0 
( 0.00274588 0.0130525 0.00568861 ) 0 
( 0.00464881 0.000550277 0.00386315 ) 0 
( 0.00618564 0.0118012 0.00648501 ) 0 
( 0.000541953 0.00373845 0.00136302 ) 0 
( 0.00511402 0.00581766 0.00617987 ) 0 
( 0.00400574 0.0105954 0.000499497 ) 0 
( 0.00785252 0.00481913 0.00280336 ) 0 
( 0.000340782 0.0110951 0.00136054 ) 0 
( 0.00773749 0.00619848 0.00454634 ) 0 
( 0.000341805 0.0104069 0.00478002 ) 0 
( 0.00923643 0.00824298 0.000499648 ) 0 
( 0.00777785 0.00811222 0.00265668 ) 0 
( 0.00449803 0.00439303 0.00237765 ) 0 
( 0.0117941 0.00211371 0.00415826 ) 0 
( 0.00709449 0.00936178 0.00456373 ) 0 
( 0.0130227 0.00293913 0.00585561 ) 0 
( 0.00424152 0.009982 0.00600654 ) 0 
( 0.00976226 0.00495405 0.00220368 ) 0 
( 0.00377811 0.00700156 0.00708367 ) 0 
( 0.011078 0.00742094 0.0058036 ) 0 
( 0.00772856 0.00415513 0.00206419 ) 0 
( 0.000243122 0.00938299 0.00145684 ) 0 
( 0.00950305 0.00937629 0.00345299 ) 0 
( 0.00340469 0.0129087 0.00139155 ) 0 
( 0.000729111 0.010209 0.00174194 ) 0 
( 0.00953624 0.00784252 0.00136519 ) 0 
( 0.00202437 0.0040535 0.00622638 ) 0 
( 0.00257055 0.00224888 0.00198367 ) 0 
( 0.00645389 0.0059085 0.00738076 ) 0 
( 0.00438017 0.0126113 0.00138023 ) 0 
( 0.0060271 0.0112759 0.00743114 ) 0 
( 0.00872215 0.00143831 0.00126252 ) 0 
( 0.00649909 0.00394484 0.0058648 ) 0 
( 0.00832685 0.010435 0.00402625 ) 0 
( 0.00107118 0.00617602 0.00227211 ) 0 
( 0.00977875 0.0090884 0.000499814 ) 0 
( 0.0083379 0.00772232 0.00338755 ) 0 
( 0.0112324 0.00132204 0.00127213 ) 0 
( 0.000617256 0.00250119 0.00748995 ) 0 
( 0.00337651 0.0112349 0.00517351 ) 0 
( 0.0115416 0.00334415 0.00191631 ) 0 
( 0.00649544 0.00755335 0.000499629 ) 0 
( 0.00999602 0.00562834 0.00659859 ) 0 
( 0.000153242 0.00836597 0.00689843 ) 0 
( 0.00588458 0.0109552 0.00318923 ) 0 
( 0.00627362 0.00273986 0.00503642 ) 0 
( 0.00250777 0.0131032 0.00471869 ) 0 
( 0.00368089 0.00263048 0.000499802 ) 0 
( 0.012889 0.00347938 0.00502521 ) 0 
( 0.00498865 0.011047 0.000499684 ) 0 
( 0.00594861 0.00993329 0.00252559 ) 0 
( 0.000333086 0.00681606 0.00515766 ) 0 
( 0.00394827 0.00178555 0.00353809 ) 0 
( 0.00544028 0.00229148 0.0030301 ) 0 
( 0.00267599 0.00311813 0.00560791 ) 0 
( 0.00642128 0.00234971 0.00123972 ) 0 
( 0.00341503 0.0111676 0.00106808 ) 0 
( 0.0113747 0.00228192 0.00325774 ) 0 
( 0.0037541 0.0031274 0.00170991 ) 0 
( 0.00307079 0.00379895 0.00671791 ) 0 
( 0.00418077 0.00236483 0.00442854 ) 0 
( 0.00352404 0.00560066 0.00500407 ) 0 
( 0.0103487 0.000869285 0.00487634 ) 0 
( 0.00137621 0.011691 0.00688753 ) 0 
( 0.0122494 0.00273499 0.0069684 ) 0 
( 0.0106544 0.00797985 0.00228666 ) 0 
( 0.0127864 0.0013857 0.000499626 ) 0 
( 0.00025694 0.0133152 0.00136527 ) 0 
( 0.00573648 0.00052116 0.00632756 ) 0 
( 0.00390127 0.000515202 0.00452681 ) 0 
( 0.00940792 0.00150164 0.0048589 ) 0 
( 0.00468167 0.0125023 0.0059097 ) 0 
( 0.0029908 0.00750367 0.00670729 ) 0 
( 0.00461146 0.00615829 0.00316282 ) 0 
( 0.00660603 0.00491318 0.00725326 ) 0 
( 0.00355249 0.00262168 0.00516276 ) 0 
( 0.00298423 0.00273015 0.0012109 ) 0 
( 6.53163e-05 0.00820187 0.000499662 ) 0 
( 0.0109808 0.00759264 0.00130119 ) 0 