FoamFile
{version 2.0; format ascii;class vectorField; location 0;object  v;}
2510
(
( -0.000459056 -0.000100384 3.49218e-05 )  
( -0.000298893 0.000498968 0.00413382 )  
( 0.000617308 0.00046767 6.19668e-05 )  
( 8.52963e-05 -0.000434464 0.00403831 )  
( 0.00177978 0.00139193 0.00395568 )  
( 0.00126213 -0.00198118 0.00185776 )  
( -0.00016858 -0.000254561 -2.91551e-05 )  
( -0.000785857 0.00145508 -0.0013136 )  
( 0.000599902 -0.00065771 -0.00241941 )  
( 0.000302233 -0.000245483 0.00237593 )  
( -0.000110764 8.62092e-05 0.00310773 )  
( -0.000236891 -5.9275e-06 0.0020665 )  
( 3.98596e-05 0.000342267 0.00248945 )  
( 0.00050782 0.000239 0.00252098 )  
( -0.000130802 -0.000291039 0.00202811 )  
( 7.38953e-05 0.000341105 0.00232412 )  
( -0.000136377 0.000288967 0.00298667 )  
( 0.000125898 -0.000257682 0.00223975 )  
( 0.000246292 0.00015754 0.0021452 )  
( 5.41712e-05 -0.000413622 0.00203725 )  
( -0.000319172 0.000567021 0.00211141 )  
( 0.00101368 0.000425726 0.00187977 )  
( 0.000131698 0.00028659 0.0026793 )  
( -0.000144025 -0.000793991 0.00300504 )  
( 0.000350821 0.0012921 0.0022961 )  
( -0.000285726 0.00041538 0.00193064 )  
( 0.000196687 -0.000416408 0.00183162 )  
( -0.000310863 0.000170087 0.00233941 )  
( 0.000114838 0.000549933 0.00245713 )  
( -7.77617e-06 9.74499e-05 0.00190528 )  
( -0.000543686 -0.000406311 0.00141714 )  
( -9.11681e-05 0.000729274 0.00251839 )  
( -0.000435917 -0.000398329 0.003308 )  
( 0.000444297 -0.000511113 -0.000954094 )  
( -8.11071e-06 -0.000546691 0.00246858 )  
( -0.0014189 -0.00203699 0.00113723 )  
( -0.000507644 0.000250419 0.000312939 )  
( 0.000264869 -0.000668454 0.0030399 )  
( 0.00168873 -0.000268106 0.00336158 )  
( 0.00223919 0.000691018 0.00221657 )  
( 0.000335554 -0.000980696 0.00338371 )  
( 0.000918808 -0.000852852 0.009026 )  
( -0.000473432 -0.000304059 0.00280259 )  
( -0.000562036 -0.00164471 0.00160111 )  
( 3.19008e-05 -0.000105665 9.11464e-06 )  
( 0.00187273 0.000867527 -0.0014712 )  
( 0.00384741 0.00109047 0.00999419 )  
( -0.000101844 -0.000250775 -1.75153e-06 )  
( 0.000340267 0.00115893 -0.00129944 )  
( 0.000601299 0.000964691 0.00223305 )  
( -0.000131296 -0.000886922 0.00291583 )  
( 0.000607989 -0.000574753 0.00341807 )  
( -0.000759798 -0.000456723 0.00218002 )  
( 0.00262639 -0.00080459 0.00293969 )  
( -0.00107662 -0.000886231 0.00250709 )  
( -0.000520976 1.25903e-05 -0.000111363 )  
( 0.000576081 -0.00141687 0.00239772 )  
( 0.000867461 0.0012977 0.00381874 )  
( -0.00225495 0.000623426 0.00717841 )  
( 4.00122e-05 0.00127319 -0.00143573 )  
( 2.20081e-06 0.000741703 9.51177e-09 )  
( -0.00259626 0.00109045 0.00448205 )  
( 0.00161893 0.000957222 0.002238 )  
( 0.000291656 0.000135318 -0.000418924 )  
( 0.00093326 -0.00010953 0.00122252 )  
( -0.000159667 -0.000256691 0.0028919 )  
( -0.00196815 -0.00069598 0.0034589 )  
( -0.00121159 -0.00148806 0.00401493 )  
( 0.000831479 0.000690622 0.00259862 )  
( -0.000216506 -1.65441e-05 -0.000303981 )  
( 0.000502918 0.00105887 0.00502483 )  
( 0.000274838 -0.00119168 0.00341589 )  
( 0.000120353 -0.000104965 -0.000221262 )  
( 0.00104317 -0.000277392 0.00248131 )  
( 8.80088e-05 0.00054396 0.000249971 )  
( 0.00194752 -0.000409308 0.00297267 )  
( 0.00128249 0.00169073 0.00258968 )  
( -0.00246574 0.000962674 0.00107443 )  
( -0.00159346 -0.000900956 0.00431434 )  
( -0.00174824 0.000336216 0.00391713 )  
( 0.0031734 -0.000475105 0.00361362 )  
( 9.28372e-05 0.000346542 0.00306599 )  
( 0.000750365 0.00254382 0.00340364 )  
( -0.000140257 0.000130454 0.00297571 )  
( 0.001332 -0.00253329 -0.00150812 )  
( -0.000769615 -0.00157997 0.00181291 )  
( 0.000121943 0.00098045 -0.000314962 )  
( -0.000837023 -0.000430342 0.00347819 )  
( 0.00104459 -0.000137768 -0.000389147 )  
( -0.000817887 -0.00186737 0.00293152 )  
( -0.000468509 -0.00135494 0.00362263 )  
( 0.00124179 0.00079704 0.00178041 )  
( -0.000673079 0.000501614 5.01898e-05 )  
( -0.000191626 -0.000170561 0.000335725 )  
( -0.000756098 -0.000436314 0.00343675 )  
( -0.000274175 0.000133155 0.00567135 )  
( -3.81667e-05 1.12453e-05 0.00489101 )  
( -0.000433624 -0.00394767 0.00350221 )  
( 0.000786231 0.000489795 0.000499515 )  
( 0.00161714 -0.00135138 0.00294184 )  
( -0.000179538 -0.000629865 -3.39791e-06 )  
( -0.000662376 -0.000448592 0.00417854 )  
( 0.00047572 1.24576e-05 0.00262065 )  
( 0.000592103 0.000625442 -0.000387854 )  
( 0.000623776 -0.000408781 0.00250176 )  
( -4.79519e-05 -0.000453927 0.00243675 )  
( 0.00108714 0.000291049 0.00366887 )  
( -0.000876622 0.000603741 0.00333048 )  
( 0.000227246 -0.000885405 0.00182459 )  
( 0.000630869 3.8567e-05 0.00340423 )  
( 0.000545428 -0.000981045 0.00159707 )  
( -0.000606633 0.00125442 -0.000316777 )  
( -0.00127242 -0.000467715 0.00178482 )  
( 0.000299839 -0.000662675 0.00164846 )  
( 0.000304016 7.05676e-05 0.00347085 )  
( 0.000729002 0.000233478 0.00241955 )  
( -0.00140062 -0.000765286 -0.000375783 )  
( 0.00165059 -0.00160988 -0.00167326 )  
( 0.0011614 0.00123791 0.00446854 )  
( -0.00226694 0.00122291 0.0075401 )  
( 0.00183231 0.00375464 0.00476362 )  
( -4.01418e-05 8.80131e-05 -1.87359e-05 )  
( -0.000508681 -0.00158439 0.00344743 )  
( 0.000900991 1.80361e-05 0.000928323 )  
( -7.69803e-05 -0.000121263 -7.584e-05 )  
( -0.000689978 0.000344761 0.00332739 )  
( -0.000926151 0.000564735 -0.000140438 )  
( -0.00174744 -0.00114685 0.00299463 )  
( -0.000329303 0.000115569 -9.21187e-05 )  
( 9.59582e-05 -0.000193282 7.55409e-06 )  
( -0.00180217 -0.00105098 0.00225815 )  
( 9.64536e-06 -0.000876068 0.00247474 )  
( -0.00123979 -0.00018725 0.00024181 )  
( 0.000114467 -0.000224866 -0.000144143 )  
( 0.00159037 -0.0015447 0.00461853 )  
( 0.00149885 -0.00149505 0.00230653 )  
( 0.00224642 0.0010574 0.00220208 )  
( -0.00186484 -0.00427252 -0.000949686 )  
( -9.75177e-05 1.6283e-05 -1.62939e-05 )  
( 0.000937921 -0.000791136 0.00228113 )  
( 0.00129005 -0.00124209 -0.00087501 )  
( -0.000928999 -0.000363907 0.00186257 )  
( 0.000256473 0.00216668 0.00446831 )  
( 0.000578678 0.000736856 0.00065259 )  
( 0.00124203 0.000746065 0.0006324 )  
( -0.000216072 0.00121396 0.00340558 )  
( 0.0009049 -0.000672143 -0.00134417 )  
( 0.00149015 -0.00262191 0.00260266 )  
( 0.000532283 -7.69613e-05 0.00133924 )  
( -0.000633948 -0.000631384 -0.001831 )  
( -0.000501489 -0.00127858 0.00395988 )  
( 4.58902e-05 -1.23766e-06 0.000147174 )  
( 0.000780654 -0.00045643 0.00206729 )  
( -0.000143929 0.000526592 0.000439762 )  
( 0.000312451 -9.91689e-05 0.00106823 )  
( 2.55857e-05 -7.24091e-05 2.57173e-05 )  
( 0.0014684 -0.00016572 0.00141459 )  
( 0.000967439 -0.000125141 -0.000445886 )  
( 0.00234558 -0.000346349 0.00404853 )  
( 0.000532359 -0.000458959 0.00266365 )  
( 0.000689845 -0.000995459 -8.07209e-05 )  
( -0.00086535 0.000535312 0.00159615 )  
( 0.000396076 0.00134852 0.00590436 )  
( -0.000143417 -0.00145286 0.00172364 )  
( 0.000460542 -5.40208e-05 0.000414485 )  
( -0.000174692 -0.000256534 -0.000336289 )  
( -5.05424e-05 -9.87366e-05 -9.54689e-05 )  
( -2.38105e-05 0.000146931 0.00240303 )  
( 0.00113062 -0.000152525 -0.0007567 )  
( 0.00144379 -0.000567669 0.00130129 )  
( 0.000426267 -0.000371878 0.00207825 )  
( -0.0011882 0.000906497 0.00399958 )  
( 0.000318879 -0.000780874 0.000652627 )  
( 0.000680004 -0.00150729 0.0029366 )  
( -0.000848175 -0.000178303 0.000103658 )  
( 0.000426247 -0.000736095 0.00263682 )  
( 0.00114327 -0.00109715 0.00265987 )  
( 8.90341e-05 -8.00778e-05 -4.00891e-05 )  
( 0.000111829 0.000845132 -5.08986e-05 )  
( 0.00121938 0.000546712 0.00111663 )  
( 0.00039671 -0.000832376 0.00313762 )  
( -0.000521064 -0.000500631 0.00333937 )  
( 0.00170695 0.00124829 0.00405281 )  
( 0.00057508 -0.000957006 0.000533637 )  
( 0.000217595 -0.000618479 -0.000106821 )  
( 0.000144285 -0.000762799 0.00206187 )  
( -0.00162974 -0.000970789 0.0037085 )  
( 0.0013288 -0.000665797 0.00567801 )  
( 0.000391676 0.000533211 0.00288062 )  
( 0.00235454 -0.00240903 0.00304583 )  
( -0.000326443 -1.22099e-05 -1.9728e-05 )  
( 0.00234988 -0.000120686 0.00464037 )  
( -0.00204177 0.000595879 0.00363044 )  
( -0.000283899 0.000384327 -0.000260191 )  
( 0.000600596 -0.000796513 0.00546463 )  
( 0.0022315 0.00192954 0.00429593 )  
( 0.00272181 -0.00194254 0.00353502 )  
( -0.000744006 -0.000931111 -0.00136672 )  
( -0.00297452 -0.000284353 0.0050431 )  
( 0.000701397 0.00146174 0.00565772 )  
( 0.000533644 -0.000257262 -0.000155848 )  
( 2.84609e-05 0.000135123 -2.46741e-05 )  
( 0.000232156 -0.00121336 -0.000370964 )  
( -0.000922451 0.000138186 -0.0026858 )  
( -0.000276008 0.000165866 -0.000336052 )  
( 0.000308089 0.0014511 -0.00127789 )  
( 0.00119054 -0.000345218 0.00421759 )  
( 0.000238038 -0.00105224 0.00404911 )  
( 0.00068471 -8.20477e-05 -0.000198518 )  
( 0.00074539 -0.000470933 0.00330869 )  
( 0.00125614 1.45014e-05 0.00251146 )  
( 0.00087862 -0.000712789 0.00530847 )  
( -0.000122659 -0.000117115 -0.000120514 )  
( 0.00183619 0.0014702 0.00636381 )  
( 0.00145615 0.000701196 0.00143869 )  
( -0.000897124 -0.000116611 -0.000380991 )  
( -0.000281165 -0.000642222 0.00145488 )  
( 0.00113017 -0.000121197 0.00874306 )  
( -0.000260794 -2.57072e-05 2.47611e-05 )  
( 0.000607828 0.000228219 -0.000422151 )  
( 0.00114182 0.000606783 -0.0043841 )  
( -0.00343378 -0.00256533 0.00692326 )  
( 0.000715964 -0.000301509 0.00301077 )  
( 0.00159524 -0.00126909 0.00463496 )  
( -0.000170284 -0.000611673 0.00340551 )  
( 0.00154204 -0.00106314 0.00410165 )  
( 0.000349813 -0.000516361 0.00312976 )  
( -0.000693924 0.000535448 0.0038782 )  
( -0.000380067 -0.000683581 0.00277993 )  
( -0.000478779 -0.00175148 0.00309112 )  
( 0.000806439 0.00146283 -0.000346771 )  
( -0.000136133 0.00300956 0.00567465 )  
( -0.000129074 -8.51933e-05 3.51875e-05 )  
( -0.0027462 0.00389844 -0.00346114 )  
( -0.000374043 -0.000221739 7.98509e-05 )  
( 0.0034604 -4.02406e-05 0.00775081 )  
( -0.000723514 -0.000814505 -0.000318404 )  
( 0.00059199 -0.00152052 0.00202188 )  
( 0.000475147 0.000148314 0.000536036 )  
( 0.000255327 -0.000259698 0.00225528 )  
( -0.000109915 -0.000703886 0.00133072 )  
( -0.000103517 0.00112235 7.76714e-05 )  
( -0.000393663 -3.66769e-05 0.0029836 )  
( -0.000462007 -0.00211385 0.00243799 )  
( 0.00094952 -0.000536852 0.0035914 )  
( -0.00237459 -0.0012311 0.00358479 )  
( 7.49191e-05 -0.000158613 -0.00254412 )  
( 0.00228829 -0.000967282 0.00371135 )  
( 0.00142992 -0.000715693 6.72397e-05 )  
( -0.000271539 -0.000538906 0.0017637 )  
( 3.47926e-05 -0.00021577 0.000258549 )  
( -1.64323e-05 0.000962476 0.00392972 )  
( 0.00161397 -0.000130394 0.00304932 )  
( 0.000143579 -0.0020226 -0.000636259 )  
( -0.000276809 -0.000468078 0.00222667 )  
( 7.58345e-05 -0.00189187 0.00151993 )  
( 0.00134466 -0.000256848 -0.000136058 )  
( 0.000241439 -0.000326184 0.00245456 )  
( -0.000289576 0.000563313 -3.52958e-05 )  
( 8.44202e-05 -0.000305607 0.00237576 )  
( -0.00034769 0.0002824 0.000219656 )  
( 0.000222399 0.000595938 0.0027573 )  
( 0.000185907 0.000272603 -0.000243674 )  
( -0.000203058 0.000191177 -0.0004311 )  
( 2.23567e-05 1.23346e-05 -0.00115124 )  
( 0.00127917 0.00197667 0.00353792 )  
( 1.69808e-05 -0.000409413 -3.87179e-05 )  
( -0.000308436 -0.000350688 -0.00035072 )  
( 0.000526636 0.000241196 0.000363693 )  
( -0.000100512 -5.51582e-05 0.00301334 )  
( -0.000216009 0.000996938 0.000327687 )  
( 0.0022464 -0.000175374 -0.00268295 )  
( 0.00150482 0.00188473 0.00389515 )  
( -0.00254851 -0.00103361 0.00246305 )  
( 0.000329483 -0.000157479 0.000399956 )  
( -0.00178007 -0.00123399 0.00349758 )  
( 0.00196153 -0.000144774 0.00307708 )  
( -0.00152298 0.000329951 0.00380407 )  
( -8.89861e-05 -0.000657878 0.00190041 )  
( 0.000687497 -0.000399777 0.00272485 )  
( 0.000126279 -0.00233282 0.00457699 )  
( -0.000231827 -0.00143654 0.000357132 )  
( 0.00247356 -0.000120189 -0.00123393 )  
( 0.00519887 0.00100302 0.000900576 )  
( -0.000890826 -0.000521406 0.0022633 )  
( 0.000647183 9.89693e-05 0.00212434 )  
( 0.000516721 0.000237653 0.000234476 )  
( 0.00130886 -0.00027342 0.00278138 )  
( 0.000697793 0.000716775 0.000721456 )  
( 0.000383913 0.00198506 0.00174839 )  
( -0.000928355 -0.00041232 0.0025474 )  
( 0.000601088 -0.000114527 7.75986e-06 )  
( -0.00026212 3.63339e-06 -8.17007e-05 )  
( -0.000709031 -0.000689773 0.00187876 )  
( 0.00431885 -0.000650069 0.00882193 )  
( -4.67329e-05 -0.000314181 3.38417e-05 )  
( 0.000135116 8.34067e-07 0.00578016 )  
( 0.000859438 -0.000718647 0.00169807 )  
( -0.000759181 -0.000868545 0.00426823 )  
( 0.000611779 -0.00174808 0.00354475 )  
( 0.00178717 0.000985631 -0.000456693 )  
( 0.00140105 0.000323377 1.92357e-05 )  
( 0.000589753 -0.000408527 0.000560939 )  
( -0.000202372 0.00127557 0.00262042 )  
( -0.000293825 0.000457054 0.00227775 )  
( -0.00047859 0.000224952 -3.50683e-05 )  
( 0.00633075 -0.000440683 -0.00193792 )  
( -0.000533862 -0.000618535 0.00245463 )  
( -1.95715e-05 0.00128138 0.00370837 )  
( 0.00128244 4.08409e-05 0.00110115 )  
( 0.00120956 0.000565451 0.00438185 )  
( 0.000188608 -0.00121839 0.00369213 )  
( -0.000741509 0.000214766 -0.000153472 )  
( -6.679e-05 -0.000552698 0.00375241 )  
( 0.00027411 -0.0008439 0.00250056 )  
( 0.000514378 -0.00346784 0.0062822 )  
( 0.00218 -0.000220995 0.00398965 )  
( 0.000510464 -0.00109377 0.00276725 )  
( 0.000129291 -0.000763398 -7.35448e-05 )  
( 0.00157847 -0.000712843 0.00302819 )  
( 0.00126394 0.00155443 0.00383906 )  
( -0.00387812 -0.00483765 0.00585208 )  
( 0.00115583 -0.000364688 0.00150696 )  
( -0.000980072 -0.000759002 -0.000179568 )  
( 0.00149397 0.000412718 0.00450983 )  
( 8.1314e-05 -0.000797343 0.00269016 )  
( 0.00157825 -0.00121431 0.00396128 )  
( -0.000751742 0.00103932 0.00141238 )  
( -0.00127012 -0.000368394 0.000195599 )  
( -0.000911571 -0.000608764 0.00292693 )  
( 0.000158326 -0.00145208 0.00157182 )  
( 0.000244419 0.000148151 0.00425612 )  
( 0.000147701 0.00034698 -0.000204785 )  
( -0.000923626 -4.18379e-05 2.39774e-06 )  
( -0.000621918 0.00174501 -0.000544182 )  
( 0.00133891 0.000491394 -0.00201436 )  
( 0.000708855 0.000492611 0.00345657 )  
( 0.0007929 0.000286771 9.54038e-05 )  
( -0.000626575 -0.00087757 0.00120028 )  
( 0.00126557 0.00113426 0.000165515 )  
( 0.000104382 0.000407348 0.000791473 )  
( -6.8557e-05 -0.00018633 0.003356 )  
( -0.000577095 0.00198419 0.00363989 )  
( 1.88653e-05 -0.000450496 -0.000113656 )  
( 0.000590856 0.00080309 0.00290167 )  
( -0.000690735 -0.00119355 0.00119951 )  
( 0.00103317 0.000871274 0.00384134 )  
( 0.000715697 0.00105048 0.0019292 )  
( 0.00198507 -0.000148749 -8.58154e-06 )  
( 0.00123974 -0.00188011 0.00394953 )  
( -0.00104564 -0.00132454 -5.8228e-06 )  
( 0.000335083 0.000654834 0.00295454 )  
( 0.00264863 0.00139398 0.00551202 )  
( -0.00119659 0.000418534 9.89186e-05 )  
( 0.000349947 -0.000842016 0.00240087 )  
( 0.00130813 0.00111633 0.00153614 )  
( -0.00110184 -0.000474614 0.00337639 )  
( 0.00408546 -0.00269618 0.0115254 )  
( -0.000410544 0.000302521 0.000251255 )  
( 0.0010847 0.0012105 -0.0012609 )  
( 4.20897e-05 0.000332153 -1.09299e-05 )  
( -0.0001795 -0.00145464 0.00189963 )  
( 0.00187235 0.00154574 0.00263777 )  
( 0.00188138 -0.000978673 0.0114716 )  
( -5.32404e-06 2.34764e-06 0.0044776 )  
( -0.000385049 6.40125e-05 -0.000243039 )  
( -9.1977e-05 -0.000141051 4.06351e-06 )  
( 0.000731369 -0.00099871 0.00202706 )  
( 0.000470833 -0.000982369 0.000381846 )  
( 0.000380889 -0.000234247 2.55116e-05 )  
( 0.000289695 -0.000160438 0.00201317 )  
( 0.000766493 0.00034525 0.00373625 )  
( 0.000736413 0.00051499 -0.0103034 )  
( 0.000788886 0.000120872 0.000646282 )  
( 0.00106942 0.000815611 0.00274191 )  
( -0.00161431 0.000837309 0.00330215 )  
( -0.000115454 -0.00138405 0.00691093 )  
( -0.00080408 0.000729703 0.0040508 )  
( 0.000271317 -0.000133587 -0.000882357 )  
( 0.000776217 -0.00204983 0.00221668 )  
( -0.000390011 -0.00127796 1.40096e-05 )  
( 0.00120547 0.00107475 0.00196978 )  
( 3.33709e-05 -6.62754e-05 -4.876e-05 )  
( 0.00255133 0.000446163 0.000626344 )  
( 0.00154465 0.00166225 -0.000254463 )  
( 0.00121983 -0.000900363 0.00196397 )  
( -0.000169096 -0.00031593 0.00735471 )  
( -0.00155537 -0.00164053 0.00211285 )  
( -0.000208245 -0.000298137 -0.00238496 )  
( -0.0020171 0.00129258 0.00509225 )  
( 0.000314033 0.000570489 -8.37297e-05 )  
( 0.00117212 0.000460605 0.0018593 )  
( -0.00116531 -2.52422e-07 -0.000713974 )  
( -0.00152258 -0.000675854 -6.09285e-05 )  
( 0.00043619 -0.00080542 0.00564216 )  
( 0.000280814 -0.000591821 0.000418464 )  
( 0.00214566 0.000761728 0.000209914 )  
( 0.000238945 0.000180779 2.71256e-05 )  
( -0.000286985 -0.00260212 0.00435511 )  
( -0.0011401 -0.00215212 0.0015071 )  
( -0.000478432 0.00024557 0.0040994 )  
( -0.000343794 -0.000695554 0.00284232 )  
( 0.000304072 -0.000567497 0.00213956 )  
( 0.000379103 -0.000619186 0.00249472 )  
( -0.000856114 0.00143468 0.00407185 )  
( 0.000164676 0.00014951 0.00249008 )  
( -0.000140355 2.09759e-05 0.00272087 )  
( 0.00024394 -0.00113823 0.00176315 )  
( -0.000748744 0.000756549 0.00011249 )  
( -0.000142579 5.66932e-05 -0.000161934 )  
( 0.00161009 -0.000986996 0.00223377 )  
( 0.000210898 -0.000741621 0.00204709 )  
( 0.00058495 3.14766e-05 0.00398136 )  
( 5.43617e-05 -0.000666149 0.00234621 )  
( -0.000529475 0.000804025 0.00335858 )  
( 0.000315694 0.00225615 0.00432576 )  
( -0.000142539 -0.000359194 0.000234065 )  
( -0.000402322 -0.000316154 0.00156021 )  
( 0.00033051 0.000337308 7.49188e-06 )  
( -0.000128231 5.97412e-05 -9.44466e-05 )  
( -0.000287512 0.000771533 3.56283e-05 )  
( 0.000106253 -0.00016971 -3.83639e-05 )  
( 0.000735073 0.000320947 0.000102197 )  
( 2.36482e-05 -0.000452191 0.00254751 )  
( 0.00281735 -0.00024545 -0.00182871 )  
( 0.000222839 -0.000281338 0.00216213 )  
( 0.00164399 -0.000127393 1.92111e-05 )  
( 0.000711806 -0.00132551 0.00139219 )  
( -0.000130837 0.000661828 -0.000751368 )  
( 0.000577159 7.37767e-05 -0.000896121 )  
( -0.000700004 -2.97216e-05 -7.59966e-05 )  
( 0.000139995 -0.00187659 0.00195757 )  
( 0.000496081 2.51578e-05 0.00352347 )  
( -0.000565249 0.000351128 0.000526146 )  
( -0.00377275 0.000969469 0.00555761 )  
( -0.000295023 -0.00130332 0.000295622 )  
( -0.00081246 0.000354089 -0.000464636 )  
( 0.00103329 0.000730888 -3.74526e-05 )  
( 0.00124975 -0.00064165 0.00274992 )  
( 0.00121713 0.000163779 0.00454962 )  
( -0.000608657 -0.000956938 -0.00067768 )  
( 0.000833006 0.000736126 0.00153194 )  
( -8.59783e-05 -0.000140541 -6.35918e-05 )  
( 0.000428329 0.000226891 0.00269003 )  
( 0.000533124 -0.000429683 0.00205528 )  
( 0.000323495 0.000176413 -0.000386849 )  
( 0.00161557 0.000280988 2.93782e-05 )  
( 0.00128625 0.00136425 0.00109235 )  
( -0.000141578 -0.000618838 0.00355153 )  
( 0.000444292 -0.000174898 0.00162554 )  
( 0.00104822 -0.00253795 0.00119575 )  
( 0.000264598 -0.000876481 0.00257067 )  
( 0.00153505 0.0010723 0.00313541 )  
( 0.00144993 -0.000630732 -5.63183e-05 )  
( -0.000144399 0.000645161 0.00193195 )  
( -0.00106858 0.0020736 -0.0023621 )  
( 0.0011766 -0.00732851 0.00787196 )  
( -7.07597e-05 -0.000282086 0.0032488 )  
( 0.00130994 0.00105576 -2.81407e-05 )  
( 0.000770069 -0.00157673 -0.000538834 )  
( -0.00146708 0.00122995 0.00313054 )  
( 0.000293445 0.000321641 -0.000845463 )  
( -0.000643846 -0.00118156 0.0020765 )  
( -0.000335061 -0.00106903 0.00910432 )  
( -0.000149225 -0.000471955 0.000696579 )  
( 0.000535126 0.00127726 0.00259267 )  
( 0.000359357 0.00063022 0.00455066 )  
( -0.00135251 -0.000496046 -0.00127555 )  
( -0.000101268 0.000146127 0.00155785 )  
( 0.00121798 -4.49736e-05 0.000470685 )  
( -6.39204e-06 -0.000214944 5.13953e-05 )  
( -0.000334615 0.000456826 0.00365402 )  
( 0.000733357 0.000111763 -2.78681e-05 )  
( -2.00474e-05 0.0004619 -0.000624764 )  
( -0.00179798 -0.000783206 0.0029434 )  
( 0.00177885 -0.000646492 0.00213537 )  
( 8.87569e-05 0.000592692 -0.000297166 )  
( 0.000911625 0.00073152 0.00298482 )  
( -0.00140364 0.000189196 5.51183e-05 )  
( 0.000370316 -0.000431342 0.00171888 )  
( 0.00092438 0.000771921 0.00189558 )  
( 0.00160869 -0.00119743 0.00256604 )  
( -0.000473061 -5.36801e-05 0.00212403 )  
( -0.000523936 0.000460711 -0.000189619 )  
( 0.00159122 -0.00184411 0.0010437 )  
( 0.000317865 0.000175153 -0.00330103 )  
( -9.95473e-05 0.00141831 0.00343239 )  
( -0.000464498 -0.000101008 0.000351302 )  
( 0.00128237 -8.40744e-05 0.00711661 )  
( 0.00324723 -0.00179592 0.00485308 )  
( 0.000141627 0.000177519 0.000771079 )  
( 0.000133111 -0.000425488 0.00249233 )  
( 0.00229542 0.000309563 -0.00054744 )  
( -0.000933675 -0.000983188 0.00531389 )  
( 0.000279059 0.0012065 0.000256864 )  
( 0.0020249 0.00179147 0.00526805 )  
( -0.000749534 -0.000193088 0.00201306 )  
( -1.38508e-05 0.000266603 -0.000619035 )  
( 0.00108945 -0.000334085 0.00612538 )  
( 0.00131771 -0.000418849 0.000464994 )  
( -0.00114486 -0.000105554 0.0025359 )  
( 0.000946755 0.000126565 0.00376812 )  
( -0.000329956 0.00265749 0.00561774 )  
( 0.000590597 -0.00248535 0.0041298 )  
( 0.000274618 -0.00271347 0.00325964 )  
( 0.000470761 5.29331e-05 2.25474e-05 )  
( -0.00024344 -0.000399172 0.00356016 )  
( -0.000934822 -0.00046506 0.0034062 )  
( 0.000291511 0.000240789 -0.00017528 )  
( 0.000878302 -0.00243484 0.00242448 )  
( 0.000523926 -0.000335759 2.06581e-06 )  
( -0.00068772 -0.0014966 -0.00181914 )  
( -0.00151485 0.00199386 0.00580508 )  
( -0.00013228 0.00130817 0.0041615 )  
( -0.00236175 -0.00299268 0.00786272 )  
( -5.07653e-05 0.000281693 0.00285333 )  
( 0.000180288 0.000444892 0.00104397 )  
( 0.000581989 0.000127419 -0.000452335 )  
( 0.0024961 -0.00117847 0.0033206 )  
( 0.00080533 -0.000653366 -0.0058756 )  
( -0.000616182 0.00122593 -0.00149908 )  
( 1.87037e-05 0.000670554 0.0032102 )  
( 0.00582906 0.00162307 0.00167677 )  
( 0.000170749 -0.00025565 0.00303968 )  
( 0.000921521 -0.000943592 0.00397294 )  
( 0.00140997 0.00217387 0.00539541 )  
( 0.000172614 -0.000542172 0.00304262 )  
( 0.00218617 0.000693215 0.00431987 )  
( -0.00210739 -0.000610895 0.000868804 )  
( 0.000837037 -0.000341262 0.00229709 )  
( -6.92057e-05 -0.00159093 0.00321028 )  
( -0.000782584 0.00172804 0.00520837 )  
( -5.66153e-05 -0.000280736 -0.000255653 )  
( 6.27696e-05 -0.00164519 -0.000189815 )  
( -0.000102433 -0.000469393 0.00152158 )  
( -0.00188402 -0.000373927 -0.000168373 )  
( 0.000720636 0.000418966 0.00183264 )  
( 6.54638e-06 -0.00185579 -0.00122222 )  
( 0.000538155 -3.98708e-06 -0.00528434 )  
( -0.000896687 0.00011911 0.00548818 )  
( 0.000891757 -0.00135203 0.00363532 )  
( 2.82782e-05 -0.00017401 5.38431e-05 )  
( 0.00140646 0.00126928 0.00478949 )  
( -0.000782467 -0.00154121 -0.00050398 )  
( -0.00057953 0.000334511 -0.00193883 )  
( -6.68858e-05 -2.65817e-06 0.00186484 )  
( 0.00195995 -0.000356086 0.00147854 )  
( -0.000235965 -0.000252769 0.00516106 )  
( 0.000838611 -0.0005611 0.00280394 )  
( 0.00118429 -7.78934e-05 0.00121967 )  
( -0.000399467 -4.5837e-05 0.00205063 )  
( -0.000679542 0.00049661 0.00406278 )  
( 0.000512339 0.00146125 -0.00124748 )  
( -0.000684743 0.000512613 -0.000267798 )  
( 0.000280146 0.000221314 0.0011413 )  
( 0.00117331 -0.00127774 0.00314616 )  
( 7.21488e-05 -1.50505e-05 0.00710377 )  
( 0.00038065 7.40528e-05 1.0192e-05 )  
( -0.00149087 -0.00189008 0.00159693 )  
( -0.00660514 -0.00163114 0.00958583 )  
( 0.000251395 -0.000450643 -0.000635256 )  
( -0.000410105 -0.000578581 0.00186956 )  
( 0.000650908 0.000706598 0.00320787 )  
( 0.000564654 0.0011969 0.000494663 )  
( 0.000337133 -0.000168244 0.00269498 )  
( -0.00354799 -0.00193685 0.00904567 )  
( -0.00044676 -0.000119036 0.0010758 )  
( 0.00167651 -0.000762604 0.00252421 )  
( 0.000301087 -8.57866e-05 0.00312774 )  
( -0.00129786 2.89964e-05 -0.000611798 )  
( -5.61512e-05 -0.000556032 3.50551e-05 )  
( 0.00125914 -0.00141564 -2.87779e-05 )  
( -0.00127126 -0.00131192 -0.000627233 )  
( -0.00103166 -0.0012789 0.00249841 )  
( -0.000574978 5.72435e-06 0.00240998 )  
( 5.44773e-05 0.000159611 -5.93094e-05 )  
( 3.79372e-05 -0.00163454 0.00362329 )  
( 0.000676333 5.08753e-05 -6.28259e-05 )  
( 0.000887274 -0.000763698 0.00363144 )  
( 0.00250577 -0.000389866 0.00731858 )  
( 0.00154441 0.000162724 -7.46947e-07 )  
( -0.000214117 -0.000970246 -0.00222007 )  
( 0.000275293 -0.000717215 0.00278618 )  
( 0.00151325 -0.0011824 -0.000456743 )  
( 0.000348747 -0.000904948 0.00248875 )  
( 0.00107032 0.000615537 0.000231338 )  
( -0.000430227 -8.67478e-05 0.00271573 )  
( -0.000780181 0.000504103 0.00496177 )  
( 0.00364406 0.0022078 0.00642341 )  
( -0.000559965 0.000657307 0.000137529 )  
( -0.000260502 -0.00206786 0.00347762 )  
( 0.000281712 0.00207933 0.00394977 )  
( 0.000703021 0.0017873 0.00210482 )  
( 0.000257586 -0.000196727 0.000496375 )  
( 0.000629626 0.000789864 0.00066594 )  
( 0.000145148 -0.000270545 -4.34551e-05 )  
( 0.000823068 -0.0014125 0.00230667 )  
( -0.00151395 -0.000208106 0.00445524 )  
( 0.00102841 -0.000239822 -0.000135761 )  
( 0.00126619 -0.000598853 3.22965e-06 )  
( 0.000965798 -0.00142535 0.0036126 )  
( -0.00111183 -0.00165583 0.00190543 )  
( -0.000227448 -0.000747915 0.00198179 )  
( 0.00213409 0.000525155 0.00216308 )  
( 0.00012743 -0.000342681 0.00234118 )  
( 0.00109363 0.000946083 0.00992667 )  
( 0.000106117 -0.00040965 -0.00186477 )  
( 8.76197e-05 0.000930648 0.000614797 )  
( 0.000444457 -0.000289401 9.06561e-05 )  
( 0.000573372 -0.00062089 0.00142165 )  
( -0.000319738 -0.00204974 0.00896698 )  
( 0.00068513 -0.000263456 0.00167142 )  
( 0.000518375 0.000251525 0.00314665 )  
( 0.000750553 -0.000314832 0.00314403 )  
( -0.000142499 -0.000567903 0.00471271 )  
( 0.000263832 -0.000688037 0.00365232 )  
( 0.001333 0.00215307 0.00150202 )  
( 0.00126922 8.97556e-05 0.000152348 )  
( -0.000588422 -0.000615873 -6.92761e-05 )  
( -0.00192327 1.0953e-05 6.28651e-05 )  
( -0.000160576 3.56586e-05 -8.87425e-05 )  
( -0.000273845 0.00032765 0.00289141 )  
( -0.000430867 -0.000307611 0.00287597 )  
( 0.000140731 -0.000363523 -0.000333505 )  
( 0.00314456 0.000659403 0.00655663 )  
( 0.000423374 -0.00092427 -9.32739e-06 )  
( -7.58264e-05 -2.40449e-05 1.01911e-05 )  
( 0.000854623 -7.67321e-05 0.00401404 )  
( 0.00171635 5.26243e-05 0.000825157 )  
( -0.0025482 0.000284133 0.00298293 )  
( -0.00178048 0.00164382 0.00446449 )  
( -0.00098573 -0.00187807 0.00447324 )  
( 0.000498372 0.00048416 3.6919e-05 )  
( -0.000223942 0.00029269 9.68694e-05 )  
( 0.000584613 -0.00169321 0.00365608 )  
( -0.000784937 0.000175877 -0.00157373 )  
( -0.000211498 -0.000596648 -4.17699e-06 )  
( -0.00358286 -0.00555301 0.00940021 )  
( 0.00158776 -0.000234876 0.00484912 )  
( -0.00161745 -0.000161302 0.00569846 )  
( -0.000263962 -0.000300066 -0.000307605 )  
( 0.000119461 -0.000468138 -3.31294e-05 )  
( -0.00111832 0.000107997 0.00302252 )  
( -0.000392723 -0.000734806 -0.000316287 )  
( 0.00292673 -0.000109843 0.00410414 )  
( -0.00106302 0.000425094 -2.1588e-05 )  
( -0.00062661 -0.000291833 -0.000292998 )  
( -0.000149206 -0.000421015 -0.000581703 )  
( 0.00212601 7.09229e-05 0.00322368 )  
( -0.000494973 0.000300669 -0.000189995 )  
( 0.000395172 0.000428979 -0.000631947 )  
( -0.000494968 0.000545554 -0.000278396 )  
( 0.000260696 0.000694424 0.000815981 )  
( -0.000635477 -0.00081766 0.00307124 )  
( 0.0020072 0.0001919 0.00293776 )  
( -7.17347e-05 -0.000110948 0.000142679 )  
( -2.11396e-05 -0.000261171 0.00399338 )  
( 0.000715512 0.00125682 0.00107581 )  
( 0.000425037 -0.000615381 0.00185102 )  
( -0.000366512 0.000225119 0.00496398 )  
( -2.72732e-05 0.00018159 0.00237983 )  
( 0.0020236 0.000320837 0.00317513 )  
( 0.000335903 0.000101319 -6.4307e-07 )  
( -8.96563e-05 -0.000485043 -0.000256766 )  
( 0.00245766 -0.00713973 0.0130597 )  
( 0.00111539 -0.000543542 0.00816314 )  
( -0.000475248 -0.00159093 0.00117694 )  
( 0.00378762 0.000142734 -0.000845066 )  
( 0.000996399 -0.000427772 0.00175585 )  
( 0.000704003 -0.00170401 -0.000484819 )  
( -0.00142344 -0.000222811 -0.00182653 )  
( -0.000780788 -0.000582796 0.0020949 )  
( 0.000874819 -0.000833438 -1.21068e-05 )  
( 5.74392e-05 -0.00010131 0.00129545 )  
( 0.00107721 -0.00119551 0.00804969 )  
( 0.000625216 -0.000340923 0.00285222 )  
( 0.000892879 0.000379662 0.0155203 )  
( -7.98105e-05 -0.000179142 0.000134151 )  
( 0.00025363 -0.000301251 0.00134435 )  
( -0.000240422 0.00071913 5.90792e-05 )  
( 0.000815554 -0.00054096 0.000841116 )  
( 0.000585676 -6.28068e-05 -5.47449e-05 )  
( 0.000461973 -0.00018472 0.00397985 )  
( -0.00133449 -0.00115492 0.00265852 )  
( 0.000925758 0.000470198 -4.7021e-05 )  
( 0.000167673 0.00138389 -0.000294741 )  
( -0.000546992 8.19158e-05 -0.000687148 )  
( 0.00305248 0.0012019 0.00308763 )  
( -0.00155884 -0.000335637 0.00272449 )  
( 0.000868614 -0.00135252 0.0037429 )  
( -0.00327869 -1.21588e-05 0.00241934 )  
( -0.000209677 0.000577872 -0.000265701 )  
( -0.00196413 0.00481218 0.0113107 )  
( -0.000315594 -0.000586508 0.00139343 )  
( 0.000904172 -8.50445e-05 -0.000808692 )  
( -0.000770516 0.00102271 -0.000420552 )  
( 0.000465613 -0.000741661 0.00672842 )  
( 0.000253968 -6.60466e-05 -9.80282e-05 )  
( -0.000788709 0.0014768 -0.00188863 )  
( 0.000169526 0.000201391 3.71449e-06 )  
( 0.000330297 -0.00119043 0.00275571 )  
( -0.000495457 -0.000228158 -0.000186015 )  
( 0.000657966 -0.000521616 0.00339561 )  
( 0.000133439 -0.000116715 4.15877e-05 )  
( -0.000383247 -0.0015934 0.000644135 )  
( 0.000613384 -0.000663678 -0.000265673 )  
( 0.000894472 -0.00096217 0.00344454 )  
( 0.000312592 -0.00025623 0.00240733 )  
( 0.00142934 -0.000824258 0.000518 )  
( -0.000926755 0.000998519 8.01546e-08 )  
( -0.000727522 0.000428945 -9.17915e-05 )  
( 0.000645303 0.000400273 0.0001703 )  
( 0.000888869 -0.00100922 0.00267966 )  
( -0.00257532 -0.000178369 0.00368808 )  
( -9.52976e-06 -6.62216e-05 -0.00115247 )  
( 0.00142827 -0.000493411 -1.61972e-05 )  
( 0.00160501 -0.0023399 0.0114451 )  
( 0.000311846 -0.00108248 0.00173699 )  