FoamFile
{version 2.0; format ascii;class Cloud<passiveParticle>; location 0;object  positions;}
2497
(
( 0.00162726 -0.00391117 0.00623156 ) 0 
( 0.000426101 -0.00501501 0.00521041 ) 0 
( 0.0124817 -0.000875104 0.00366541 ) 0 
( 5.79949e-05 -0.0133498 0.00526948 ) 0 
( 0.0109869 -0.00405614 0.00468374 ) 0 
( 0.00320097 -0.00402233 0.00564573 ) 0 
( 0.00491546 -0.00361093 0.000499717 ) 0 
( 0.0052595 -0.0122702 0.00235909 ) 0 
( 0.00436674 -0.00416124 0.00712871 ) 0 
( 0.00830961 -0.0057897 0.00418759 ) 0 
( 0.00456992 -0.00147018 0.00603747 ) 0 
( 0.0102113 -0.00706045 0.00649858 ) 0 
( 0.00511306 -0.00866113 0.00506373 ) 0 
( 0.00483168 -0.0105118 0.000499621 ) 0 
( 0.00506418 -0.0052505 0.00408049 ) 0 
( 0.00912354 -0.00845575 0.00418942 ) 0 
( 0.00921555 -0.00206045 0.000499704 ) 0 
( 0.0122127 -0.00251683 0.00609012 ) 0 
( 0.00462895 -0.00600446 0.00737801 ) 0 
( 0.00221315 -0.0131654 0.00230214 ) 0 
( 0.00515869 -0.00143854 0.00147921 ) 0 
( 0.00750446 -0.0048276 0.00049957 ) 0 
( 0.00895252 -0.00419115 0.00639191 ) 0 
( 0.00395078 -0.00129795 0.0030986 ) 0 
( 0.00103168 -0.00697306 0.00561659 ) 0 
( 0.0102566 -0.00751284 0.00220122 ) 0 
( 0.000924672 -0.00329234 0.00300016 ) 0 
( 0.00375642 -0.00646043 0.00720485 ) 0 
( 0.00417386 -0.00690233 0.00624414 ) 0 
( 0.00894379 -0.00277123 0.00128374 ) 0 
( 0.000642797 -0.00978499 0.00147571 ) 0 
( 0.00492188 -0.00379218 0.00598652 ) 0 
( 0.00925988 -0.00213409 0.00386291 ) 0 
( 0.00906516 -0.00296824 0.00334729 ) 0 
( 0.0133391 -0.000541301 0.00489275 ) 0 
( 0.00625496 -0.000958807 0.000499738 ) 0 
( 0.0113067 -0.00422429 0.00203488 ) 0 
( 0.00764079 -0.0109472 0.00127272 ) 0 
( 0.00739471 -0.00745638 0.00551046 ) 0 
( 0.000178068 -0.00471344 0.00826152 ) 0 
( 0.00411666 -0.00435284 0.0061791 ) 0 
( 0.00559385 -0.0111748 0.00682148 ) 0 
( 0.00132499 -0.00863825 0.0022055 ) 0 
( 0.00765266 -0.00841493 0.00539133 ) 0 
( 0.00771731 -0.00100542 0.000499817 ) 0 
( 0.00340289 -0.000333009 0.000499805 ) 0 
( 7.72171e-05 -0.00104176 0.00576239 ) 0 
( 0.00839396 -0.00988272 0.00362661 ) 0 
( 0.0041708 -0.00514053 0.00717034 ) 0 
( 0.00457866 -0.0073131 0.00363773 ) 0 
( 0.0133221 -0.000867836 0.00673235 ) 0 
( 0.00231029 -0.0112555 0.00655928 ) 0 
( 0.00185535 -0.00552179 0.0054457 ) 0 
( 0.0076141 -0.00372281 0.000499484 ) 0 
( 0.000577999 -0.000741805 0.00049972 ) 0 
( 0.00939976 -0.0094804 0.000499635 ) 0 
( 0.00861744 -0.00903954 0.00244225 ) 0 
( 0.00314706 -0.00612914 0.00415628 ) 0 
( 0.0120293 -0.00349119 0.00596047 ) 0 
( 0.00153365 -0.00719013 0.0022285 ) 0 
( 0.0072219 -0.00111637 0.00533456 ) 0 
( 0.00790836 -0.0107555 0.00367439 ) 0 
( 0.00826797 -0.00149619 0.00582722 ) 0 
( 0.00937642 -0.00501336 0.00506761 ) 0 
( 0.00398919 -0.00119101 0.00526957 ) 0 
( 0.00886789 -0.00404675 0.00473917 ) 0 
( 0.000965328 -0.0104081 0.00704171 ) 0 
( 0.00559904 -0.0090434 0.0058494 ) 0 
( 0.00375443 -0.00354265 0.00206666 ) 0 
( 0.00243296 -0.00685308 0.000499797 ) 0 
( 0.00838966 -0.00748329 0.000499813 ) 0 
( 0.010765 -0.00345967 0.00388725 ) 0 
( 0.00602571 -0.00261311 0.0059709 ) 0 
( 0.0070485 -0.00107312 0.00329891 ) 0 
( 0.00362499 -0.00129768 0.00680964 ) 0 
( 0.0116501 -0.00463963 0.00292806 ) 0 
( 0.000417124 -0.00243069 0.00302947 ) 0 
( 0.00926462 -0.00726185 0.00624429 ) 0 
( 0.00174845 -0.0034767 0.00406255 ) 0 
( 0.00985005 -0.00423989 0.00682931 ) 0 
( 0.00726168 -0.00699106 0.000499731 ) 0 
( 0.00471133 -0.0039129 0.00205794 ) 0 
( 0.00211552 -0.0123462 0.00652396 ) 0 
( 0.00867127 -0.00885194 0.0062374 ) 0 
( 0.000550994 -0.0123443 0.000499802 ) 0 
( 0.00924073 -0.00161695 0.0056314 ) 0 
( 0.0109841 -0.00502047 0.00109571 ) 0 
( 0.00519132 -0.0051867 0.00725691 ) 0 
( 0.0033333 -0.00754001 0.000499808 ) 0 
( 0.00950414 -0.00821127 0.00508154 ) 0 
( 0.0015275 -0.0109011 0.00524575 ) 0 
( 0.00200982 -0.00503035 0.00395359 ) 0 
( 0.00109678 -0.00385812 0.00203339 ) 0 
( 0.00183633 -0.01055 0.000499604 ) 0 
( 0.00538512 -0.00704033 0.00491212 ) 0 
( 0.00234622 -0.00516869 0.00105884 ) 0 
( 0.00732249 -0.0091542 0.00480482 ) 0 
( 0.00446654 -0.0123654 0.00138439 ) 0 
( 0.00160344 -0.00639665 0.00503213 ) 0 
( 0.00456639 -0.0114757 0.000499809 ) 0 
( 0.000531842 -0.0036978 0.00755352 ) 0 
( 0.0106714 -0.00628252 0.00135091 ) 0 
( 0.00374924 -0.00289843 0.00363345 ) 0 
( 0.0013721 -0.00171046 0.00775784 ) 0 
( 0.00290858 -0.00772598 0.00597847 ) 0 
( 0.0117611 -0.00439482 0.00116063 ) 0 
( 0.00579714 -0.00780036 0.00117469 ) 0 
( 0.00772241 -0.00432953 0.00530877 ) 0 
( 0.00108701 -0.0133057 0.000499826 ) 0 
( 0.00195043 -0.00597712 0.000499735 ) 0 
( 0.00654677 -0.00268925 0.00713954 ) 0 
( 0.000166643 -0.00105458 0.00427599 ) 0 
( 0.0118632 -0.00612264 0.00141227 ) 0 
( 0.00430955 -0.00213563 0.00533794 ) 0 
( 0.00188948 -0.0114412 0.000949652 ) 0 
( 0.00446491 -0.00561098 0.00519201 ) 0 
( 0.0118462 -0.00614398 0.00454907 ) 0 
( 0.00657514 -0.00445856 0.000499769 ) 0 
( 0.0109429 -0.00259818 0.00691478 ) 0 
( 0.0027347 -0.00487671 0.00530462 ) 0 
( 0.00806078 -0.00993316 0.00645396 ) 0 
( 0.0050884 -0.00459617 0.0013593 ) 0 
( 0.000967378 -0.00332219 0.00476502 ) 0 
( 0.00777865 -0.00489796 0.00445353 ) 0 
( 0.00295745 -0.00697063 0.00688728 ) 0 
( 0.00833291 -0.00435127 0.000795212 ) 0 
( 0.00310134 -0.00975224 0.00202842 ) 0 
( 0.00687473 -0.00964445 0.00699744 ) 0 
( 0.00784169 -0.0099282 0.00119849 ) 0 
( 0.010399 -0.00529543 0.00639717 ) 0 
( 0.00113353 -0.0087563 0.00567461 ) 0 
( 0.00427495 -0.00138388 0.00194457 ) 0 
( 0.00266078 -0.0107046 0.00470873 ) 0 
( 0.0116396 -0.00116811 0.00659924 ) 0 
( 0.00761852 -0.00933138 0.00578926 ) 0 
( 0.00700213 -0.00318569 0.0050979 ) 0 
( 0.00998743 -0.00564583 0.00555627 ) 0 
( 0.0131669 -0.00220663 0.00593476 ) 0 
( 0.00926768 -0.00738344 0.00227194 ) 0 
( 0.00586613 -0.010061 0.000978477 ) 0 
( 0.00907364 -0.00672931 0.000499678 ) 0 
( 0.00380691 -0.0111058 0.00198109 ) 0 
( 0.00331993 -0.00503023 0.00665705 ) 0 
( 0.00473954 -0.00989968 0.00291011 ) 0 
( 0.00962051 -0.00684009 0.00328114 ) 0 
( 0.00360691 -0.00979514 0.00302485 ) 0 
( 0.00654945 -0.00632766 0.00623842 ) 0 
( 0.0102273 -0.00258179 0.00621698 ) 0 
( 0.00431923 -0.00485225 0.00194484 ) 0 
( 0.0105091 -0.00482805 0.0019543 ) 0 
( 0.00455158 -0.00431544 0.00375443 ) 0 
( 0.00562005 -0.00045663 0.00300362 ) 0 
( 0.00213714 -0.00121477 0.00133038 ) 0 
( 0.00927499 -0.00695375 0.00719708 ) 0 
( 0.00901501 -0.00125942 0.00341383 ) 0 
( 0.00615971 -0.000441553 0.00135017 ) 0 
( 0.000224626 -0.00650465 0.00792383 ) 0 
( 0.00631283 -0.00842795 0.00306555 ) 0 
( 3.35496e-06 -0.00537705 0.00329975 ) 0 
( 0.00226382 -0.00865783 0.00336627 ) 0 
( 0.002895 -0.0130315 0.00628068 ) 0 
( 0.000333151 -0.000480984 0.00209068 ) 0 
( 0.00089412 -0.00327345 0.00599561 ) 0 
( 0.00288971 -0.00975977 0.000499678 ) 0 
( 0.00380937 -0.0107887 0.00650878 ) 0 
( 0.0132171 -0.00187921 0.00312829 ) 0 
( 0.00127461 -0.00514572 0.00757902 ) 0 
( 0.00598075 -0.00148961 0.00356828 ) 0 
( 0.00539875 -0.00910412 0.000499637 ) 0 
( 0.00289184 -0.00639472 0.00770434 ) 0 
( 0.0126605 -0.0042102 0.00631732 ) 0 
( 0.000773502 -0.00384326 0.000499694 ) 0 
( 0.00108413 -0.00558482 0.00471749 ) 0 
( 0.00727617 -0.0081473 0.00317584 ) 0 
( 0.00405935 -0.00205143 0.00406566 ) 0 
( 0.00655991 -0.00750159 0.00277709 ) 0 
( 0.0019952 -0.00272456 0.00157831 ) 0 
( 0.00506022 -0.00724519 0.00155981 ) 0 
( 0.000152629 -0.00553451 0.0076923 ) 0 
( 0.0105651 -0.00816124 0.000499721 ) 0 
( 0.000496837 -0.00958477 0.0074152 ) 0 
( 0.0123259 -0.00190134 0.00234987 ) 0 
( 0.0016601 -0.00171859 0.00591552 ) 0 
( 0.00220244 -0.00692981 0.0015322 ) 0 
( 0.00021082 -0.00397482 0.00277121 ) 0 
( 0.000440238 -0.00416933 0.00467709 ) 0 
( 0.00371195 -0.00352508 0.00753585 ) 0 
( 0.00652189 -9.30521e-05 0.0065257 ) 0 
( 0.010447 -0.00368184 0.00579552 ) 0 
( 0.00295172 -0.00583285 0.00149688 ) 0 
( 0.00458438 -0.00471431 0.000499725 ) 0 
( 0.00467336 -0.0114077 0.00158375 ) 0 
( 0.00325008 -0.0106518 0.00128558 ) 0 
( 0.0108504 -0.00211197 0.000499805 ) 0 
( 0.008855 -0.00999072 0.00116497 ) 0 
( 0.00290769 -0.012227 0.00476152 ) 0 
( 0.000968269 -0.00798056 0.00700445 ) 0 
( 0.0107158 -0.00261418 0.00441916 ) 0 
( 0.00858778 -0.00499422 0.00686673 ) 0 
( 0.00228195 -0.0089392 0.0021921 ) 0 
( 0.000864927 -0.00387743 0.00381889 ) 0 
( 0.00807176 -0.00112817 0.0039177 ) 0 
( 0.00196834 -0.0103514 0.00595516 ) 0 
( 0.0115549 -0.003456 0.00143543 ) 0 
( 0.00286943 -0.0104463 0.00637937 ) 0 
( 0.00238241 -0.0101555 0.00126512 ) 0 
( 0.00688149 -0.00967331 0.00131056 ) 0 
( 0.0097374 -0.00450877 0.00428285 ) 0 
( 0.00711235 -0.0112979 0.000499692 ) 0 
( 0.000784123 -0.00794572 0.00518025 ) 0 
( 0.0100076 -0.00581995 0.00457203 ) 0 
( 0.00271174 -0.00130628 0.00466458 ) 0 
( 0.00542596 -0.000629638 0.00200328 ) 0 
( 0.00739895 -0.00637079 0.00678873 ) 0 
( 0.00766985 -0.00166432 0.00270521 ) 0 
( 0.00695886 -0.00878972 0.00177266 ) 0 
( 0.00883156 -0.00749374 0.00422189 ) 0 
( 0.00239097 -0.00412678 0.003594 ) 0 
( 0.0100644 -0.0087155 0.00379217 ) 0 
( 0.00744322 -0.010128 0.00521119 ) 0 
( 0.00934487 -0.00472562 0.00334205 ) 0 
( 0.00653646 -0.00603786 0.00719538 ) 0 
( 0.0102297 -0.00685246 0.00747622 ) 0 
( 0.00556533 -0.00910087 0.00284141 ) 0 
( 0.00592369 -0.00286797 0.0010368 ) 0 
( 0.00517324 -0.00466482 0.00640464 ) 0 
( 0.00968089 -0.00473893 0.00597965 ) 0 
( 0.00158502 -0.00769764 0.0013625 ) 0 
( 0.0069552 -0.00160928 0.00196235 ) 0 
( 0.00463873 -0.00269489 0.00457276 ) 0 
( 0.00740572 -0.00933565 0.000499654 ) 0 
( 0.00254431 -0.00796927 0.00147944 ) 0 
( 0.00167494 -0.0132435 0.00650261 ) 0 
( 0.00585993 -0.0105167 0.00611716 ) 0 
( 0.00636278 -0.0112696 0.00551571 ) 0 
( 0.000246156 -0.0111316 0.00314838 ) 0 
( 0.0012909 -0.0033295 0.00120706 ) 0 
( 0.000776484 -0.0100744 0.00324496 ) 0 
( 0.00229225 -0.00422127 0.00465948 ) 0 
( 0.00774596 -0.00389977 0.00440483 ) 0 
( 0.0120578 -0.000365595 0.00441389 ) 0 
( 0.00179409 -0.011995 0.00386544 ) 0 
( 0.00944163 -0.00823458 0.0060793 ) 0 
( 0.00958671 -0.000831577 0.00500511 ) 0 
( 0.00468732 -0.0104264 0.00464108 ) 0 
( 0.000646044 -0.00141585 0.0022592 ) 0 
( 0.00328977 -0.00201948 0.00838132 ) 0 
( 0.00411762 -0.00362117 0.00304822 ) 0 
( 0.0130487 -0.00281977 0.00364696 ) 0 
( 0.00263129 -0.00950601 0.00298416 ) 0 
( 0.00313474 -0.00677225 0.00120752 ) 0 
( 0.0057314 -0.0111822 0.00408974 ) 0 
( 0.00766211 -0.000301515 0.00145526 ) 0 
( 0.0051089 -0.00258716 0.000499804 ) 0 
( 0.00193861 -0.00714338 0.00314192 ) 0 
( 0.0117559 -0.000585219 0.00579485 ) 0 
( 0.00987432 -0.00780365 0.00336842 ) 0 
( 0.00804602 -0.0022288 0.00197047 ) 0 
( 0.00902284 -0.00503247 0.00126951 ) 0 
( 0.00540821 -0.00314896 0.00539516 ) 0 
( 0.00169486 -0.00120814 0.00327676 ) 0 
( 0.00636859 -0.00961366 0.00613593 ) 0 
( 0.00889587 -0.00555561 0.00295193 ) 0 
( 0.000648421 -0.00290304 0.0038818 ) 0 
( 0.00784184 -0.00469834 0.00627053 ) 0 
( 0.000640413 -0.00807283 0.00101976 ) 0 
( 0.00293955 -0.00247945 0.00426225 ) 0 
( 0.00571347 -0.00342466 0.0064745 ) 0 
( 0.00481875 -0.00252038 0.00617067 ) 0 
( 0.00595491 -0.000358595 0.00799019 ) 0 
( 0.0132529 -0.00160744 0.00211385 ) 0 
( 0.00490997 -0.00261067 0.00756337 ) 0 
( 0.0130544 -0.00279443 0.000499756 ) 0 
( 0.00705325 -0.000194651 0.0056849 ) 0 
( 0.00984291 -0.00168655 0.00644125 ) 0 
( 0.006319 -0.00729264 0.00611226 ) 0 
( 0.0101991 -0.00861413 0.00131261 ) 0 
( 0.011319 -0.000256662 0.00252898 ) 0 
( 0.00732653 -0.0105149 0.00680357 ) 0 
( 0.000683504 -0.00270994 0.00751733 ) 0 
( 0.00463555 -0.00324276 0.00683886 ) 0 
( 0.00214387 -0.00485054 0.007975 ) 0 
( 0.0103913 -0.00838121 0.00268477 ) 0 
( 0.0030603 -0.0129914 0.000499663 ) 0 
( 0.00444398 -0.00569976 0.00255058 ) 0 
( 0.0124938 -0.000939293 0.00256369 ) 0 
( 0.00754698 -0.00926401 0.00344344 ) 0 
( 0.00128976 -0.00843168 0.00331471 ) 0 
( 0.0113719 -0.00699334 0.00141341 ) 0 
( 0.00601857 -0.00453107 0.00345352 ) 0 
( 0.00777057 -0.00228978 0.00547783 ) 0 
( 0.00684121 -0.010474 0.00593042 ) 0 
( 0.0068962 -0.00174528 0.000499798 ) 0 
( 0.00801614 -0.00149114 0.00485641 ) 0 
( 0.00421186 -0.012667 0.00508042 ) 0 
( 0.002349 -0.0052653 0.00205767 ) 0 
( 0.0102098 -0.00480852 0.000499676 ) 0 
( 0.00314064 -0.006009 0.00655937 ) 0 
( 0.00308159 -0.000443601 0.00213971 ) 0 
( 0.00539747 -0.00766133 0.00240422 ) 0 
( 0.00228089 -0.00583467 0.00319169 ) 0 
( 0.00939438 -0.00666989 0.00428747 ) 0 
( 0.00432422 -0.0080598 0.00161447 ) 0 
( 0.00822222 -0.00725047 0.0049883 ) 0 
( 0.000434186 -0.00482725 0.00629341 ) 0 
( 0.00113883 -0.00553128 0.00368855 ) 0 
( 0.0102423 -0.00195058 0.00383825 ) 0 
( 0.00147639 -0.00318724 0.00789496 ) 0 
( 0.0132923 -0.00124271 0.00412076 ) 0 
( 0.00246995 -0.0034266 0.00598691 ) 0 
( 0.00712952 -0.00256959 0.00218011 ) 0 
( 0.00330913 -0.00568844 0.0032477 ) 0 
( 0.00187445 -0.00828824 0.00730088 ) 0 
( 0.00609755 -0.00353297 0.00471685 ) 0 
( 0.00363783 -0.00507827 0.00568481 ) 0 
( 0.00611982 -0.00256359 0.00496126 ) 0 
( 0.00768039 -0.0108027 0.00256266 ) 0 
( 7.39668e-05 -0.0124797 0.0058109 ) 0 
( 0.00606545 -0.00438369 0.00135668 ) 0 
( 0.00379542 -0.000211614 0.00389524 ) 0 
( 0.013023 -0.00293867 0.00506246 ) 0 
( 0.00157239 -0.00995696 0.00383943 ) 0 
( 0.0124797 -0.00211344 0.00521525 ) 0 
( 0.000621531 -0.00646361 0.00485406 ) 0 
( 0.00446451 -0.0107931 0.0055441 ) 0 
( 0.0010903 -0.00653623 0.00337545 ) 0 
( 0.0100497 -0.00406251 0.00779234 ) 0 
( 0.0128179 -0.00373219 0.000753067 ) 0 
( 0.00959421 -0.0054518 0.00212441 ) 0 
( 0.00350271 -0.00422705 0.00359365 ) 0 
( 0.000780599 -0.0132351 0.00384419 ) 0 
( 0.00190048 -0.00939776 0.00566214 ) 0 
( 0.00703175 -0.011348 0.00313187 ) 0 
( 0.0027074 -0.0121635 0.00573911 ) 0 
( 0.00660086 -0.00194651 0.0028356 ) 0 
( 0.00461727 -0.0125262 0.00417726 ) 0 
( 0.0077249 -0.00546343 0.00705314 ) 0 
( 0.00133362 -0.00205547 0.00288761 ) 0 
( 0.00837564 -0.00436386 0.0034308 ) 0 
( 0.0126084 -0.00151607 0.00699577 ) 0 
( 0.00989138 -0.000751838 0.00309762 ) 0 
( 0.00875785 -0.0080469 0.00683223 ) 0 
( 0.00391801 -0.00354125 0.000499805 ) 0 
( 0.00390621 -0.00238053 0.000499805 ) 0 
( 0.00214469 -0.00761285 0.00661482 ) 0 
( 0.00628895 -0.00986551 0.00209274 ) 0 
( 0.00439956 -0.000435529 0.000499722 ) 0 
( 0.0054578 -0.00975325 0.0066224 ) 0 
( 0.000750307 -0.00218477 0.00838215 ) 0 
( 0.00281702 -0.00881926 0.00651957 ) 0 
( 0.00755429 -0.00204804 0.00705322 ) 0 
( 0.000497104 -0.00881573 0.00167356 ) 0 
( 0.0109973 -0.0048446 0.00558215 ) 0 
( 0.00559497 -0.00466072 0.000499731 ) 0 
( 0.000638047 -0.011611 0.00600163 ) 0 
( 0.00921392 -0.00721699 0.00511285 ) 0 
( 0.000409546 -0.00502016 0.00415219 ) 0 
( 0.000314044 -0.000603809 0.00338311 ) 0 
( 0.010407 -0.00835146 0.00465823 ) 0 
( 0.000341685 -0.00699866 0.000499683 ) 0 
( 0.000456719 -0.00279168 0.00132792 ) 0 
( 0.00466777 -0.00655639 0.00544646 ) 0 
( 0.0115479 -0.00122232 0.00240503 ) 0 
( 0.00330713 -0.00976076 0.00696088 ) 0 
( 0.00935118 -0.00795884 0.00128913 ) 0 
( 0.0101819 -0.00524623 0.00377195 ) 0 
( 0.00870756 -0.00119934 0.000499582 ) 0 
( 0.0105792 -0.00135815 0.00461237 ) 0 
( 0.00328663 -0.0107744 0.00393201 ) 0 
( 0.000823606 -0.00167868 0.00692267 ) 0 
( 0.00358978 -0.00203332 0.00138279 ) 0 
( 9.71302e-05 -0.00458066 0.000499733 ) 0 
( 0.00385756 -0.00743898 0.00702621 ) 0 
( 0.00320399 -0.00413418 0.00134065 ) 0 
( 0.011805 -0.00418014 0.00527137 ) 0 
( 0.00834258 -0.0104225 0.00190863 ) 0 
( 0.000839891 -0.0104587 0.00218779 ) 0 
( 6.40305e-06 -0.00733714 0.00501006 ) 0 
( 0.000656853 -0.00182554 0.00383639 ) 0 
( 0.00153507 -0.00262486 0.00550908 ) 0 
( 0.00962689 -0.00850682 0.000499644 ) 0 
( 0.000909108 -0.00751008 0.00323711 ) 0 
( 0.00414439 -0.00718617 0.00116288 ) 0 
( 0.00772289 -0.00295949 0.00667849 ) 0 
( 0.00105648 -0.0016198 0.000499748 ) 0 
( 0.00672942 -0.0038987 0.00310636 ) 0 
( 0.00942018 -0.00353684 0.00225992 ) 0 
( 0.00110783 -0.00926434 0.00467271 ) 0 
( 0.00310476 -0.00239674 0.00672223 ) 0 
( 0.00174655 -0.00156714 0.00464453 ) 0 
( 1.69853e-05 -0.00984029 0.000698016 ) 0 
( 0.0110383 -0.00384993 0.00299621 ) 0 
( 0.00242285 -0.000501481 0.00413896 ) 0 
( 0.0020601 -0.00273895 0.00466358 ) 0 
( 0.00306981 -0.0120614 0.00666565 ) 0 
( 0.00166698 -0.00749521 0.0050448 ) 0 
( 0.00523087 -0.00391118 0.00314193 ) 0 
( 0.00857141 -0.00334821 0.000499804 ) 0 
( 0.0107886 -0.00780532 0.00140676 ) 0 
( 0.00358473 -0.00651941 0.0050161 ) 0 
( 0.0112895 -0.00705003 0.00646093 ) 0 
( 0.00675139 -0.00604551 0.00448324 ) 0 
( 0.00988799 -0.00653823 0.00223837 ) 0 
( 0.00204912 -0.00801046 0.00409896 ) 0 
( 0.0121184 -0.00274589 0.00185687 ) 0 
( 0.0092389 -0.00451702 0.00218105 ) 0 
( 0.000911599 -0.00574361 0.00569306 ) 0 
( 0.00346816 -0.00368864 0.00655125 ) 0 
( 0.00555297 -0.00759896 0.00410015 ) 0 
( 0.00124231 -0.00245357 0.00644979 ) 0 
( 0.00825757 -0.000871346 0.00286571 ) 0 
( 0.0068155 -0.00510423 0.00483723 ) 0 
( 0.00156551 -0.000455748 0.000499806 ) 0 
( 0.00353505 -0.0121404 0.00166955 ) 0 
( 0.00896756 -0.00159245 0.0069148 ) 0 
( 0.00301975 -0.00974259 0.00408479 ) 0 
( 0.00622771 -0.00482745 0.00561446 ) 0 
( 0.00282177 -0.00240586 0.0008049 ) 0 
( 0.00685012 -0.00355514 0.00673916 ) 0 
( 0.000180804 -0.00309333 0.00225342 ) 0 
( 0.0100605 -0.00257425 0.00236869 ) 0 
( 0.0041125 -0.00632186 0.00338212 ) 0 
( 0.000791788 -0.00589593 0.00166928 ) 0 
( 0.00551906 -0.00586408 0.000499593 ) 0 
( 0.00315802 -0.00676087 0.00590051 ) 0 
( 0.0110315 -0.004219 0.000499772 ) 0 
( 0.000148184 -0.0110671 0.00414171 ) 0 
( 0.00100834 -0.00268132 0.000499797 ) 0 
( 0.00238279 -0.00785178 0.000499733 ) 0 
( 0.0106007 -0.000388141 0.00119513 ) 0 
( 0.000823717 -0.00893089 0.00672982 ) 0 
( 0.00697195 -0.00679417 0.00218047 ) 0 
( 0.00622103 -0.00157867 0.00465342 ) 0 
( 0.00899501 -0.0098648 0.00466153 ) 0 
( 0.00509789 -0.00722981 0.00604743 ) 0 
( 0.00362488 -0.0097313 0.00117676 ) 0 
( 0.00640067 -0.0107271 0.0046769 ) 0 
( 0.00740666 -0.00285703 0.00762142 ) 0 
( 0.00200118 -0.00479784 0.00698673 ) 0 
( 0.00702285 -0.00265149 0.00603435 ) 0 
( 0.00336592 -0.00264287 0.00270353 ) 0 
( 0.000357702 -0.0133453 0.00622335 ) 0 
( 0.00698019 -0.00428127 0.00598222 ) 0 
( 0.00258616 -0.00659021 0.00499981 ) 0 
( 0.0113219 -0.0030827 0.00235893 ) 0 
( 0.00650072 -0.0106399 0.0036859 ) 0 
( 0.00583718 -0.00137499 0.00252822 ) 0 
( 0.00816913 -0.00370942 0.00172429 ) 0 
( 0.0118101 -0.00237443 0.00452087 ) 0 
( 0.00215628 -0.0112515 0.00310006 ) 0 
( 0.00269522 -0.00158081 0.00631423 ) 0 
( 0.00354123 -0.00543002 0.00475353 ) 0 
( 0.00264515 -0.0120457 0.000499733 ) 0 
( 0.00641316 -0.0117087 0.00708196 ) 0 
( 0.00399726 -0.0117424 0.00423841 ) 0 
( 0.00396543 -0.00604455 0.00135972 ) 0 
( 0.000675258 -0.00669178 0.00236215 ) 0 
( 0.00381556 -0.00878904 0.00647394 ) 0 
( 0.00729345 -0.00384942 0.00758576 ) 0 
( 0.00549163 -0.0108282 0.00512778 ) 0 
( 0.00411717 -0.0126993 0.00225986 ) 0 
( 0.00173091 -0.00848526 0.00491961 ) 0 
( 0.00359229 -0.00892991 0.00743817 ) 0 
( 0.00350826 -0.00654326 0.00210633 ) 0 
( 0.000113894 -0.0105149 0.00755501 ) 0 
( 0.00244775 -0.00198699 0.00536011 ) 0 
( 0.00521473 -0.0113751 0.00591818 ) 0 
( 0.00293299 -0.000195494 0.00324774 ) 0 
( 0.00911279 -0.000864906 0.0021454 ) 0 
( 0.00155091 -0.00407148 0.00304107 ) 0 
( 0.00151562 -0.0097401 0.000990028 ) 0 
( 0.00854647 -0.0092954 0.00535024 ) 0 
( 0.00493415 -0.00933541 0.00380726 ) 0 
( 7.36418e-05 -0.000592089 0.00822672 ) 0 
( 0.00271726 -0.0110228 0.000499671 ) 0 
( 0.00233541 -0.00177056 0.00386038 ) 0 
( 0.0120013 -0.00376073 0.00325037 ) 0 
( 0.00160673 -0.00934287 0.00305083 ) 0 
( 0.0107315 -0.00151854 0.00308083 ) 0 
( 0.00140627 -0.0132024 0.00467351 ) 0 
( 0.0119646 -0.00592247 0.00551684 ) 0 
( 0.00392084 -0.00172302 0.00766478 ) 0 
( 0.00591052 -0.00371139 0.000499805 ) 0 
( 0.00704822 -0.011335 0.00197862 ) 0 
( 0.00268108 -0.0115614 0.00405028 ) 0 
( 0.00863473 -0.000733726 0.0052944 ) 0 
( 0.00606189 -0.00633177 0.00244524 ) 0 
( 0.00259164 -0.00897259 0.00507789 ) 0 
( 0.00760937 -0.00616738 0.00173238 ) 0 
( 0.00360922 -0.00449233 0.000499668 ) 0 
( 0.00128629 -0.00416079 0.00801825 ) 0 
( 0.000256974 -0.00671273 0.00145397 ) 0 
( 0.00246674 -0.00445324 0.00617113 ) 0 
( 0.000729615 -0.00913241 0.00375652 ) 0 
( 0.00627081 -0.000583741 0.00390261 ) 0 
( 0.0117588 -0.00548662 0.000499806 ) 0 
( 0.0122481 -0.00531247 0.00657342 ) 0 
( 0.005855 -0.0119441 0.000499664 ) 0 
( 0.00167456 -0.00433206 0.00136758 ) 0 
( 0.00986197 -0.00754595 0.004426 ) 0 
( 0.000455924 -0.00819855 0.00615712 ) 0 
( 0.00244192 -0.00936535 0.00726838 ) 0 
( 0.00608933 -0.0071586 0.00188359 ) 0 
( 0.000990363 -0.0114405 0.00179355 ) 0 
( 0.013302 -0.00113007 0.00123168 ) 0 
( 0.0058885 -0.00699503 0.00766014 ) 0 
( 0.011449 -0.00214521 0.00277701 ) 0 
( 0.00411529 -0.00983277 0.00206443 ) 0 
( 0.00482669 -0.0016016 0.000499709 ) 0 
( 0.00142946 -0.00082376 0.00716284 ) 0 
( 0.00402617 -0.00486815 0.00301288 ) 0 
( 0.00665868 -0.00534355 0.00637852 ) 0 
( 0.0112004 -0.00690722 0.00456009 ) 0 
( 0.000292449 -6.66243e-05 0.00118076 ) 0 
( 0.0120941 -0.00251633 0.000499816 ) 0 
( 0.00592367 -0.00327612 0.00279975 ) 0 
( 0.00099459 -0.0106801 0.00607994 ) 0 
( 0.00527386 -0.00819125 0.00625907 ) 0 
( 0.00995875 -0.00702995 0.00135337 ) 0 
( 0.0062147 -0.00816035 0.00659802 ) 0 
( 0.0107633 -0.00789576 0.00637274 ) 0 
( 0.0019592 -0.010279 0.00695234 ) 0 
( 0.0026492 -0.00198109 0.0017179 ) 0 
( 0.00184093 -0.00329043 0.00238859 ) 0 
( 0.00947641 -0.00194568 0.00183024 ) 0 
( 0.000368523 -0.0133205 0.00283154 ) 0 
( 0.00586613 -0.00694852 0.00331165 ) 0 
( 0.0049746 -0.00172058 0.00341119 ) 0 
( 0.00488204 -0.000761683 0.0054044 ) 0 
( 0.00715544 -0.00817799 0.00699859 ) 0 
( 0.00331527 -0.00950907 0.00599334 ) 0 
( 0.00777472 -0.000694486 0.00616327 ) 0 
( 0.00265872 -0.00326076 0.00695579 ) 0 
( 0.00342802 -0.00446882 0.00225611 ) 0 
( 0.0072402 -0.00302785 0.00412863 ) 0 
( 0.0049496 -0.0017788 0.00813652 ) 0 
( 0.00561263 -0.000588801 0.00628008 ) 0 
( 0.00691688 -0.000506656 0.00775685 ) 0 
( 0.00934037 -0.00250141 0.00672971 ) 0 
( 0.00535993 -0.00407236 0.0071987 ) 0 
( 0.00673562 -0.00578442 0.000499731 ) 0 
( 0.00346802 -0.0118089 0.00339179 ) 0 
( 0.00321893 -0.00154053 0.000499752 ) 0 
( 0.00159959 -0.000257972 0.00357564 ) 0 
( 0.0112339 -0.0020565 0.00376842 ) 0 
( 0.00815206 -0.0105722 0.00049965 ) 0 
( 0.00277608 -0.00340632 0.00498138 ) 0 
( 0.00834084 -0.00199362 0.00349522 ) 0 
( 0.00631082 -0.00359772 0.00569167 ) 0 
( 0.0095143 -0.00301466 0.000499591 ) 0 
( 0.00491363 -0.000946465 0.0069018 ) 0 
( 0.0108734 -0.00133399 0.0072546 ) 0 
( 0.00336676 -0.00160147 0.0023022 ) 0 
( 0.0027715 -0.0048518 0.00290719 ) 0 
( 0.00355383 -0.00749088 0.00525116 ) 0 
( 0.00617623 -0.00684176 0.00429617 ) 0 
( 0.00661641 -0.0106675 0.0012693 ) 0 
( 0.00490943 -0.00680234 0.00282671 ) 0 
( 0.0102564 -0.00459883 0.00295091 ) 0 
( 0.00660553 -0.00100031 0.00611402 ) 0 
( 0.0118543 -0.0036508 0.000499559 ) 0 
( 0.0047619 -0.00470545 0.00549441 ) 0 
( 0.010165 -0.00865447 0.00662976 ) 0 
( 0.00085835 -0.0103425 0.000499707 ) 0 
( 0.0015673 -0.00622581 0.00249162 ) 0 
( 0.00769712 -0.00354524 0.00331357 ) 0 
( 0.00690743 -0.00877511 0.00622128 ) 0 
( 0.00465775 -0.000309226 0.00338068 ) 0 
( 0.0021923 -0.00700759 0.00582034 ) 0 
( 0.000238931 -0.00916544 0.00549555 ) 0 
( 0.00267754 -0.00545124 0.00732613 ) 0 
( 0.0105568 -0.0057752 0.00227147 ) 0 
( 0.00354132 -0.00925255 0.00493763 ) 0 
( 0.012288 -0.00521871 0.00136778 ) 0 
( 0.00456487 -0.00220939 0.00124909 ) 0 
( 0.0117874 -0.0015802 0.00570063 ) 0 
( 0.00733948 -0.00445395 0.00367261 ) 0 
( 0.00147241 -0.00826527 0.000499718 ) 0 
( 0.00429394 -0.00904869 0.00147014 ) 0 
( 0.00570019 -0.00677532 0.00670328 ) 0 
( 0.00698583 -0.000985326 0.00118155 ) 0 
( 0.00809028 -0.0011737 0.00714784 ) 0 
( 0.0110243 -0.00577329 0.00521218 ) 0 
( 0.0126102 -0.000350304 0.00625867 ) 0 
( 0.00733323 -0.00168878 0.00614677 ) 0 
( 0.00763612 -0.00620335 0.00355817 ) 0 
( 0.00744751 -0.00702917 0.00421941 ) 0 
( 0.00638999 -0.00935682 0.000499571 ) 0 
( 0.00387411 -0.00911006 0.00400549 ) 0 
( 0.00864521 -0.00181648 0.00128382 ) 0 
( 0.00861061 -0.000519686 0.00122619 ) 0 
( 0.00291213 -0.00583453 0.00557146 ) 0 
( 0.012948 -0.0022671 0.00134256 ) 0 
( 0.00147869 -0.0116947 0.00693597 ) 0 
( 0.00283669 -0.00666587 0.00321861 ) 0 
( 0.00772206 -0.00606919 0.000499812 ) 0 
( 0.0018228 -0.00590652 0.00148887 ) 0 
( 0.00402269 -0.0127296 0.000565945 ) 0 
( 0.00143236 -0.00192352 0.00137516 ) 0 
( 0.000190735 -0.00459251 0.0072651 ) 0 
( 0.00124833 -0.00671569 0.00132356 ) 0 
( 0.00557663 -0.000316513 0.00483706 ) 0 
( 0.00862235 -0.00563145 0.00197226 ) 0 
( 0.00121576 -0.0112515 0.00274924 ) 0 
( 0.00700883 -0.00599819 0.00278518 ) 0 
( 0.00553774 -0.0121472 0.00427294 ) 0 
( 0.00398826 -0.00366285 0.00426187 ) 0 
( 0.0114698 -0.00523812 0.00194222 ) 0 
( 0.00212412 -0.00911662 0.000499663 ) 0 
( 0.00358045 -0.0072502 0.0028896 ) 0 
( 0.000446798 -0.0107521 0.00131356 ) 0 
( 0.0036256 -0.0128473 0.00693765 ) 0 
( 0.00254312 -0.00629425 0.00228433 ) 0 
( 0.000153109 -0.00725887 0.00599898 ) 0 
( 0.00199007 -0.0131155 0.00372253 ) 0 
( 0.00433223 -0.00480653 0.00459732 ) 0 
( 0.00524687 -0.00273203 0.00176048 ) 0 
( 0.00410711 -0.0098607 0.00549426 ) 0 
( 0.011085 -0.00536032 0.00335816 ) 0 
( 0.00609662 -0.00524014 0.00415427 ) 0 
( 0.00504622 -0.0123599 0.00596008 ) 0 
( 0.00113941 -0.00235754 0.00456278 ) 0 
( 0.00322508 -0.00195204 0.00344038 ) 0 
( 0.00710788 -0.00115817 0.00696379 ) 0 
( 0.0123833 -0.00156596 0.00438407 ) 0 
( 0.00181906 -0.00355118 0.00523734 ) 0 
( 0.00128779 -0.0070994 0.00665642 ) 0 
( 0.00364377 -0.00291987 0.00483688 ) 0 
( 0.0103053 -0.00848709 0.00564358 ) 0 
( 0.00497404 -0.00632403 0.00194176 ) 0 
( 0.0132662 -0.00149749 0.00518365 ) 0 
( 0.00218028 -0.00112184 0.00775204 ) 0 
( 1.02243e-05 -0.0015223 0.00312766 ) 0 
( 0.00489624 -0.00624037 0.00644381 ) 0 
( 0.00551777 -0.0050774 0.00495469 ) 0 
( 0.00155626 -0.0124361 0.00530711 ) 0 
( 0.000550335 -0.00260961 0.00533179 ) 0 
( 0.00790581 -0.00821638 0.00633777 ) 0 
( 0.00830337 -0.00468899 0.00187277 ) 0 
( 0.011021 -0.00309732 0.000499809 ) 0 
( 0.0067547 -0.00752329 0.0047452 ) 0 
( 0.00938269 -0.00642765 0.00570614 ) 0 
( 0.00164989 -0.0050628 0.00286967 ) 0 
( 0.00483938 -0.0114833 0.00474674 ) 0 
( 0.0107434 -0.000748992 0.00645428 ) 0 
( 0.00125525 -0.00974935 0.00634763 ) 0 
( 0.00196501 -0.00386563 0.00734633 ) 0 
( 0.00137901 -0.00735799 0.00767024 ) 0 
( 0.0117679 -0.00630387 0.00242613 ) 0 
( 0.00829782 -0.00726571 0.0059893 ) 0 
( 0.0107733 -0.00620174 0.00691779 ) 0 
( 0.0056697 -0.0120183 0.00525567 ) 0 
( 0.000239473 -0.00277406 0.00662383 ) 0 
( 0.00301192 -0.00270332 0.00770693 ) 0 
( 0.00476906 -0.00648612 0.000723757 ) 0 
( 0.00662633 -0.00890084 0.00397779 ) 0 
( 0.0117132 -0.000568216 0.000704174 ) 0 
( 0.00707675 -0.0112905 0.00770193 ) 0 
( 0.00928485 -0.00442555 0.000499517 ) 0 
( 0.00825601 -0.00727675 0.00218059 ) 0 
( 0.00762568 -0.00892891 0.00250459 ) 0 
( 0.00958171 -0.00929614 0.00250547 ) 0 
( 0.00359446 -0.00189586 0.00600596 ) 0 
( 0.00252549 -0.00081346 0.000499805 ) 0 
( 0.00871632 -0.00170777 0.00250941 ) 0 
( 0.00104046 -0.0113424 0.00377797 ) 0 
( 0.00933472 -0.00331294 0.00731323 ) 0 
( 0.0085872 -0.00549817 0.000499604 ) 0 
( 0.0123732 -0.00501353 0.00559543 ) 0 
( 0.00672312 -0.00232192 0.00130019 ) 0 
( 0.00177325 -0.00384566 0.000499652 ) 0 
( 0.00780961 -0.0108275 0.00598587 ) 0 
( 0.00958127 -0.00929658 0.00712624 ) 0 
( 0.000786454 -0.00944825 0.00244352 ) 0 
( 0.000598709 -0.0133368 0.0013812 ) 0 
( 0.00790968 -0.00523816 0.00324852 ) 0 
( 0.00278407 -0.00366135 0.00788191 ) 0 
( 0.00926894 -0.00857764 0.00314119 ) 0 
( 0.000979428 -0.00621682 0.000499778 ) 0 
( 0.00313022 -0.000858042 0.00792364 ) 0 
( 0.00168637 -0.0025217 0.00373992 ) 0 
( 0.00294871 -0.00170889 0.00743088 ) 0 
( 0.00755689 -0.00998727 0.00420923 ) 0 
( 0.0038502 -0.00604075 0.00585331 ) 0 
( 0.0101172 -0.00123284 0.00223215 ) 0 
( 0.00839934 -0.00206673 0.00758701 ) 0 
( 0.00859014 -0.00917645 0.00717943 ) 0 
( 0.0107576 -0.00502584 0.00460456 ) 0 
( 0.00297936 -0.00823773 0.00233886 ) 0 
( 0.00300312 -0.0115893 0.0023277 ) 0 
( 0.0016276 -0.0122947 0.000499637 ) 0 
( 0.0122006 -0.0054194 0.00263013 ) 0 
( 0.0045946 -0.00189296 0.0069431 ) 0 
( 0.00173161 -0.00974302 0.00196635 ) 0 
( 0.00136681 -0.0132632 0.00284316 ) 0 
( 0.0116705 -0.00648271 0.000499716 ) 0 
( 0.000601654 -0.000155361 0.00423124 ) 0 
( 0.0109481 -0.00763963 0.00530118 ) 0 
( 0.00203601 -0.00918409 0.00427271 ) 0 
( 0.00618366 -0.000814698 0.00712936 ) 0 
( 0.00650313 -0.011659 0.00120547 ) 0 
( 0.00386994 -0.00282929 0.00623546 ) 0 
( 0.00617643 -0.0118353 0.00330776 ) 0 
( 0.0109324 -0.00592631 0.00420659 ) 0 
( 0.00202318 -0.000422241 0.00243364 ) 0 
( 0.00758651 -0.00349771 0.0058469 ) 0 
( 0.0122343 -0.00272693 0.00298845 ) 0 
( 0.0108752 -0.00733197 0.0031351 ) 0 
( 0.00572662 -0.00317487 0.00744244 ) 0 
( 0.00546304 -0.0021915 0.00429913 ) 0 
( 0.0100919 -0.00545047 0.00125713 ) 0 
( 0.00669975 -0.00632048 0.00134298 ) 0 
( 0.00199025 -0.00286964 0.000499821 ) 0 
( 0.000895446 -0.00167309 0.00527281 ) 0 
( 0.00704853 -0.00223582 0.00478837 ) 0 
( 0.00742857 -0.00992508 0.00210912 ) 0 
( 0.00292733 -0.00575978 0.000499732 ) 0 
( 0.00539304 -0.003644 0.00137748 ) 0 
( 0.00142163 -0.00718223 0.00411741 ) 0 
( 0.00224879 -0.00626732 0.0069391 ) 0 
( 0.0024257 -0.00708443 0.00413227 ) 0 
( 0.00999483 -0.00233101 0.00106449 ) 0 
( 0.00108922 -0.00062188 0.00273005 ) 0 
( 0.00959896 -0.00587846 0.000499727 ) 0 
( 0.000994673 -0.0114332 0.000499806 ) 0 
( 0.00654158 -0.00431754 0.00428415 ) 0 
( 0.000353237 -0.00387473 0.00658598 ) 0 
( 0.00797655 -0.00268675 0.0028734 ) 0 
( 0.00873667 -0.0073586 0.00318403 ) 0 
( 0.00408228 -0.00545268 0.00387634 ) 0 
( 0.00797502 -0.007755 0.00377628 ) 0 
( 0.00571743 -0.00309123 0.00389956 ) 0 
( 0.0101382 -0.00674156 0.00495188 ) 0 
( 0.00280365 -0.00311189 0.00202126 ) 0 