FoamFile
{version 2.0; format ascii;class Cloud<passiveParticle>; location 0;object  positions;}
2522
(
( 0.0116187 -0.00457045 0.00479558 ) 0 
( 0.0017657 -0.0132329 0.00369788 ) 0 
( 0.00483096 -0.00857575 0.00161111 ) 0 
( 0.00967902 -0.00115085 0.00664137 ) 0 
( 0.00453417 -0.00404642 0.00616119 ) 0 
( 0.00520581 -0.00421908 0.000700792 ) 0 
( 0.0081875 -0.00249652 0.0042561 ) 0 
( 0.0018397 -0.0122175 0.00199128 ) 0 
( 0.00990446 -0.00111103 0.0027338 ) 0 
( 0.0118971 -0.00194068 0.000499712 ) 0 
( 0.00167424 -0.00679037 0.00147899 ) 0 
( 0.0108625 -0.00584064 0.00422669 ) 0 
( 0.000127889 -0.0123497 0.00498883 ) 0 
( 0.00702592 -0.00889418 0.00220581 ) 0 
( 0.000509068 -0.00734351 0.00216927 ) 0 
( 0.00639491 -0.00371586 0.00661896 ) 0 
( 0.00988093 -0.00548639 0.004671 ) 0 
( 0.00446175 -0.00958508 0.00682141 ) 0 
( 0.00166576 -0.00489798 0.00217309 ) 0 
( 0.00762013 -0.00393802 0.00599234 ) 0 
( 0.00835717 -0.00411191 0.00438364 ) 0 
( 0.00596186 -0.00057845 0.00396211 ) 0 
( 0.00147211 -0.00754144 0.0079424 ) 0 
( 0.0123987 -0.00374065 0.00550435 ) 0 
( 0.00901319 -0.00462278 0.00101704 ) 0 
( 0.00958514 -0.00487499 0.00298835 ) 0 
( 0.00309749 -0.00148731 0.00218271 ) 0 
( 0.00780906 -0.00651776 0.003562 ) 0 
( 0.00183277 -0.00607061 0.00785243 ) 0 
( 0.00608854 -0.00460975 0.0069485 ) 0 
( 0.00284873 -0.00181613 0.00049972 ) 0 
( 0.00759949 -0.00143038 0.00123845 ) 0 
( 0.00979491 -0.00291112 0.000499722 ) 0 
( 0.00705257 -0.00196769 0.000499701 ) 0 
( 0.00250002 -0.00994317 0.00689988 ) 0 
( 0.00956896 -0.00693576 0.00660303 ) 0 
( 0.000219504 -0.0117988 0.00140284 ) 0 
( 0.00274505 -0.0114897 0.00162618 ) 0 
( 0.00331348 -0.002025 0.00136795 ) 0 
( 0.00930887 -0.00262049 0.00530111 ) 0 
( 0.00176816 -0.00927766 0.00675491 ) 0 
( 0.0110512 -0.00240049 0.00507092 ) 0 
( 0.00254117 -0.00846974 0.000499851 ) 0 
( 0.00661432 -0.00102614 0.0062893 ) 0 
( 0.00759634 -0.00387532 0.00499092 ) 0 
( 0.00382621 -0.00864359 0.00141837 ) 0 
( 0.00132118 -0.000269754 0.0059799 ) 0 
( 0.00456154 -0.00745068 0.000499751 ) 0 
( 0.00621577 -0.0102318 0.00176214 ) 0 
( 0.0120046 -0.0039832 0.000499624 ) 0 
( 0.00287946 -0.00238751 0.00619303 ) 0 
( 0.00547662 -0.0017174 0.000859895 ) 0 
( 0.00438549 -0.00570641 0.00109923 ) 0 
( 0.00108115 -0.0123029 0.00134546 ) 0 
( 0.0101756 -0.000153132 0.00138239 ) 0 
( 0.0028951 -0.00900621 0.00138075 ) 0 
( 0.0103469 -0.00714992 0.00179842 ) 0 
( 0.00904781 -0.00574839 0.00704238 ) 0 
( 0.0129745 -0.00308782 0.002882 ) 0 
( 0.00251171 -0.00448886 0.00183121 ) 0 
( 0.00680181 -0.00638465 0.00770696 ) 0 
( 0.00835349 -0.00485942 0.00268108 ) 0 
( 0.00112103 -0.00270695 0.00704504 ) 0 
( 0.00854448 -0.00696722 0.00125687 ) 0 
( 0.0102754 -0.00851323 0.00379807 ) 0 
( 0.00228595 -0.00723096 0.00518265 ) 0 
( 0.00455203 -0.0125501 0.00514859 ) 0 
( 0.00680087 -0.00451493 0.00617552 ) 0 
( 0.00908122 -0.00167716 0.00329018 ) 0 
( 0.00650514 -0.00375657 0.00124405 ) 0 
( 0.00933812 -6.72601e-05 0.00222961 ) 0 
( 0.00393043 -0.00861527 0.00329245 ) 0 
( 0.0121243 -0.00550959 0.00608479 ) 0 
( 0.0045581 -0.00644579 0.00288954 ) 0 
( 0.00321618 -0.000358029 0.00608955 ) 0 
( 0.00365776 -0.00582954 0.00379019 ) 0 
( 0.00517796 -0.00828845 0.00750485 ) 0 
( 0.00911795 -0.00975127 0.00546062 ) 0 
( 0.00668177 -0.00368331 0.00453724 ) 0 
( 0.00421717 -0.00392298 0.0049438 ) 0 
( 0.00320432 -0.0109292 0.00672873 ) 0 
( 0.00368139 -0.00608611 0.000499573 ) 0 
( 0.00455598 -0.00746684 0.00587636 ) 0 
( 0.0115415 -0.00177664 0.00681952 ) 0 
( 0.00588418 -0.00351286 0.000499569 ) 0 
( 0.0103863 -0.00514596 0.00368594 ) 0 
( 0.00624298 -0.00241007 0.00319533 ) 0 
( 0.00530074 -0.00222442 0.00291659 ) 0 
( 0.0128783 -0.00277592 0.00141997 ) 0 
( 0.0051967 -0.000885327 0.00133852 ) 0 
( 0.00167902 -0.00096554 0.00424532 ) 0 
( 0.00880413 -0.00157702 0.00106281 ) 0 
( 0.00515192 -0.0116617 0.00295126 ) 0 
( 0.00100727 -0.00676581 0.00836912 ) 0 
( 0.00321681 -0.000657137 0.00163844 ) 0 
( 0.0118819 -0.00433275 0.00704206 ) 0 
( 0.00305525 -0.00802662 0.00126018 ) 0 
( 0.00223103 -0.00732953 0.00211077 ) 0 
( 0.00771637 -0.00642166 0.00112948 ) 0 
( 0.00240731 -0.0111164 0.00530553 ) 0 
( 0.00163205 -0.00471283 0.00855046 ) 0 
( 0.00857576 -0.00807004 0.00719332 ) 0 
( 0.00467881 -0.0125033 0.00737735 ) 0 
( 0.00730123 -0.00143753 0.00375961 ) 0 
( 0.00809001 -0.00299358 0.000499643 ) 0 
( 0.00197115 -0.00467602 0.00359723 ) 0 
( 0.00174054 -0.00557979 0.00698654 ) 0 
( 0.00299822 -0.00501708 0.00711153 ) 0 
( 0.00358354 -0.00705114 0.000741596 ) 0 
( 0.00709099 -0.00455641 0.00145811 ) 0 
( 0.00656523 -0.0084251 0.00105755 ) 0 
( 0.00119794 -0.00311713 0.00613254 ) 0 
( 0.00455176 -0.0115702 0.00375598 ) 0 
( 0.00737237 -0.00328067 0.00174051 ) 0 
( 0.00794147 -0.000138686 0.00468564 ) 0 
( 0.0108079 -0.00211503 0.00408062 ) 0 
( 0.00689977 -0.00686172 0.00554458 ) 0 
( 0.00820165 -0.0101249 0.00392011 ) 0 
( 0.00964207 -0.000318638 0.00729442 ) 0 
( 0.00778735 -0.00836379 0.00289346 ) 0 
( 0.00570094 -0.00436485 0.00324488 ) 0 
( 0.0110727 -5.16684e-05 0.00304309 ) 0 
( 0.000434923 -0.0121949 0.00789985 ) 0 
( 0.00201109 -0.00277673 0.00289418 ) 0 
( 0.0072552 -0.0112066 0.00702433 ) 0 
( 0.00709453 -0.0048405 0.000499605 ) 0 
( 0.00391602 -0.00279307 0.00328515 ) 0 
( 0.00229048 -0.0113108 0.00696454 ) 0 
( 0.00749097 -0.0105663 0.00610084 ) 0 
( 0.00408492 -0.00999505 0.00567113 ) 0 
( 0.00605166 -0.00879774 0.00737843 ) 0 
( 0.00685801 -0.0103668 0.000959598 ) 0 
( 0.00577836 -0.00967447 0.00563858 ) 0 
( 0.000659808 -0.0076278 0.00371353 ) 0 
( 0.00169444 -0.00909798 0.000499534 ) 0 
( 0.0116689 -0.00438047 0.00135356 ) 0 
( 0.0109294 -0.000920772 0.00566993 ) 0 
( 0.0016635 -0.00842583 0.0049037 ) 0 
( 0.00803768 -0.002751 0.00700275 ) 0 
( 0.00956696 -0.00931102 0.00623817 ) 0 
( 0.00450399 -0.00811905 0.00499913 ) 0 
( 0.0104772 -0.00418985 0.00112364 ) 0 
( 0.00257135 -0.00657086 0.00447908 ) 0 
( 0.00548298 -0.0085773 0.00392036 ) 0 
( 8.82279e-05 -0.00956439 0.00128914 ) 0 
( 0.00524191 -0.0122779 0.00127429 ) 0 
( 0.00323496 -0.00114937 0.00373585 ) 0 
( 0.012114 -0.00561056 0.00131259 ) 0 
( 0.0101169 -0.00368902 0.00383731 ) 0 
( 0.00901992 -0.00984225 0.00442041 ) 0 
( 0.00561803 -0.00797812 0.00661711 ) 0 
( 0.000448633 -0.00328533 0.00148649 ) 0 
( 0.000474817 -0.00420126 0.00482833 ) 0 
( 0.00629408 -0.00204914 0.00732024 ) 0 
( 0.00955793 -0.00381241 0.00123163 ) 0 
( 0.00740859 -0.00506195 0.00446511 ) 0 
( 0.00985676 -0.00898744 0.00533743 ) 0 
( 0.0107928 -0.0011928 0.00318555 ) 0 
( 0.0122182 -0.00184226 0.0045132 ) 0 
( 0.00302326 -0.0114432 0.000499846 ) 0 
( 0.00978067 -0.00543815 0.00115827 ) 0 
( 0.0112727 -0.00261875 0.00735524 ) 0 
( 0.00742062 -0.004131 0.00403369 ) 0 
( 0.0100712 -0.00564333 0.00576814 ) 0 
( 0.000930072 -0.00355157 0.00417577 ) 0 
( 0.0108362 -0.00112654 0.00186427 ) 0 
( 0.00147906 -0.00750075 0.00314359 ) 0 
( 0.00656695 -0.00601899 0.00680644 ) 0 
( 0.00265315 -0.0130444 0.000499853 ) 0 
( 0.00486057 -0.0114809 0.00485965 ) 0 
( 0.00474395 -0.00135414 0.00209684 ) 0 
( 0.0048454 -0.00303218 0.0020682 ) 0 
( 0.00830881 -0.000853501 0.00535356 ) 0 
( 0.0102299 -0.00709471 0.00733638 ) 0 
( 0.0110951 -0.00571079 0.00325586 ) 0 
( 0.00166587 -0.000115333 0.00371912 ) 0 
( 0.000585182 -0.0110095 0.00690608 ) 0 
( 0.010049 -0.00644923 0.00446041 ) 0 
( 0.00524508 -0.00586514 0.00334199 ) 0 
( 6.03516e-05 -0.0117441 0.0028979 ) 0 
( 0.0022854 -0.00102022 0.00852 ) 0 
( 0.00705254 -0.00592753 0.00384353 ) 0 
( 0.00145163 -0.0102161 0.00658293 ) 0 
( 0.0106629 -0.000466389 0.00386046 ) 0 
( 0.0110036 -0.000599618 0.00103122 ) 0 
( 0.000843425 -0.00981725 0.00553131 ) 0 
( 0.00143705 -0.00438672 0.00443368 ) 0 
( 0.0114355 -0.00445947 0.00312314 ) 0 
( 0.00485664 -0.00940185 0.00592143 ) 0 
( 0.00902949 -0.00547805 0.000499725 ) 0 
( 0.00392915 -0.0116931 0.00773366 ) 0 
( 0.00130065 -0.0009282 0.00326521 ) 0 
( 0.000138277 -0.0133493 0.00320931 ) 0 
( 0.00189206 -0.00385215 0.00612792 ) 0 
( 0.00662503 -0.00688967 0.0027312 ) 0 
( 0.00304522 -0.0119329 0.00675357 ) 0 
( 0.0104363 -0.00832511 0.00122394 ) 0 
( 0.00354344 -0.00909344 0.00414682 ) 0 
( 0.00155019 -0.0132598 0.00693889 ) 0 
( 0.0124958 -0.00469431 0.00323665 ) 0 
( 0.00991831 -0.00204234 0.00702574 ) 0 
( 0.0115157 -0.00289182 0.00273515 ) 0 
( 0.00658729 -0.0058046 0.00209031 ) 0 
( 0.00521835 -0.0100785 0.00154331 ) 0 
( 0.00475594 -0.00650283 0.00766419 ) 0 
( 0.00260253 -0.00219672 0.00713467 ) 0 
( 0.0124721 -0.0015753 0.00544476 ) 0 
( 0.00109915 -0.00383929 0.00200588 ) 0 
( 0.00118062 -0.0118087 0.00701896 ) 0 
( 0.00926731 -0.00070109 0.00580645 ) 0 
( 0.00923814 -0.00950961 0.000499746 ) 0 
( 0.0101019 -0.00233347 0.00476402 ) 0 
( 0.00916011 -0.000644146 0.00481346 ) 0 
( 0.00464288 -0.00116166 0.00586268 ) 0 
( 0.00339249 -0.0055302 0.00787339 ) 0 
( 0.00823678 -0.00185524 0.00200987 ) 0 
( 0.00251346 -0.00629911 0.00124648 ) 0 
( 0.00323201 -0.00741312 0.00491268 ) 0 
( 0.00472913 -0.0111939 0.00634141 ) 0 
( 0.00512002 -0.00680163 0.00389287 ) 0 
( 0.000440688 -0.00295953 0.00781605 ) 0 
( 0.00331063 -0.00171342 0.00892206 ) 0 
( 0.00846017 -0.00718327 0.00317928 ) 0 
( 0.00232698 -0.00832334 0.00216463 ) 0 
( 0.000346917 -0.00177606 0.00586602 ) 0 
( 0.000455724 -0.00454461 0.00798678 ) 0 
( 0.00592332 -0.0102091 0.00393209 ) 0 
( 0.000226631 -0.00302521 0.00368236 ) 0 
( 0.00411758 -0.000544727 0.00121973 ) 0 
( 0.00139837 -0.00861652 0.00321109 ) 0 
( 0.00928297 -0.00775858 0.00290898 ) 0 
( 0.00429073 -0.0105863 0.00357699 ) 0 
( 0.0080206 -0.00889579 0.00709715 ) 0 
( 0.00110838 -0.00583612 0.00539546 ) 0 
( 0.00599348 -0.0119292 0.00602337 ) 0 
( 0.000273621 -0.00842329 0.00129493 ) 0 
( 0.00805558 -0.00192604 0.000499616 ) 0 
( 0.0111748 -0.00454128 0.0004996 ) 0 
( 0.00576287 -0.0120372 0.00366525 ) 0 
( 0.00316171 -0.00796159 0.00728972 ) 0 
( 0.00145035 -0.00118147 0.00799459 ) 0 
( 0.0109755 -0.00589025 0.00612568 ) 0 
( 0.00201582 -0.000184586 0.00480059 ) 0 
( 0.00421435 -0.0126669 0.00384743 ) 0 
( 0.00954142 -0.00236318 0.00129677 ) 0 
( 0.0120586 -0.00347431 0.00151647 ) 0 
( 0.0056793 -0.0109911 0.00139445 ) 0 
( 0.0100224 -0.00757776 0.00598459 ) 0 
( 0.0100782 -0.00015288 0.00311227 ) 0 
( 0.00264513 -0.00224578 0.00505574 ) 0 
( 0.00477211 -0.00649467 0.00578685 ) 0 
( 0.00560841 -0.00106473 0.00610393 ) 0 
( 0.00835277 -0.0104142 0.00492575 ) 0 
( 0.00133394 -0.00456389 0.00547145 ) 0 
( 0.00382834 -0.00940205 0.00207001 ) 0 
( 0.0108859 -0.0043723 0.00712207 ) 0 
( 0.00165049 -0.00651309 0.00489789 ) 0 
( 0.00795368 -0.00134997 0.00714054 ) 0 
( 0.00631645 -0.0117615 0.0013976 ) 0 
( 0.000827082 -0.00940366 0.00644157 ) 0 
( 0.00750061 -0.00170375 0.00555812 ) 0 
( 0.0107607 -0.00312354 0.00435671 ) 0 
( 0.00297792 -0.00257209 0.00213467 ) 0 
( 0.0027512 -0.00133722 0.00660857 ) 0 
( 0.0102338 -0.00504293 0.0067696 ) 0 
( 0.00910283 -0.00890232 0.00702402 ) 0 
( 0.000591058 -0.00916294 0.00481886 ) 0 
( 0.00498105 -0.00517221 0.000499711 ) 0 
( 0.00126717 -0.00396083 0.00795018 ) 0 
( 0.00585078 -0.010525 0.00491715 ) 0 
( 0.00206702 -0.00645506 0.0027569 ) 0 
( 0.00987079 -0.00436664 0.00492589 ) 0 
( 0.00598864 -0.000892705 0.00705877 ) 0 
( 0.000208606 -0.0058784 0.00496139 ) 0 
( 0.00358415 -0.00391838 0.00123028 ) 0 
( 0.00630512 -0.00754735 0.00507444 ) 0 
( 0.0103491 -0.00320162 0.0012794 ) 0 
( 0.000726247 -0.0126984 0.00686246 ) 0 
( 0.00104982 -0.00506696 0.00371104 ) 0 
( 0.0032044 -0.0127382 0.00614683 ) 0 
( 0.0060894 -0.0024907 0.00049987 ) 0 
( 0.00602428 -0.00704301 0.00424499 ) 0 
( 0.00779084 -0.00903434 0.00363518 ) 0 
( 0.0126897 -0.00414561 0.00462299 ) 0 
( 0.00186594 -0.00979284 0.00390138 ) 0 
( 0.00337246 -0.00339676 0.00626339 ) 0 
( 0.0100197 -0.00337903 0.0049779 ) 0 
( 0.0083555 -0.0025026 0.00557855 ) 0 
( 0.00308381 -0.00369682 0.00848088 ) 0 
( 0.0026451 -0.00593608 0.00728509 ) 0 
( 0.0021069 -0.0108451 0.000499555 ) 0 
( 0.00674018 -0.00964692 0.00598822 ) 0 
( 0.00474678 -0.00704254 0.00490194 ) 0 
( 0.00696136 -0.00797952 0.00570048 ) 0 
( 0.0108006 -0.00401606 0.00503698 ) 0 
( 0.00429235 -0.00223239 0.00742358 ) 0 
( 0.0105785 -0.00676144 0.00643241 ) 0 
( 0.0044558 -0.00938595 0.00497035 ) 0 
( 0.00256936 -0.00327468 0.00567244 ) 0 
( 0.00422464 -0.0030216 0.00847116 ) 0 
( 0.00569798 -0.00337156 0.00309489 ) 0 
( 0.000141555 -0.0074286 0.00816722 ) 0 
( 0.0058541 -0.00938798 0.00659345 ) 0 
( 0.00270837 -0.00815533 0.00533993 ) 0 
( 0.0107348 -0.00649448 0.00275013 ) 0 
( 0.00164676 -0.00565463 0.000499793 ) 0 
( 0.00771864 -0.00606105 0.00564824 ) 0 
( 0.00955635 -0.00713772 0.00118664 ) 0 
( 0.0056729 -0.00282501 0.00393623 ) 0 
( 0.00885957 -0.00497703 0.00442431 ) 0 
( 0.00565102 -0.000109149 0.00639509 ) 0 
( 0.0124639 -0.001381 0.00366021 ) 0 
( 0.00370403 -0.00801366 0.000499654 ) 0 
( 0.0038865 -0.0120399 0.00314071 ) 0 
( 0.00790609 -0.00983911 0.00300866 ) 0 
( 0.000866336 -0.00654057 0.00293511 ) 0 
( 0.0021426 -0.0104232 0.00462648 ) 0 
( 0.0069424 -0.00953024 0.00345059 ) 0 
( 0.0108738 -0.0077133 0.00651497 ) 0 
( 0.0034992 -0.00446679 0.00206201 ) 0 
( 0.00671284 -0.00782282 0.00190575 ) 0 
( 0.00137184 -0.00747135 0.00483476 ) 0 
( 0.0103192 -0.00618008 0.00155696 ) 0 
( 0.0107219 -0.00795414 0.0074762 ) 0 
( 0.00201698 -0.00624615 0.00580038 ) 0 
( 0.000834746 -0.00513017 0.00474237 ) 0 
( 0.0105708 -0.00319503 0.00309564 ) 0 
( 0.0106983 -0.00491395 0.00460924 ) 0 
( 5.7987e-05 -0.00944701 0.00401411 ) 0 
( 0.00422984 -0.00413865 0.00049949 ) 0 
( 0.00585081 -0.00800305 0.000499668 ) 0 
( 0.000324573 -0.00108838 0.00307896 ) 0 
( 0.00715425 -0.00722195 0.00464273 ) 0 
( 0.00129011 -0.00247075 0.00801355 ) 0 
( 0.00352165 -0.00217806 0.00805801 ) 0 
( 0.00677695 -3.91004e-05 0.00196586 ) 0 
( 0.00146054 -0.0126774 0.000499607 ) 0 
( 0.00140471 -0.00782683 0.0018471 ) 0 
( 0.00603218 -0.000843891 0.00827053 ) 0 
( 0.00484841 -0.0115319 0.00049955 ) 0 
( 0.00310931 -0.00699813 0.00295116 ) 0 
( 0.0131808 -0.00211239 0.00590209 ) 0 
( 0.0124804 -0.00290466 0.00604692 ) 0 
( 0.00763891 -0.00963385 0.00642987 ) 0 
( 0.00436737 -0.00144752 0.0049449 ) 0 
( 0.00251723 -0.00302035 0.000499648 ) 0 
( 0.0112563 -0.000280986 0.00464855 ) 0 
( 0.00554086 -0.00382181 0.00155484 ) 0 
( 0.000829273 -0.00581063 0.00736694 ) 0 
( 0.00510342 -0.00281455 0.00747723 ) 0 
( 0.00835875 -2.63397e-05 0.00283077 ) 0 
( 0.0112187 -0.00618011 0.00112043 ) 0 
( 0.00675061 -0.0033168 0.00778853 ) 0 
( 0.00225936 -0.00516712 0.00781464 ) 0 
( 5.50776e-05 -0.00798873 0.00300359 ) 0 
( 0.00788828 -0.0101834 0.00126621 ) 0 
( 0.00539547 -0.00108169 0.00330652 ) 0 
( 0.00775041 -0.00328603 0.00779712 ) 0 
( 0.00389664 -0.00607936 0.00603315 ) 0 
( 0.00412825 -0.00270179 0.00126552 ) 0 
( 0.00281688 -0.0130304 0.00527266 ) 0 
( 0.00774757 -0.0063828 0.00728789 ) 0 
( 0.00648946 -0.00975563 0.00492281 ) 0 
( 0.00337815 -0.0034015 0.00509851 ) 0 
( 0.008869 -0.00515163 0.00782886 ) 0 
( 0.00247665 -0.00784539 0.00441709 ) 0 
( 0.00679436 -0.00657313 0.00148504 ) 0 
( 0.00209421 -0.00353444 0.00831621 ) 0 
( 0.00746454 -0.00560698 0.00165336 ) 0 
( 0.0100172 -0.00606981 0.00691512 ) 0 
( 0.00439966 -0.00190578 0.00648466 ) 0 
( 0.00681381 -0.00429217 0.00755963 ) 0 
( 0.00590082 -0.00556431 0.000499625 ) 0 
( 0.011899 -0.000894504 0.000499621 ) 0 
( 0.00275939 -0.01306 0.00699418 ) 0 
( 0.00331489 -0.00976589 0.00627057 ) 0 
( 0.00886539 -0.00322939 0.00731803 ) 0 
( 0.00139631 -0.00768359 0.000499692 ) 0 
( 0.00740966 -0.011105 0.00526248 ) 0 
( 0.00155335 -0.000464163 0.00730544 ) 0 
( 0.00352971 -0.00264338 0.00692436 ) 0 
( 0.000751932 -0.00439846 0.00702778 ) 0 
( 0.00369068 -0.00443098 0.00578626 ) 0 
( 0.00386886 -0.00509559 0.000499686 ) 0 
( 0.00110288 -0.0132941 0.00295177 ) 0 
( 0.00910224 -0.00709708 0.00207653 ) 0 
( 0.00446174 -0.011415 0.00141405 ) 0 
( 0.000872284 -0.00420219 0.00049974 ) 0 
( 0.00388204 -0.00833335 0.00655206 ) 0 
( 0.00456477 -0.00366533 0.00131391 ) 0 
( 0.00605876 -0.00850373 0.00476211 ) 0 
( 0.00673209 -0.000430578 0.00768632 ) 0 
( 0.0112298 -0.0035522 0.000961345 ) 0 
( 0.00559945 -0.011003 0.00587373 ) 0 
( 0.00526169 -0.00298778 0.00107937 ) 0 
( 0.00616467 -0.0044728 0.000499779 ) 0 
( 0.00754141 -0.00288893 0.00514512 ) 0 
( 0.00427233 -0.0059956 0.00507902 ) 0 
( 0.00350614 -0.000215092 0.00350447 ) 0 
( 0.0102976 -0.00730161 0.00496839 ) 0 
( 0.00604791 -0.00779541 0.00750124 ) 0 
( 0.00838563 -0.00569337 0.00127462 ) 0 
( 0.00444778 -0.00944006 0.00128609 ) 0 
( 0.0132839 -0.000930236 0.003307 ) 0 
( 0.0128205 -0.00371272 0.00364738 ) 0 
( 0.00153786 -0.00215417 0.0063177 ) 0 
( 0.00678292 -0.00889187 0.00533215 ) 0 
( 0.00198477 -0.0106335 0.00336502 ) 0 
( 0.0100322 -0.00269201 0.00382472 ) 0 
( 0.0050204 -0.00977944 0.00373035 ) 0 
( 0.0112365 -0.00557145 0.00191341 ) 0 
( 0.00195686 -0.00428981 0.000499586 ) 0 
( 0.002292 -0.0131516 0.00611505 ) 0 
( 0.0040266 -0.000815524 0.00424753 ) 0 
( 0.000869172 -0.00853351 0.000499685 ) 0 
( 0.0099336 -0.00662969 0.00567973 ) 0 
( 0.00343958 -0.00997457 0.00724026 ) 0 
( 0.000744482 -0.0107711 0.00496768 ) 0 
( 0.000427508 -0.00205781 0.00735628 ) 0 
( 0.00665943 -0.000610909 0.00324631 ) 0 
( 0.00581735 -0.0120159 0.000499808 ) 0 
( 0.00251552 -0.0121613 0.00486816 ) 0 
( 0.00222217 -0.00506763 0.00106902 ) 0 
( 0.00155825 -0.0112034 0.00629225 ) 0 
( 0.00560865 -0.00665386 0.00631076 ) 0 
( 0.00114093 -0.00565156 0.0025688 ) 0 
( 0.00407287 -0.0104662 0.00655292 ) 0 
( 0.00728563 -0.00824182 0.00476245 ) 0 
( 0.00656104 -6.76902e-05 0.00598279 ) 0 
( 0.00572961 -0.0098616 0.00300881 ) 0 
( 0.000852493 -0.000401212 0.00817681 ) 0 
( 0.00636851 -0.0116708 0.00692979 ) 0 
( 0.00388979 -0.0119007 0.000699193 ) 0 
( 0.0122565 -0.00280685 0.00352176 ) 0 
( 0.0100148 -0.00395998 0.00685546 ) 0 
( 0.0116144 -0.00357502 0.0046587 ) 0 
( 0.00370606 -0.00634189 0.00146563 ) 0 
( 0.0017831 -0.00964742 0.00582641 ) 0 
( 0.0073318 -0.0036354 0.00695901 ) 0 
( 0.00641911 -0.00173648 0.00559172 ) 0 
( 0.00485306 -0.0105028 0.00440017 ) 0 
( 0.00277304 -0.0096935 0.00436212 ) 0 
( 0.0104518 -0.00691148 0.000803844 ) 0 
( 0.00143043 -0.00366462 0.00700242 ) 0 
( 0.00414806 -0.00478651 0.00744435 ) 0 
( 0.00169382 -0.000351053 0.00902147 ) 0 
( 0.00320795 -0.00210411 0.00343968 ) 0 
( 0.00317107 -0.00300828 0.00125595 ) 0 
( 0.0017213 -0.0088136 0.00765075 ) 0 
( 0.00195497 -0.00385869 0.00512196 ) 0 
( 0.000991669 -0.011169 0.000499867 ) 0 
( 0.0113663 -0.00500872 0.00651574 ) 0 
( 0.0117159 -0.000811038 0.00314034 ) 0 
( 0.000601328 -0.00323979 0.000499508 ) 0 
( 0.00637764 -0.0114515 0.00523372 ) 0 
( 0.0107244 -0.00612981 0.00518786 ) 0 
( 0.00167516 -0.0104331 0.00130167 ) 0 
( 0.0110141 -0.00144633 0.000499741 ) 0 
( 0.00403239 -0.00328766 0.00417958 ) 0 
( 0.00824557 -0.000976828 0.00311999 ) 0 
( 0.00685619 -0.00409476 0.00320896 ) 0 
( 0.0083461 -0.00356778 0.00127708 ) 0 
( 0.00848568 -0.00631701 0.000499621 ) 0 
( 0.00314322 -0.00487557 0.00389908 ) 0 
( 0.0082834 -0.00774267 0.00629521 ) 0 
( 0.00156145 -0.0080171 0.0039968 ) 0 
( 0.0120219 -0.00259754 0.00521315 ) 0 
( 0.0095965 -0.00338032 0.00588383 ) 0 
( 0.00717882 -0.00923705 0.0044033 ) 0 
( 0.00676643 -0.00152139 0.0083061 ) 0 
( 0.00297054 -0.00310516 0.00337752 ) 0 
( 0.00105675 -0.00565778 0.00832855 ) 0 
( 0.00892661 -0.00733338 0.00405092 ) 0 
( 0.00480427 -0.0115012 0.00728991 ) 0 
( 0.00798402 -0.00542071 0.00742427 ) 0 
( 0.00583465 -0.0108189 0.00273845 ) 0 
( 0.00504037 -0.0123153 0.00430669 ) 0 
( 0.00994157 -0.00461945 0.00768366 ) 0 
( 0.0107107 -0.00210485 0.00635606 ) 0 
( 0.00596034 -0.00840431 0.00576915 ) 0 
( 0.0071666 -0.00551689 0.00804384 ) 0 
( 0.00887511 -0.00415475 0.00188972 ) 0 
( 0.00370715 -0.00734881 0.00656212 ) 0 
( 0.00674831 -0.00453362 0.00505909 ) 0 
( 0.0082832 -0.00666044 0.00443075 ) 0 
( 0.00282214 -0.0033287 0.00709546 ) 0 
( 0.00754788 -0.00204605 0.00773333 ) 0 
( 0.0114122 -0.00369279 0.00643462 ) 0 
( 0.00288253 -0.0105063 0.00378991 ) 0 
( 3.50614e-06 -0.011428 0.000499798 ) 0 
( 0.00953641 -0.00793779 0.00518839 ) 0 
( 0.00226589 -0.00540865 0.00295968 ) 0 
( 0.00205377 -0.0113927 0.00269779 ) 0 
( 0.0100744 -0.000668404 0.00521714 ) 0 
( 0.00121571 -0.00279092 0.00358722 ) 0 
( 0.0007309 -0.0082203 0.00451597 ) 0 
( 0.0112932 -0.00711956 0.00147708 ) 0 
( 0.0116929 -0.00644232 0.00209466 ) 0 
( 0.00749586 -0.00744765 0.00316847 ) 0 
( 0.0100376 -0.00172188 0.00357867 ) 0 
( 0.0106784 -0.00113905 0.00661274 ) 0 
( 0.00145968 -0.00833319 0.00664326 ) 0 
( 0.00767671 -0.000552188 0.00803649 ) 0 
( 0.00587294 -0.00834966 0.00177496 ) 0 
( 0.0116338 -0.00264094 0.00428824 ) 0 
( 0.0118541 -0.00594511 0.00414881 ) 0 
( 0.00770592 -0.00414012 0.00212767 ) 0 
( 0.000664716 -0.00191776 0.00166526 ) 0 
( 0.00167456 -0.00185888 0.00487008 ) 0 
( 0.0125377 -0.000122916 0.000558463 ) 0 
( 0.00314045 -0.00414429 0.00757751 ) 0 
( 0.00020736 -0.00118414 0.00116294 ) 0 
( 0.00499948 -0.0102724 0.00537693 ) 0 
( 0.00319345 -0.00937251 0.000499604 ) 0 
( 0.00853148 -0.000617623 0.00403495 ) 0 
( 0.00735305 -0.00304048 0.00416809 ) 0 
( 0.0102361 -0.00192623 0.00186791 ) 0 
( 0.00652661 -0.00325746 0.00364591 ) 0 
( 0.00993821 -0.00103158 0.00429532 ) 0 
( 0.0111797 -0.00367946 0.00195177 ) 0 
( 0.011691 -0.00439236 0.00577689 ) 0 
( 0.00936445 -0.00516791 0.00629254 ) 0 
( 0.00630354 -0.00150309 0.00379452 ) 0 
( 0.0074061 -0.00625724 0.00471883 ) 0 
( 0.00738191 -0.00105254 0.00213821 ) 0 
( 0.00479766 -0.0124528 0.00215278 ) 0 
( 0.00629604 -0.00736079 0.00112321 ) 0 
( 0.000243906 -0.0128545 0.00124797 ) 0 
( 0.00103229 -0.00923963 0.00123508 ) 0 
( 0.00887743 -0.00264584 0.00314843 ) 0 
( 0.00987892 -0.00469226 0.000499751 ) 0 
( 0.0103752 -0.00538209 0.00264399 ) 0 
( 0.00783377 -0.00920704 0.0055468 ) 0 
( 0.00327779 -0.00816182 0.0038994 ) 0 
( 0.0077722 -1.68599e-05 0.000499856 ) 0 
( 0.00384572 -0.0118248 0.00572898 ) 0 
( 0.000340853 -0.00265005 0.00635162 ) 0 
( 0.00504281 -0.00960349 0.000499556 ) 0 
( 0.0121328 -0.00376364 0.00292271 ) 0 
( 0.00735849 -0.00866847 0.000499804 ) 0 
( 0.00384023 -0.00256069 0.00597681 ) 0 
( 0.0114219 -0.00505198 0.00393328 ) 0 
( 0.000617685 -0.00986335 0.0020828 ) 0 
( 0.00404735 -0.0109338 0.000499678 ) 0 
( 0.0059245 -0.00288307 0.00691066 ) 0 
( 0.00739581 -0.0004497 0.00390332 ) 0 
( 0.00405912 -0.00521903 0.00447456 ) 0 
( 0.00620143 -0.00925772 0.0040644 ) 0 
( 0.00621965 -0.00740526 0.00606068 ) 0 
( 0.00480666 -0.00315453 0.00356087 ) 0 
( 0.0107522 -0.00218059 0.00303536 ) 0 
( 0.000854128 -0.0015605 0.000499786 ) 0 
( 0.00231032 -0.0100819 0.00218108 ) 0 
( 0.0094468 -0.00552932 0.00373822 ) 0 
( 0.00227707 -0.00507811 0.00525007 ) 0 
( 0.00372504 -0.00112851 0.000499683 ) 0 
( 0.00492231 -0.00426937 0.00707965 ) 0 
( 0.0091638 -0.00549036 0.00536762 ) 0 
( 0.00075696 -0.00525294 0.00650879 ) 0 
( 0.00906219 -0.00732161 0.0058303 ) 0 
( 0.00177804 -0.0114246 0.00138052 ) 0 
( 0.00835859 -0.00635416 0.00202454 ) 0 
( 0.0122731 -0.00525295 0.00704346 ) 0 
( 0.00091808 -0.00147182 0.00670448 ) 0 
( 0.0042129 -0.0126628 0.00613241 ) 0 
( 0.006576 -0.0026297 0.00517047 ) 0 
( 0.00586422 -0.0033138 0.00497859 ) 0 
( 0.0053747 -0.00182038 0.00398548 ) 0 
( 0.00356449 -0.0109755 0.00137399 ) 0 
( 0.00578348 -0.00639511 0.00216012 ) 0 
( 0.00510089 -0.0105834 0.000688434 ) 0 
( 0.00677813 -0.00948264 0.000499759 ) 0 
( 0.0109919 -0.00255642 0.00169169 ) 0 
( 0.00757603 -0.00247597 0.00118318 ) 0 
( 0.00487783 -0.00276751 0.00631545 ) 0 
( 0.00696315 -0.00130849 0.00726787 ) 0 
( 0.0059325 -0.00985757 0.000879233 ) 0 
( 0.0088527 -0.00429144 0.00333904 ) 0 
( 0.00991853 -0.00745971 0.00401627 ) 0 
( 0.00244431 -0.00440005 0.00443389 ) 0 
( 0.00869441 -0.000991229 0.00657283 ) 0 
( 0.00747261 -0.000427986 0.00136191 ) 0 
( 0.00568625 -0.00268252 0.0057333 ) 0 
( 0.0085472 -0.0102248 0.0022287 ) 0 
( 0.00803101 -0.00197268 0.00636199 ) 0 
( 0.0115303 -0.00187476 0.00218697 ) 0 
( 0.00339233 -0.00535787 0.00555908 ) 0 
( 0.0099926 -0.00885282 0.000499783 ) 0 
( 0.0132372 -0.00173268 0.00725603 ) 0 
( 0.00404419 -0.0119536 0.00452747 ) 0 
( 0.0096433 -0.00790023 0.00182735 ) 0 
( 0.0111171 -0.00739051 0.00297789 ) 0 
( 0.0120236 -0.00574592 0.00511853 ) 0 
( 0.00526152 -0.00577347 0.00157624 ) 0 
( 0.000674563 -0.00674213 0.00476637 ) 0 
( 0.0111711 -0.00518103 0.00544875 ) 0 
( 0.0040992 -0.00959766 0.00338652 ) 0 
( 0.0046601 -0.000300807 0.00710888 ) 0 
( 0.0132764 -0.000711202 0.00428258 ) 0 
( 0.0120384 -0.000569972 0.00406663 ) 0 
( 0.00210449 -0.00733076 0.00616096 ) 0 
( 0.00612773 -0.0103282 0.00638892 ) 0 
( 0.0036268 -0.0128447 0.00471646 ) 0 
( 0.00130108 -0.00899685 0.00413441 ) 0 
( 0.00814097 -0.00940749 0.0046159 ) 0 
( 0.011698 -6.21992e-05 0.00563478 ) 0 
( 0.00720949 -0.00583366 0.000499719 ) 0 
( 0.00477665 -0.00233357 0.000499568 ) 0 
( 0.00271812 -0.004263 0.00562565 ) 0 
( 0.00615149 -0.00895921 0.00309662 ) 0 
( 0.0069931 -0.00771442 0.000499634 ) 0 
( 0.000278582 -0.00732211 0.00621257 ) 0 
( 0.00325151 -0.00153602 0.00576602 ) 0 
( 0.0016896 -0.00531825 0.00602291 ) 0 
( 0.00773657 -0.00474697 0.00656839 ) 0 
( 0.00431989 -0.000605833 0.00800296 ) 0 
( 0.00575894 -0.00266907 0.00188615 ) 0 
( 0.00116048 -0.00994342 0.000499875 ) 0 
( 0.00657474 -0.00121975 0.0047489 ) 0 
( 0.00167433 -0.00314039 0.00158093 ) 0 
( 0.00807975 -0.00467678 0.00137134 ) 0 
( 0.0101066 -0.00871898 0.00728581 ) 0 
( 0.00254492 -0.000376551 0.00683036 ) 0 
( 0.0106189 -0.00148974 0.00490832 ) 0 
( 0.00640224 -0.00532118 0.00337005 ) 0 
( 0.00239144 -0.00372332 0.00119937 ) 0 
( 0.00359129 -0.00326356 0.00773623 ) 0 
( 0.00521783 -0.000919741 0.00769505 ) 0 
( 0.0088933 -0.0087226 0.00530072 ) 0 
( 0.00344176 -0.00940367 0.00516546 ) 0 
( 0.00458998 -5.32822e-05 0.00456624 ) 0 
( 0.00930164 -0.00157603 0.00192998 ) 0 
( 0.00616234 -0.00398012 0.00825078 ) 0 
( 0.00382906 -0.00106791 0.00643709 ) 0 
( 0.00155827 -0.00964393 0.00485209 ) 0 
( 0.0102116 -0.00613702 0.00352439 ) 0 
( 0.00167223 -0.00187387 0.00730827 ) 0 
( 0.00662537 -0.00270697 0.00138889 ) 0 
( 0.00577951 -0.00523471 0.00224031 ) 0 
( 0.00297951 -0.000363484 0.0051154 ) 0 
( 0.00465496 -0.0125126 0.000499698 ) 0 
( 0.00738951 -0.00639232 0.0022678 ) 0 
( 0.000233454 -0.00394058 0.00294957 ) 0 
( 0.00216689 -0.00758693 0.00112936 ) 0 
( 0.00893254 -0.00417077 0.00764723 ) 0 
( 0.00383431 -0.00760987 0.00326745 ) 0 
( 0.000113091 -0.00551632 0.00799967 ) 0 
( 0.0091871 -0.000681849 0.00328258 ) 0 
( 0.000421135 -0.00604184 0.000939914 ) 0 
( 0.00313643 -0.00373077 0.00414996 ) 0 
( 0.0115374 -0.00671676 0.00610278 ) 0 
( 0.00363535 -3.63913e-05 0.000499711 ) 0 
( 0.00469465 -0.00801886 0.00357146 ) 0 
( 4.26787e-05 -0.00535621 0.00407416 ) 0 
( 0.0107607 -0.00169628 0.00743873 ) 0 
( 0.0101007 -0.00464819 0.0058599 ) 0 
( 0.00661676 -0.000224157 0.00462965 ) 0 
( 0.00470618 -0.00688931 0.00139989 ) 0 
( 0.00152943 -0.00664802 0.000499854 ) 0 
( 0.000420137 -0.0124869 0.00593483 ) 0 
( 0.0024966 -0.0031538 0.00466424 ) 0 
( 0.00478842 -0.00210678 0.0055703 ) 0 
( 0.00226571 -0.0017009 0.00580334 ) 0 
( 0.00486942 -0.00894606 0.0031988 ) 0 
( 0.00159316 -0.0105547 0.00545148 ) 0 
( 0.00465329 -0.00234377 0.00444328 ) 0 
( 0.00500967 -0.0052388 0.00478444 ) 0 
( 0.00192619 -0.00220175 0.000499665 ) 0 
( 0.000613594 -0.0115976 0.00552059 ) 0 
( 0.00229551 -0.000881074 0.0034039 ) 0 
( 0.00354002 -0.0112441 0.00363728 ) 0 
( 0.00212227 -0.0131805 0.0077552 ) 0 
( 0.00205456 -0.00120882 0.000499649 ) 0 
( 0.00139533 -0.00448596 0.00130314 ) 0 
( 0.00355177 -0.00838841 0.00485593 ) 0 
( 0.00858076 -0.00318089 0.00487824 ) 0 
( 0.00261817 -0.00695527 0.000499578 ) 0 
( 0.000779677 -0.00854679 0.0021483 ) 0 
( 0.000614086 -0.00224634 0.00417564 ) 0 
( 0.00812231 -0.00191419 0.00344566 ) 0 
( 0.00123932 -0.00673639 0.00739698 ) 0 
( 0.0100553 -0.00878185 0.00205638 ) 0 
( 0.013329 -0.000191465 0.00263458 ) 0 
( 0.013092 -0.00243775 0.00410176 ) 0 
( 0.00553196 -0.00508822 0.00391431 ) 0 
( 0.00477654 -0.00990457 0.00270876 ) 0 
( 0.0100123 -0.0011359 0.00129773 ) 0 
( 0.00737029 -0.00205277 0.00462362 ) 0 
( 0.000689708 -0.00518528 0.000499731 ) 0 
( 0.00695138 -0.00302768 0.000499773 ) 0 
( 0.00331958 -0.0108161 0.00574201 ) 0 
( 0.00450786 -0.0078783 0.0022504 ) 0 
( 0.00453657 -0.0018388 0.00344043 ) 0 
( 0.00937077 -0.00950857 0.0021368 ) 0 
( 0.00488389 -0.00841775 0.00609481 ) 0 
( 0.00679994 -0.00926902 0.00691193 ) 0 
( 0.00459493 -0.00492177 0.00360743 ) 0 
( 0.00337538 -0.00660376 0.00714072 ) 0 
( 0.00294947 -0.00416928 0.00049966 ) 0 
( 0.00568081 -0.00371185 0.00741667 ) 0 
( 0.00139146 -0.0104715 0.00225966 ) 0 
( 0.00632381 -0.00697665 0.00695979 ) 0 
( 0.0027441 -0.000379454 0.00414362 ) 0 
( 0.0106812 -0.00305327 0.00667195 ) 0 
( 0.00597324 -0.00401707 0.00568135 ) 0 
( 0.00396623 -0.0109551 0.00449433 ) 0 
( 0.00560499 -0.0121047 0.00511891 ) 0 
( 0.00361692 -0.00611552 0.0028158 ) 0 
( 0.00611152 -0.00748754 0.00334667 ) 0 
( 0.000304028 -0.0111297 0.00412646 ) 0 
( 0.000151767 -0.00334623 0.00565438 ) 0 
( 0.0120226 -0.00497283 0.00207726 ) 0 
( 0.00246193 -0.012359 0.00122147 ) 0 
( 0.00579904 -0.00461876 0.00475669 ) 0 
( 0.00200553 -0.0118394 0.000499757 ) 0 
( 0.0118584 -0.000963076 0.00603788 ) 0 
( 0.00589242 -0.00197393 0.00640785 ) 0 
( 0.000750472 -0.0107128 0.00596583 ) 0 
( 0.00684246 -0.0114631 0.00807615 ) 0 
( 0.00794551 -0.00757586 0.00413609 ) 0 
( 0.000814684 -0.00923346 0.00761231 ) 0 
( 0.0125291 -0.00117035 0.0026824 ) 0 
( 0.0022365 -0.00697316 0.00362314 ) 0 
( 0.00874211 -0.000752992 0.00049973 ) 0 
( 0.00762239 -0.00108532 0.00464208 ) 0 
( 0.00364785 -0.0119117 0.00171526 ) 0 
( 0.00345585 -0.00991533 0.00129699 ) 0 
( 0.00309513 -0.00883846 0.00276917 ) 0 
( 2.56001e-05 -0.00855769 0.00540242 ) 0 
( 0.0077216 -0.00558725 0.00317869 ) 0 
( 0.00147957 -0.0108649 0.00734327 ) 0 
( 0.00663108 -0.010535 0.00554224 ) 0 
( 0.00390072 -0.00335045 0.00199177 ) 0 
( 0.0065681 -0.00787862 0.00416822 ) 0 