FoamFile
{version 2.0; format ascii;class Cloud<passiveParticle>; location 0;object  positions;}
2511
(
( 0.00588813 8.76087e-06 0.000499665 ) 0 
( 0.00607776 1.9157e-05 0.00563688 ) 0 
( 0.00232423 0.000196681 0.000499715 ) 0 
( 0.00112904 0.000129049 0.00720291 ) 0 
( 0.00908019 3.82219e-05 0.00582029 ) 0 
( 0.00931587 0.000110755 0.00480923 ) 0 
( 0.0124747 4.64698e-05 0.000499697 ) 0 
( 0.000857019 0.000705822 0.0014713 ) 0 
( 0.00683527 0.000156482 0.00178145 ) 0 
( 0.0100402 0.000111233 0.00554982 ) 0 
( 0.00918801 0.00032207 0.0106729 ) 0 
( 0.0123784 0.00020898 0.0144432 ) 0 
( 0.0011637 0.00011596 0.0139908 ) 0 
( 0.00256369 0.000508924 0.0148196 ) 0 
( 0.00573657 0.0013697 0.0148576 ) 0 
( 0.00664617 0.00104215 0.0146032 ) 0 
( 0.0089279 0.000263273 0.0135185 ) 0 
( 0.009464 0.000501961 0.0147366 ) 0 
( 0.0113695 8.54229e-05 0.0131595 ) 0 
( 0.0133381 0.00057562 0.00804318 ) 0 
( 0.00464498 0.000722363 0.0149463 ) 0 
( 0.00942458 0.00187581 0.0147365 ) 0 
( 0.0100248 0.00039429 0.0112157 ) 0 
( 0.0078932 4.57187e-05 0.00927524 ) 0 
( 0.0072653 0.00574846 0.0153276 ) 0 
( 0.00403491 0.00837822 0.0147064 ) 0 
( 0.00830564 0.000298297 0.0150317 ) 0 
( 0.0020335 0.00079647 0.0131151 ) 0 
( 0.00215292 0.000252239 0.013945 ) 0 
( 0.0119386 0.00106073 0.014156 ) 0 
( 0.0114669 0.00026736 0.0148498 ) 0 
( 0.0104893 6.48816e-05 0.0146301 ) 0 
( 0.00236661 0.000172839 0.00919616 ) 0 
( 0.00346139 0.00372788 0.00263015 ) 0 
( 0.00173126 0.0054296 0.00803593 ) 0 
( 0.00019579 0.0127356 0.00578125 ) 0 
( 0.00704199 0.0050477 0.002128 ) 0 
( 0.00682136 0.00471361 0.00541827 ) 0 
( 0.00899737 0.00551605 0.00682065 ) 0 
( 0.000399003 0.0133421 0.0036182 ) 0 
( 0.0061929 0.00338027 0.00437837 ) 0 
( 0.00548464 0.0121411 0.00486675 ) 0 
( 0.0103121 0.00530786 0.0057105 ) 0 
( 0.000908206 0.00729148 0.00458734 ) 0 
( 0.00713067 0.0103232 0.000499677 ) 0 
( 0.00640005 0.00978467 0.00162063 ) 0 
( 0.00233087 0.0122964 0.00422946 ) 0 
( 0.0018744 0.00314025 0.000499729 ) 0 
( 0.00443942 0.0076097 0.00183631 ) 0 
( 0.0107569 0.00374437 0.00389136 ) 0 
( 0.0113117 0.00532408 0.0057375 ) 0 
( 0.00472548 0.00334279 0.00423035 ) 0 
( 0.00823843 0.00271968 0.00686443 ) 0 
( 0.00880151 0.00265027 0.00495907 ) 0 
( 0.00261581 0.0100303 0.00635535 ) 0 
( 0.00723794 0.00683124 0.00119205 ) 0 
( 0.00675398 0.00463849 0.00422248 ) 0 
( 0.00555826 0.00769211 0.00330433 ) 0 
( 0.00373559 0.0128074 0.00588733 ) 0 
( 0.00254388 0.00798495 0.00306371 ) 0 
( 0.0116718 0.00437901 0.000499664 ) 0 
( 0.00106835 0.00226821 0.00340449 ) 0 
( 0.00529992 0.00687567 0.00465907 ) 0 
( 0.0109976 0.00372514 0.000842263 ) 0 
( 0.00934898 0.0022051 0.00425062 ) 0 
( 0.00274768 0.00147486 0.00638039 ) 0 
( 0.00680876 0.000160959 0.00855335 ) 0 
( 0.000864226 0.00604501 0.00484044 ) 0 
( 0.00184809 0.00814637 0.0079478 ) 0 
( 0.00156774 0.00795366 0.0027727 ) 0 
( 0.00906107 0.0098039 0.00432613 ) 0 
( 0.0128601 0.00357916 0.00668325 ) 0 
( 0.0025651 0.00710566 0.00130574 ) 0 
( 0.00991973 0.00319515 0.00554723 ) 0 
( 0.00275288 0.000680393 0.00126261 ) 0 
( 0.00723147 0.00569573 0.00583846 ) 0 
( 0.00581911 0.00470483 0.00579491 ) 0 
( 0.000680141 0.000354314 0.00251788 ) 0 
( 0.00117015 0.00587738 0.0057776 ) 0 
( 0.00871039 0.00129407 0.00699919 ) 0 
( 0.00144831 0.0118639 0.00450381 ) 0 
( 0.00297952 0.00799186 0.00412905 ) 0 
( 0.00749151 0.00212784 0.00562583 ) 0 
( 0.00899798 0.00986206 0.00776463 ) 0 
( 0.0121059 0.00409601 0.00220364 ) 0 
( 0.00570009 0.00818792 0.00656481 ) 0 
( 0.00295791 0.00708124 0.0028938 ) 0 
( 0.00806172 0.000550955 0.0073336 ) 0 
( 0.0100205 0.00525501 0.00312269 ) 0 
( 0.000337472 0.00372104 0.0063439 ) 0 
( 0.0027242 0.000984585 0.00550756 ) 0 
( 0.00399003 0.0101407 0.00327448 ) 0 
( 0.00356793 0.0021478 0.00194292 ) 0 
( 0.00579002 0.00505519 0.00366324 ) 0 
( 0.00825399 0.00136061 0.00788742 ) 0 
( 0.00315974 0.0123671 0.00518188 ) 0 
( 0.00137976 0.00887541 0.00341598 ) 0 
( 0.000905012 0.0122844 0.00523994 ) 0 
( 0.0059001 0.00416962 0.00319862 ) 0 
( 0.00779242 0.00286775 0.00502309 ) 0 
( 0.00190477 0.00999481 0.000499807 ) 0 
( 0.00907772 0.00847437 0.00415613 ) 0 
( 0.00492382 0.00494347 0.00814132 ) 0 
( 0.00939811 8.05357e-05 0.00230322 ) 0 
( 0.0047673 0.00722441 0.00713111 ) 0 
( 0.0022298 0.00522297 0.00719466 ) 0 
( 0.0102456 0.00853242 0.00386825 ) 0 
( 0.00471161 0.00121794 0.00603684 ) 0 
( 0.00693535 0.00360064 0.00755834 ) 0 
( 0.00695036 0.00667372 0.00426529 ) 0 
( 0.000789375 0.00773912 0.00652454 ) 0 
( 0.00638899 0.00641711 0.00206951 ) 0 
( 0.000618646 0.00283677 0.0026724 ) 0 
( 0.0118819 0.00608404 0.0060507 ) 0 
( 0.00092666 0.0012779 0.00487889 ) 0 
( 0.00711661 0.0102328 0.00725461 ) 0 
( 0.00105143 0.00292501 0.00170132 ) 0 
( 0.00804405 0.0106545 0.00198127 ) 0 
( 0.00458347 0.00345358 0.00609347 ) 0 
( 0.00359724 0.0113901 0.00725106 ) 0 
( 0.0111467 0.0013408 0.0044556 ) 0 
( 0.000757289 0.0133287 0.000499716 ) 0 
( 0.00218203 0.000638893 0.00627324 ) 0 
( 0.000566572 0.00912939 0.00280831 ) 0 
( 0.00673553 0.000696804 0.000499775 ) 0 
( 0.00497792 0.00197709 0.00663055 ) 0 
( 0.00334292 0.00512853 0.00128811 ) 0 
( 0.000883447 0.00454497 0.00619247 ) 0 
( 0.000903975 0.00339078 0.000499701 ) 0 
( 0.0114691 0.00291114 0.000499653 ) 0 
( 0.00469151 0.0115044 0.0060448 ) 0 
( 0.00318856 0.00565134 0.00732854 ) 0 
( 0.00266608 0.00113448 0.00313504 ) 0 
( 0.00841299 0.00247642 0.00132726 ) 0 
( 0.00648177 0.00661481 0.00591725 ) 0 
( 0.0122769 0.005221 0.00381438 ) 0 
( 0.00254136 0.0113888 0.00303566 ) 0 
( 0.00452011 0.000959613 0.00218096 ) 0 
( 0.00259475 0.0112106 0.000499522 ) 0 
( 0.0123598 0.00504175 0.00479457 ) 0 
( 0.000873517 0.00792775 0.0020122 ) 0 
( 0.00454883 0.00908284 0.00507367 ) 0 
( 0.0026789 0.00548379 0.00458051 ) 0 
( 0.00325421 0.00940528 0.00314716 ) 0 
( 0.00492418 0.00947527 0.0025779 ) 0 
( 0.00370654 0.00962071 0.0052023 ) 0 
( 0.00317178 0.00431596 0.00187489 ) 0 
( 0.00641208 0.010706 0.00564357 ) 0 
( 0.0110866 0.00741948 0.00487094 ) 0 
( 0.00707183 0.00103282 0.00220136 ) 0 
( 0.00702745 0.00848308 0.00400797 ) 0 
( 0.0108955 0.00532379 0.00138855 ) 0 
( 0.00944332 0.00812794 0.0050375 ) 0 
( 0.0129462 0.0032494 0.00240962 ) 0 
( 0.000454044 0.00898159 0.00382459 ) 0 
( 0.00391592 0.0127073 0.000499942 ) 0 
( 0.00877849 0.0100579 0.0023047 ) 0 
( 0.00197876 0.00916408 0.00118232 ) 0 
( 0.00617212 0.00536129 0.00473478 ) 0 
( 0.00685758 0.00381139 0.00498863 ) 0 
( 0.00790376 0.00719339 0.00206216 ) 0 
( 0.000378564 0.0106819 0.00669371 ) 0 
( 8.01364e-05 0.00173875 0.00666512 ) 0 
( 0.0124626 0.00426902 0.00542386 ) 0 
( 0.0104395 0.00189371 0.00147144 ) 0 
( 0.0119772 0.000866769 0.000780732 ) 0 
( 0.0111736 0.0019561 0.00049971 ) 0 
( 0.00558228 0.000826615 0.00737301 ) 0 
( 0.00879467 0.00043138 0.00393456 ) 0 
( 0.0100603 0.0019902 0.00239202 ) 0 
( 0.00177588 0.00782322 0.00666373 ) 0 
( 0.00804741 0.00868262 0.00378903 ) 0 
( 0.00862368 0.006342 0.0023472 ) 0 
( 0.00652796 0.00276552 0.0061132 ) 0 
( 0.00593652 0.00398324 0.00149694 ) 0 
( 0.000690764 0.00314507 0.00560393 ) 0 
( 0.00862295 0.00443993 0.00521011 ) 0 
( 0.00226324 0.0123048 0.000499734 ) 0 
( 0.0122203 0.00456814 0.00131462 ) 0 
( 0.00628446 0.00343115 0.0068186 ) 0 
( 0.00456744 0.00803984 0.00767362 ) 0 
( 0.00893688 0.0074956 0.00430562 ) 0 
( 0.00611511 0.00223837 0.00412886 ) 0 
( 0.000969333 0.00413085 0.00426252 ) 0 
( 0.0104969 0.00674318 0.00266023 ) 0 
( 0.00401011 0.00360203 0.00709244 ) 0 
( 0.000243531 0.00455069 0.00705028 ) 0 
( 0.00358962 0.00535746 0.00392805 ) 0 
( 0.0120209 0.00118927 0.00399433 ) 0 
( 0.00222752 0.00134248 0.0045636 ) 0 
( 0.00854005 0.00899422 0.0017004 ) 0 
( 0.00322232 0.0108688 0.00392059 ) 0 
( 0.00230851 0.012248 0.00661954 ) 0 
( 0.0103824 0.00839236 0.00141366 ) 0 
( 0.00268611 0.00411318 0.00328923 ) 0 
( 0.000788573 0.0119585 0.00316164 ) 0 
( 0.00166473 0.00610519 0.00327348 ) 0 
( 0.00368699 0.00274937 0.0027498 ) 0 
( 0.00503728 0.00012858 0.00583212 ) 0 
( 0.0064552 0.000331284 0.00746665 ) 0 
( 0.00755915 0.000686344 0.00133952 ) 0 
( 0.00999627 0.00532649 0.000499793 ) 0 
( 0.0064726 0.00480643 0.00130995 ) 0 
( 0.00175359 0.0123549 0.00140936 ) 0 
( 0.00631724 0.0117608 0.00239185 ) 0 
( 0.00435364 0.00883205 0.00308849 ) 0 
( 0.0051612 0.0113692 0.00392138 ) 0 
( 0.0031774 0.0103583 0.00477945 ) 0 
( 0.00301728 0.0111228 0.00198701 ) 0 
( 0.00389689 0.00598342 0.00670584 ) 0 
( 0.00987169 0.00705067 0.00608707 ) 0 
( 0.00463181 0.00298221 0.00521296 ) 0 
( 0.00321401 0.0119954 0.000499772 ) 0 
( 0.00270207 0.00423286 0.00430035 ) 0 
( 0.0046785 0.00958542 0.00374104 ) 0 
( 0.00392632 0.00350989 0.00352062 ) 0 
( 0.00944096 0.000986696 0.00580469 ) 0 
( 0.00400764 0.0108709 0.00455983 ) 0 
( 0.00474878 0.00434884 0.000499806 ) 0 
( 0.003459 0.00838757 0.00304362 ) 0 
( 0.00347618 0.00777177 0.00218215 ) 0 
( 0.00807527 0.0052106 0.00739374 ) 0 
( 0.0074183 0.0083886 0.00684316 ) 0 
( 0.00287204 0.00237563 0.00462665 ) 0 
( 0.000214504 0.00158379 0.00769322 ) 0 
( 0.00704521 0.00826398 0.00584598 ) 0 
( 0.00926307 0.00961345 0.00529038 ) 0 
( 0.0107262 0.00078793 0.00708732 ) 0 
( 0.00406095 0.00279757 0.00768668 ) 0 
( 0.0108835 0.00267973 0.00681326 ) 0 
( 0.00400936 0.0110471 0.00208668 ) 0 
( 0.0056325 0.000195916 0.00397163 ) 0 
( 0.00804504 0.00973619 0.00109028 ) 0 
( 0.00681694 0.00892143 0.00190508 ) 0 
( 0.00508846 0.00567534 0.00133577 ) 0 
( 0.00705662 0.00226005 0.0047242 ) 0 
( 0.00303317 0.00172685 0.00121005 ) 0 
( 0.000259379 0.00652022 0.00420157 ) 0 
( 0.00358787 0.0119617 0.00166009 ) 0 
( 0.00328523 0.0038875 0.00779577 ) 0 
( 0.0106572 0.00630881 0.00753397 ) 0 
( 0.00479643 0.005678 0.00230271 ) 0 
( 0.00317271 0.000569321 0.00638898 ) 0 
( 0.000524994 0.00264089 0.00662411 ) 0 
( 0.012037 0.00372063 0.00470444 ) 0 
( 0.00888715 0.00734866 0.00532656 ) 0 
( 0.00529811 0.00677468 0.00244019 ) 0 
( 0.0100603 0.00243378 0.00491492 ) 0 
( 0.00750185 0.00750219 0.000499531 ) 0 
( 0.00197898 0.00800174 0.00407998 ) 0 
( 0.0114621 5.64956e-05 0.00144339 ) 0 
( 0.00159508 0.00350501 0.0047288 ) 0 
( 0.00640164 0.00800464 0.00512589 ) 0 
( 0.00359978 0.00123168 0.00266407 ) 0 
( 0.00816426 0.00431181 0.0069647 ) 0 
( 0.0133215 0.000873136 0.00430971 ) 0 
( 0.00281849 0.0130491 0.00218229 ) 0 
( 0.0105089 0.00369697 0.0049141 ) 0 
( 0.00974781 0.00430946 0.000499596 ) 0 
( 0.00442708 0.00532878 0.00736209 ) 0 
( 0.00948889 0.00884085 0.0014245 ) 0 
( 0.0067272 0.0050134 0.00636755 ) 0 
( 0.010652 0.00628933 0.00147848 ) 0 
( 0.00440161 0.00386475 0.00153474 ) 0 
( 3.11934e-05 0.00818816 0.00426297 ) 0 
( 0.00194899 0.00702068 0.00278928 ) 0 
( 0.00303145 0.00471093 0.00511432 ) 0 
( 0.0133501 5.14487e-05 0.00136635 ) 0 
( 0.00514975 0.00355112 0.000950307 ) 0 
( 0.00605191 0.00834537 0.00219273 ) 0 
( 0.00560408 0.0121166 0.00585924 ) 0 
( 0.00111812 0.00932117 0.00195181 ) 0 
( 0.00929511 0.00920234 0.0023365 ) 0 
( 0.00220793 0.0107961 0.00379454 ) 0 
( 0.00195354 0.0112698 0.0063145 ) 0 
( 0.00449816 0.0116192 0.00142816 ) 0 
( 0.00174326 0.00503441 0.00634196 ) 0 
( 0.00805294 0.00793804 0.0044567 ) 0 
( 0.00123762 0.00994853 0.00491464 ) 0 
( 0.00310477 0.00724979 0.00480331 ) 0 
( 0.00167964 0.00073616 0.00541282 ) 0 
( 0.01335 3.70597e-05 0.00570848 ) 0 
( 0.0034686 0.000545611 0.00194777 ) 0 
( 0.0119371 0.00177419 0.00182831 ) 0 
( 0.0105915 4.09273e-05 0.0031717 ) 0 
( 0.00229633 0.000434939 0.00377369 ) 0 
( 0.00731142 0.00764993 0.00351535 ) 0 
( 0.00867285 0.00813542 0.00219505 ) 0 
( 0.0112516 0.0052683 0.00386101 ) 0 
( 0.00403669 0.00790918 0.00376184 ) 0 
( 0.00452526 0.0120232 0.00311764 ) 0 
( 0.00988356 0.000382059 0.00744015 ) 0 
( 0.00965712 0.00800636 0.00234505 ) 0 
( 0.00428415 0.00627392 0.000499731 ) 0 
( 0.00401469 0.0089894 0.00591377 ) 0 
( 0.0112337 0.00440821 0.00506099 ) 0 
( 0.0133387 0.000549883 0.000499733 ) 0 
( 0.00175965 0.00546292 0.004034 ) 0 
( 0.0079692 0.00516683 0.00541908 ) 0 
( 5.11287e-05 0.00402536 0.00470434 ) 0 
( 0.00166266 0.00335235 0.00571473 ) 0 
( 0.000431379 0.00136507 0.00209109 ) 0 
( 0.000665012 0.0115617 0.000499807 ) 0 
( 0.00507364 0.00842832 0.00377718 ) 0 
( 0.0100337 0.00345314 0.00325872 ) 0 
( 0.000405297 0.01218 0.00658547 ) 0 
( 0.00861481 0.00906561 0.000499782 ) 0 
( 0.00880914 0.000449355 0.00137107 ) 0 
( 0.00222545 0.00182536 0.00715764 ) 0 
( 0.00758585 0.00859077 0.00506881 ) 0 
( 0.00182955 0.00396082 0.00378199 ) 0 
( 0.000149913 0.00953914 0.00559749 ) 0 
( 0.00127234 0.0033024 0.00668491 ) 0 
( 0.00389477 0.00518706 0.00212028 ) 0 
( 0.000895473 0.00096109 0.00807825 ) 0 
( 0.00319614 0.00661288 0.00630864 ) 0 
( 0.00173865 0.0130791 0.00553316 ) 0 
( 0.00710445 0.00762802 0.00452114 ) 0 
( 0.00649947 0.000984986 0.00599489 ) 0 
( 0.00251766 0.00375763 0.00136475 ) 0 
( 0.00818891 0.00598295 0.00646255 ) 0 
( 0.00563115 0.00179944 0.00488841 ) 0 
( 0.000924913 0.0105219 0.0056728 ) 0 
( 0.00772023 0.0013087 0.0049918 ) 0 
( 0.00571708 0.00300789 0.00156896 ) 0 
( 0.00654283 0.00183536 0.00547077 ) 0 
( 0.00221056 0.0104709 0.00715591 ) 0 
( 0.00204068 0.00264949 0.00511223 ) 0 
( 0.0110752 0.00745415 0.00727853 ) 0 
( 0.00694956 0.00200793 0.0020165 ) 0 
( 5.52572e-05 0.00500053 0.00811506 ) 0 
( 0.00201277 0.00989408 0.005544 ) 0 
( 0.00738187 0.0107636 0.00402455 ) 0 
( 0.00167008 0.000835666 0.000904 ) 0 
( 0.000764459 0.00587597 0.000499806 ) 0 
( 0.00105657 0.00172274 0.00133791 ) 0 
( 0.0073945 0.0027737 0.00253475 ) 0 
( 0.00128682 0.00909821 0.00439074 ) 0 
( 0.00111428 0.00963309 0.00100178 ) 0 
( 0.00809585 0.00118625 0.00347346 ) 0 
( 0.00753703 0.000207183 0.0025212 ) 0 
( 0.00552684 0.0058741 0.00295693 ) 0 
( 0.0122684 0.00182118 0.00325988 ) 0 
( 0.0040366 0.00209486 0.00694729 ) 0 
( 0.00278922 0.00127072 0.002069 ) 0 
( 0.00220407 0.00692841 0.00652477 ) 0 
( 0.0128878 0.00192039 0.00591528 ) 0 
( 0.00368423 0.0114693 0.00311631 ) 0 
( 0.0113058 0.00345932 0.0054694 ) 0 
( 0.0100812 0.000276492 0.000499805 ) 0 
( 0.000234885 0.00246634 0.00404185 ) 0 
( 0.00122667 0.0107298 0.000499747 ) 0 
( 0.00182868 0.00928053 0.00631178 ) 0 
( 0.00647998 0.00122945 0.0070282 ) 0 
( 0.00725972 0.00601169 0.00234798 ) 0 
( 0.002243 0.00896488 0.00413058 ) 0 
( 0.01202 0.00302733 0.00390483 ) 0 
( 0.00330913 0.00934291 0.00657074 ) 0 
( 0.0011429 0.001799 0.00707114 ) 0 
( 0.00706484 0.00695201 0.00262684 ) 0 
( 0.00731006 0.0107897 0.00287121 ) 0 
( 0.00550429 0.000932044 0.000499808 ) 0 
( 0.00290619 0.00740444 0.00577103 ) 0 
( 0.00499108 0.00759073 0.00618929 ) 0 
( 0.00590747 0.00173553 0.00629257 ) 0 
( 0.00504082 0.0123618 0.00390506 ) 0 
( 0.00354887 0.00395739 0.00102109 ) 0 
( 0.00186818 0.00734578 0.000499793 ) 0 
( 0.00723105 0.00312075 0.00673004 ) 0 
( 0.00776807 0.00171058 0.00135604 ) 0 
( 0.00276733 0.0120532 0.00225496 ) 0 
( 0.00436674 0.00512859 0.00638438 ) 0 
( 0.00469193 0.0028927 0.00691407 ) 0 
( 0.00464263 0.00983037 0.000499802 ) 0 
( 0.0089077 0.0072301 0.00184122 ) 0 
( 0.00219698 0.0102352 0.00462241 ) 0 
( 0.00460112 0.0018993 0.00531251 ) 0 
( 0.00259224 0.0050233 0.00369716 ) 0 
( 0.00328303 0.011737 0.00441529 ) 0 
( 0.0107675 0.00383499 0.00228335 ) 0 
( 0.00138228 0.00727138 0.00366006 ) 0 
( 0.00514333 0.00188604 0.00206549 ) 0 
( 0.0129242 0.00257355 0.00332104 ) 0 
( 0.00711859 0.0112942 0.000736589 ) 0 
( 0.01034 0.000733352 0.00240618 ) 0 
( 0.00544709 0.00673183 0.00356365 ) 0 
( 0.011451 0.00418242 0.00310136 ) 0 
( 0.00725817 0.0092426 0.00575255 ) 0 
( 9.3729e-05 0.00358618 0.0036056 ) 0 
( 0.00622085 0.0065929 0.00057149 ) 0 
( 0.00455189 0.00810909 0.005454 ) 0 
( 0.00646419 0.0116371 0.00141014 ) 0 
( 0.00440928 0.00139591 0.0044524 ) 0 
( 0.00472177 0.00291366 0.00159101 ) 0 
( 0.00720552 0.00416451 0.000499634 ) 0 
( 0.00342644 0.00621897 0.00344754 ) 0 
( 0.00246865 0.00502309 0.00180187 ) 0 
( 0.0120699 0.00265183 0.001368 ) 0 
( 0.00367898 0.00955543 0.000499614 ) 0 
( 0.00195145 0.00892772 0.00519344 ) 0 
( 0.0055622 0.0103925 0.00706324 ) 0 
( 0.000838181 0.000303777 0.0050878 ) 0 
( 0.00138708 0.00349912 0.00771819 ) 0 
( 0.00354334 0.00476692 0.00702583 ) 0 
( 0.0116309 0.00433549 0.00597576 ) 0 
( 0.00331195 0.00630593 0.00444412 ) 0 
( 0.00573898 0.00185537 0.00727085 ) 0 
( 0.00226117 0.000569623 0.00780747 ) 0 
( 0.00787632 0.0107372 0.00582816 ) 0 
( 0.00263072 0.00991216 0.00133428 ) 0 
( 0.00160158 0.00174738 0.00049968 ) 0 
( 0.00824216 0.0050031 0.0044711 ) 0 
( 0.0038331 0.00793467 0.00478111 ) 0 
( 0.0030147 1.64255e-05 0.00745293 ) 0 
( 0.00271811 0.00475003 0.00646157 ) 0 
( 0.0118569 0.00164076 0.00564426 ) 0 
( 0.00620131 0.0056287 0.0057806 ) 0 
( 0.00273362 0.0032139 0.00217568 ) 0 
( 0.00640756 0.00189306 0.00316819 ) 0 
( 0.00517505 0.0122353 0.00185725 ) 0 
( 0.00869993 0.00295864 0.000499672 ) 0 
( 0.00342678 0.00573774 0.000499685 ) 0 
( 0.00695874 0.00513346 0.000499741 ) 0 
( 0.00099121 0.0108665 0.00253446 ) 0 
( 0.00522069 0.00496188 0.00687695 ) 0 
( 0.00609039 0.0108394 0.00207642 ) 0 
( 0.00291188 0.0048148 0.00780106 ) 0 
( 0.00187672 0.00467569 0.00303914 ) 0 
( 0.0117108 0.00516425 0.00297891 ) 0 
( 0.00489903 0.00384017 0.00319755 ) 0 
( 0.00979737 0.00265895 0.00143184 ) 0 
( 0.00205232 0.00164282 0.00138596 ) 0 
( 0.00640541 0.0074868 0.00780476 ) 0 
( 0.0086881 0.00486762 0.00612519 ) 0 
( 0.00574813 0.00548474 0.00206272 ) 0 
( 0.00402539 0.0119371 0.00543768 ) 0 
( 0.00842312 0.0058413 0.00395057 ) 0 
( 0.00929754 0.00408718 0.00136424 ) 0 
( 0.00268191 0.00936246 0.000499747 ) 0 
( 0.00955169 0.00153835 0.00349166 ) 0 
( 0.0115326 0.0043394 0.00410232 ) 0 
( 0.00429764 0.00194486 0.00259598 ) 0 
( 0.00342531 0.000698793 0.00371067 ) 0 
( 0.00540697 0.011204 0.00139084 ) 0 
( 0.00462064 8.59956e-05 0.00768773 ) 0 
( 0.00852915 0.0102587 0.00641662 ) 0 
( 0.00652424 0.00816266 0.00132329 ) 0 
( 0.00647107 0.00806283 0.00313353 ) 0 
( 0.00241304 0.0100035 0.00299159 ) 0 
( 0.00060325 0.000959095 0.00701359 ) 0 
( 0.00824473 0.0104999 0.0030888 ) 0 
( 0.00270515 0.00921413 0.00578472 ) 0 
( 0.00487714 0.00439614 0.00593233 ) 0 
( 0.00704347 0.00839072 0.000499681 ) 0 
( 0.0039493 0.00106318 0.0067797 ) 0 
( 0.00131336 0.00705474 0.0018021 ) 0 
( 0.000972349 0.00891673 0.00687272 ) 0 
( 0.00347885 0.00262764 0.00387103 ) 0 
( 0.00438225 0.00884465 0.00049973 ) 0 
( 0.00351584 0.00742196 0.00124621 ) 0 
( 0.00969946 0.00133754 0.00677895 ) 0 
( 0.0119688 0.0035899 0.00103713 ) 0 
( 0.0112733 0.0065413 0.00540258 ) 0 
( 0.00208916 0.0121694 0.00520839 ) 0 
( 0.00660214 0.0056252 0.00378773 ) 0 
( 0.0113838 0.00129094 0.00323057 ) 0 
( 0.00656581 0.0105568 0.00457056 ) 0 
( 0.000273426 0.0024224 0.00132414 ) 0 
( 0.00437445 0.010786 0.00667048 ) 0 
( 0.0088147 0.00181132 0.00282999 ) 0 
( 0.01315 0.00230309 0.000641955 ) 0 
( 0.0023604 2.4791e-05 0.00523607 ) 0 
( 0.0126705 0.00420129 0.000499822 ) 0 
( 0.0128011 0.00379004 0.00155329 ) 0 
( 0.0064342 0.00931389 0.00389239 ) 0 
( 0.00809724 0.00208295 0.00448375 ) 0 
( 0.00985556 0.0056856 0.00142226 ) 0 
( 0.00432496 0.00525386 0.00459789 ) 0 
( 0.0058803 0.00276315 0.000499752 ) 0 
( 0.00497069 0.00624657 0.00717056 ) 0 
( 0.0069195 0.00474334 0.0032122 ) 0 
( 0.00824102 0.00318568 0.0041879 ) 0 
( 0.0100279 0.00712336 0.00510202 ) 0 
( 0.00899396 0.00634355 0.00138694 ) 0 
( 0.00108748 0.00525279 0.00324887 ) 0 
( 0.00543963 0.00757495 0.00184516 ) 0 
( 0.00432456 0.002488 0.00607203 ) 0 
( 0.00724162 0.00569338 0.00139109 ) 0 
( 0.00155388 0.0132456 0.00456471 ) 0 
( 0.00705143 0.0113357 0.00608489 ) 0 
( 0.00499649 0.00526304 0.00544828 ) 0 
( 0.00571255 0.0045693 0.00765382 ) 0 
( 0.006446 0.00907373 0.000919173 ) 0 
( 0.00538481 0.0024428 0.00561363 ) 0 
( 0.00550097 0.0118623 0.00296696 ) 0 
( 0.00164792 0.0115788 0.00352142 ) 0 
( 0.0015373 0.00063133 0.00441993 ) 0 
( 0.00958388 0.0033548 0.000746562 ) 0 
( 0.0120048 0.00266773 0.0051147 ) 0 
( 0.00876336 0.00139709 0.00419118 ) 0 
( 0.00724416 0.00924578 0.00735637 ) 0 
( 0.00985957 0.00406411 0.0041951 ) 0 
( 0.00981677 0.00471092 0.00646947 ) 0 
( 0.0128217 0.0036979 0.00337944 ) 0 
( 0.0108224 0.00248623 0.00583446 ) 0 
( 0.0127399 0.00320379 0.000499788 ) 0 
( 0.00878038 0.0077739 0.00622527 ) 0 
( 0.0114487 0.000816656 0.00525161 ) 0 
( 6.91444e-05 0.00450814 0.00179123 ) 0 
( 0.00162573 0.0103262 0.00635831 ) 0 
( 0.000139347 0.00504933 0.000499696 ) 0 
( 0.00882964 0.00669012 0.0035291 ) 0 
( 0.00295214 0.0122149 0.00738511 ) 0 
( 0.000940271 0.0080691 0.00753619 ) 0 
( 0.00355788 0.0102538 0.00689945 ) 0 
( 0.00846417 0.00102779 0.00601529 ) 0 
( 0.00395916 0.0070463 0.00284546 ) 0 
( 0.00692647 0.00786269 0.00223774 ) 0 
( 0.00847866 0.00347398 0.00542491 ) 0 
( 0.0107816 0.00491944 0.00229612 ) 0 
( 0.00613572 0.00731755 0.00251607 ) 0 
( 0.00989374 0.00187548 0.00572756 ) 0 
( 0.0110214 0.00146044 0.00224221 ) 0 
( 0.0124258 0.000437924 0.00686427 ) 0 
( 9.04104e-05 0.00234728 0.00565747 ) 0 
( 0.000742414 0.0126742 0.00433371 ) 0 
( 0.00400748 0.00174669 0.00793128 ) 0 
( 0.00479301 0.00131226 0.00336791 ) 0 
( 0.00162917 0.000408451 0.00282897 ) 0 
( 0.00418745 0.00790981 0.00669151 ) 0 
( 0.0012301 0.00522257 0.00717955 ) 0 
( 0.00600567 0.000589527 0.00481878 ) 0 
( 0.0132909 0.00125475 0.00659792 ) 0 
( 0.00972591 0.00630352 0.00321264 ) 0 
( 0.00307571 0.00580015 0.00197912 ) 0 
( 0.00747063 0.00472613 0.00128315 ) 0 
( 0.00925817 0.00479911 0.00450759 ) 0 
( 0.00798402 0.00534415 0.00196265 ) 0 
( 0.00389765 0.00833734 0.00138141 ) 0 
( 0.00410415 0.0127025 0.00382429 ) 0 
( 0.0103376 0.00844649 0.00734268 ) 0 
( 0.0132528 0.0016083 0.00135452 ) 0 
( 0.00174199 0.0098225 0.00383346 ) 0 
( 0.00665687 0.00305866 0.00190682 ) 0 
( 0.00204673 0.00639436 0.00196312 ) 0 
( 0.00544709 0.00668729 0.00588822 ) 0 
( 0.00191881 0.0132114 0.00258767 ) 0 
( 9.55413e-05 0.00182845 0.00479969 ) 0 
( 0.000749079 0.00655124 0.00778918 ) 0 
( 0.00869944 0.00658299 0.00463858 ) 0 
( 0.0035672 0.00653887 0.00538245 ) 0 
( 3.94681e-05 0.000683654 0.00605798 ) 0 
( 0.00224261 0.00769278 0.00204857 ) 0 
( 0.00360139 0.0101498 0.00129984 ) 0 
( 0.00474113 0.00768257 0.0044464 ) 0 
( 0.00127684 0.00681983 0.00615999 ) 0 
( 8.16145e-06 0.000842467 0.00494346 ) 0 
( 0.000245757 0.0124697 0.000499666 ) 0 
( 0.00579907 0.00859909 0.00565876 ) 0 
( 1.04297e-05 0.0117528 0.00576418 ) 0 
( 0.0102343 0.00358086 0.00147153 ) 0 
( 0.00142204 0.00813152 0.00490087 ) 0 
( 0.00153324 0.00972479 0.00715743 ) 0 
( 0.00207694 0.0107613 0.00235191 ) 0 
( 0.00126383 0.00710573 0.00713546 ) 0 
( 0.012518 0.000118347 0.00515985 ) 0 
( 0.0103802 0.00688587 0.00383324 ) 0 
( 0.00828417 0.00611411 0.00547525 ) 0 
( 0.00904181 0.00404388 0.0065679 ) 0 
( 0.00194735 0.000770033 0.00186245 ) 0 
( 0.00034108 0.00560118 0.00185762 ) 0 
( 0.00897818 0.00695692 0.000499781 ) 0 
( 0.000165024 0.0125391 0.00215671 ) 0 
( 0.00130145 0.0042343 0.00704608 ) 0 
( 0.0053336 0.00146611 0.00809963 ) 0 
( 0.0106475 0.00608535 0.000499682 ) 0 
( 0.00598514 0.00611533 0.0066269 ) 0 
( 0.000416711 0.0101438 0.000499692 ) 0 
( 0.0106671 0.00250833 0.0040054 ) 0 
( 0.0021442 0.0131717 0.00374856 ) 0 
( 0.0106403 0.00110562 0.000499807 ) 0 
( 0.00896966 0.00542817 0.00180845 ) 0 
( 0.00993213 0.00889559 0.00548184 ) 0 
( 0.000905832 0.00719827 0.00270389 ) 0 
( 0.00637242 0.00758405 0.00613697 ) 0 
( 0.00765429 0.00343475 0.00337263 ) 0 
( 0.00378558 0.00328356 0.00456659 ) 0 
( 0.00920378 0.000471842 0.00671268 ) 0 
( 0.00216879 0.0123649 0.0031139 ) 0 
( 0.00391708 0.00613664 0.00243262 ) 0 
( 0.0123546 0.00110542 0.00493841 ) 0 
( 0.0057772 0.0101303 0.00405761 ) 0 
( 0.000336575 0.0132599 0.00696064 ) 0 
( 0.0104524 0.00586752 0.00380433 ) 0 
( 0.00422786 0.00880213 0.00416921 ) 0 
( 0.00400048 0.00787747 0.000499615 ) 0 
( 0.00280506 0.00943079 0.00481373 ) 0 
( 0.00145007 0.00565945 0.00147897 ) 0 
( 0.00751707 0.00786556 0.00143086 ) 0 
( 0.0106198 0.00808273 0.00645515 ) 0 
( 0.000175367 0.00199205 0.00304852 ) 0 
( 0.00135483 0.00244304 0.00599477 ) 0 
( 0.00898664 0.0056678 0.00492137 ) 0 
( 0.00685031 0.00837758 0.00766593 ) 0 
( 0.00426137 0.0117924 0.00421551 ) 0 
( 0.0131764 0.0021474 0.00226878 ) 0 
( 0.00995311 0.00762322 0.00325269 ) 0 
( 0.00177088 0.00477974 0.00112821 ) 0 
( 0.00665551 0.00701034 0.00696194 ) 0 
( 0.00478407 0.0114097 0.00497721 ) 0 
( 0.00823046 0.00697446 0.00598156 ) 0 
( 0.0040467 0.00697164 0.00461541 ) 0 
( 0.00604274 0.00437986 0.00487605 ) 0 
( 0.00541569 0.00274253 0.00463543 ) 0 
( 0.00336298 0.00223926 0.0061881 ) 0 
( 0.00605792 0.00825464 0.00409801 ) 0 
( 0.00494674 0.0113602 0.00228385 ) 0 
( 0.00372838 0.00161808 0.000499688 ) 0 
( 0.00262403 0.000376147 0.00248444 ) 0 
( 0.00922873 0.00215767 0.000779754 ) 0 
( 0.00123256 0.0126877 0.00682626 ) 0 
( 0.00522092 0.000458155 0.00307207 ) 0 
( 0.00152915 0.00386964 0.00146465 ) 0 
( 0.00695928 0.000996531 0.00802536 ) 0 
( 0.00798105 0.00382003 0.00104355 ) 0 
( 0.00301706 0.0103046 0.000499871 ) 0 
( 0.00971818 0.00803431 0.00599547 ) 0 
( 0.00842433 0.00402558 0.0031287 ) 0 
( 0.00359165 0.00453137 0.00335898 ) 0 
( 0.000188223 0.00587927 0.00558906 ) 0 
( 0.00149136 0.00674271 0.00518638 ) 0 
( 0.00287685 0.00760847 0.000499676 ) 0 
( 0.00439385 0.00484247 0.00132528 ) 0 
( 0.00514152 0.010406 0.00615378 ) 0 
( 0.00633552 0.00718711 0.00143385 ) 0 
( 0.00395883 0.000172743 0.00115965 ) 0 
( 0.00424098 0.0107764 0.00552833 ) 0 
( 0.000232086 0.0118017 0.00405969 ) 0 
( 0.0117923 0.00255796 0.00608557 ) 0 
( 0.00157357 0.00652541 0.000994777 ) 0 
( 0.000703819 0.00130708 0.000499714 ) 0 
( 0.000941243 0.0133171 0.00610627 ) 0 
( 0.0126146 0.000707528 0.00153443 ) 0 
( 0.00691017 0.0018776 0.0064 ) 0 
( 0.00439991 0.00339896 0.00242496 ) 0 
( 0.00488241 0.00269946 0.000499777 ) 0 
( 0.00799733 0.00320901 0.00186604 ) 0 
( 0.00964662 0.00253144 0.00329487 ) 0 
( 0.0130475 0.00282305 0.00148977 ) 0 
( 0.00674893 0.0115171 0.00326641 ) 0 
( 0.00915675 0.00499237 0.000928215 ) 0 
( 0.0050319 0.000191501 0.000982575 ) 0 
( 0.00934289 0.00646279 0.0054123 ) 0 
( 0.00912564 0.00311375 0.00621112 ) 0 
( 0.009774 0.00114844 0.00143234 ) 0 
( 0.00214821 0.00627048 0.00577405 ) 0 
( 0.00229768 0.00944032 0.00215571 ) 0 
( 0.010867 0.00775377 0.00395452 ) 0 
( 0.00755893 0.00532095 0.00380336 ) 0 
( 0.0132501 0.00163092 0.00324822 ) 0 
( 0.00722406 0.00321296 0.00427627 ) 0 
( 0.00263073 0.0118187 0.00129247 ) 0 
( 0.00762575 0.00885338 0.00132126 ) 0 
( 0.0127865 0.0017667 0.00427771 ) 0 
( 0.00322263 0.0129554 0.00673266 ) 0 
( 0.000177357 0.00456275 0.00383112 ) 0 
( 0.00965267 0.000586768 0.00313003 ) 0 
( 0.00765069 0.0109403 0.00678084 ) 0 
( 0.00818187 0.00107605 0.00201804 ) 0 
( 0.00843828 0.00458715 0.00149311 ) 0 
( 0.00529345 0.00946113 0.00562352 ) 0 
( 0.000142811 0.00404513 0.000499713 ) 0 
( 0.00343689 0.0129 0.00299817 ) 0 
( 0.00275627 0.0130121 0.00583066 ) 0 
( 0.00464132 0.000535711 0.0039818 ) 0 
( 0.0061774 0.0118342 0.0067061 ) 0 
( 0.000543076 0.00373751 0.00136528 ) 0 
( 0.0050998 0.00580125 0.00628457 ) 0 
( 0.00399977 0.0105978 0.000499649 ) 0 
( 0.00785755 0.00481867 0.00286041 ) 0 
( 0.000347107 0.0110935 0.00136262 ) 0 
( 0.00774211 0.00619045 0.00463856 ) 0 
( 0.000325022 0.0103823 0.00488533 ) 0 
( 0.00923865 0.00824471 0.00049966 ) 0 
( 0.0077867 0.00814891 0.00265968 ) 0 
( 0.00447609 0.004412 0.00236839 ) 0 
( 0.0118325 0.00212487 0.00429242 ) 0 
( 0.00708541 0.00934886 0.00465045 ) 0 
( 0.0130293 0.00290916 0.00596031 ) 0 
( 0.00424047 0.0099477 0.00608777 ) 0 
( 0.009762 0.00496159 0.00220165 ) 0 
( 0.0037891 0.00704063 0.00722989 ) 0 
( 0.0110534 0.00739775 0.00586992 ) 0 
( 0.00773662 0.00415477 0.00205941 ) 0 
( 0.000245825 0.00938618 0.00145432 ) 0 
( 0.00953211 0.00933791 0.00357217 ) 0 
( 0.00340981 0.0129073 0.00138849 ) 0 
( 0.00071674 0.0102294 0.00171308 ) 0 
( 0.00953736 0.00784404 0.00136552 ) 0 
( 0.00201354 0.00405043 0.00633875 ) 0 
( 0.00257378 0.00224419 0.00199116 ) 0 
( 0.00645565 0.0058966 0.00748135 ) 0 
( 0.00438087 0.0126109 0.00137978 ) 0 
( 0.00601337 0.011236 0.00749046 ) 0 
( 0.00872548 0.00143925 0.0012594 ) 0 
( 0.00651873 0.00392886 0.00598334 ) 0 
( 0.00832506 0.0104363 0.00408419 ) 0 
( 0.00108229 0.00615263 0.00226734 ) 0 
( 0.00975223 0.00911684 0.000499818 ) 0 
( 0.00831436 0.0077182 0.00339191 ) 0 
( 0.0112368 0.00132459 0.00127219 ) 0 
( 0.00061544 0.00249608 0.00761227 ) 0 
( 0.00334532 0.0112155 0.00526627 ) 0 
( 0.0115406 0.00332823 0.00190202 ) 0 
( 0.00650306 0.0075494 0.000499775 ) 0 
( 0.00998567 0.00565557 0.00674935 ) 0 
( 0.000153119 0.00835512 0.00698835 ) 0 
( 0.00590943 0.0109753 0.00322655 ) 0 
( 0.00628146 0.0027436 0.00514435 ) 0 
( 0.00250758 0.0130959 0.00486576 ) 0 
( 0.0036764 0.00261668 0.000499797 ) 0 
( 0.0129027 0.00342786 0.00510994 ) 0 
( 0.00497894 0.0110517 0.000499803 ) 0 
( 0.00598403 0.00995772 0.00253738 ) 0 
( 0.000294963 0.00682654 0.00528718 ) 0 
( 0.00395154 0.00177582 0.00364529 ) 0 
( 0.00543823 0.00225651 0.00310057 ) 0 
( 0.00266938 0.00313334 0.00574437 ) 0 
( 0.00641494 0.00234571 0.00123436 ) 0 
( 0.00341441 0.011173 0.00107068 ) 0 
( 0.0113861 0.00228382 0.00334806 ) 0 
( 0.00375223 0.00312569 0.00171356 ) 0 
( 0.00306665 0.00379789 0.00682442 ) 0 
( 0.00418519 0.0023676 0.00452938 ) 0 
( 0.00352597 0.00557978 0.00510312 ) 0 
( 0.0104156 0.000828277 0.00496277 ) 0 
( 0.00134111 0.0116937 0.00698208 ) 0 
( 0.0122688 0.00266384 0.00709694 ) 0 
( 0.0106684 0.00798913 0.00228291 ) 0 
( 0.0127858 0.00138298 0.000499626 ) 0 
( 0.000257132 0.0133232 0.00136547 ) 0 
( 0.00573425 0.000515836 0.00643523 ) 0 
( 0.00388243 0.000530759 0.00463425 ) 0 
( 0.00942909 0.00148018 0.00493501 ) 0 
( 0.00468509 0.0125002 0.00594894 ) 0 
( 0.00297565 0.00749315 0.00681747 ) 0 
( 0.00462484 0.00612601 0.0033116 ) 0 
( 0.00660412 0.00490881 0.00735495 ) 0 
( 0.00358002 0.00262193 0.00529011 ) 0 
( 0.00298441 0.00272557 0.00121335 ) 0 
( 6.68096e-05 0.00819142 0.000499769 ) 0 
( 0.0109825 0.00759025 0.00130205 ) 0 
( 0.00640299 0.0117061 0.00541994 ) 0 
( 0.00857546 0.0024109 0.00365136 ) 0 