/*--------------------------------*- C++ -*----------------------------------*\
| =========                 |                                                 |
| \\      /  F ield         | OpenFOAM: The Open Source CFD Toolbox           |
|  \\    /   O peration     | Version:  2506                                  |
|   \\  /    A nd           | Website:  www.openfoam.com                      |
|    \\/     M anipulation  |                                                 |
\*---------------------------------------------------------------------------*/
FoamFile
{
    version     2.0;
    format      ascii;
    arch        "LSB;label=32;scalar=64";
    class       surfaceScalarField;
    location    "0.01";
    object      phi;
}
// * * * * * * * * * * * * * * * * * * * * * * * * * * * * * * * * * * * * * //

dimensions      [0 3 -1 0 0 0 0];

oriented        oriented;

internalField   nonuniform List<scalar> 
3120
(
6.08868e-10
5.69487e-10
7.71908e-09
1.4286e-09
1.05357e-09
-4.504e-10
-5.58273e-11
1.3114e-08
-6.48277e-10
-2.67358e-09
-1.88668e-09
1.6188e-08
-6.67486e-10
3.31099e-10
2.02104e-09
6.19422e-10
-1.1839e-10
-9.56672e-11
1.10238e-08
1.23448e-09
-1.9082e-09
3.91144e-10
1.27777e-08
-3.22858e-10
2.23157e-09
5.67359e-09
8.96176e-10
9.06154e-09
-5.20569e-10
1.91177e-10
1.24181e-08
-7.33025e-10
-1.36859e-09
7.29948e-10
1.07873e-08
-2.75168e-09
-9.34924e-10
1.52731e-08
-5.26531e-10
9.25599e-09
4.6676e-10
9.8856e-09
1.10613e-09
-2.56487e-09
1.86995e-08
-2.0127e-09
1.13088e-08
7.86223e-09
-8.43987e-10
-8.65392e-10
8.5012e-09
1.00903e-10
8.2636e-10
-1.42307e-09
-8.01051e-10
1.28391e-08
1.65499e-09
5.92516e-10
1.14205e-09
1.17833e-08
1.24704e-09
8.78031e-11
1.7551e-09
1.34816e-09
-7.32374e-10
-8.552e-10
1.05142e-08
1.2318e-09
7.42778e-10
-1.27382e-10
1.06289e-08
2.04921e-11
-2.07259e-09
9.61052e-09
-4.47666e-10
1.13301e-08
2.50712e-10
3.69139e-10
9.77179e-09
1.17129e-09
-8.55663e-10
-1.34923e-09
1.31155e-08
1.27281e-09
-1.83868e-09
1.29108e-08
-1.34544e-09
1.21421e-08
-1.30835e-09
9.50666e-09
7.81776e-10
-2.50232e-10
1.52073e-08
-6.44829e-10
8.49584e-09
5.67934e-09
-4.84379e-10
6.7694e-10
7.25723e-09
7.15128e-10
3.36284e-10
-2.00757e-09
-5.80471e-10
1.48993e-08
4.34848e-11
-8.627e-10
3.56924e-09
5.42617e-09
1.64301e-09
-5.68887e-09
1.8487e-08
1.64535e-09
-1.23237e-09
-1.64796e-09
1.47348e-08
-6.634e-10
1.517e-09
-8.33382e-11
7.38237e-09
1.73033e-09
-2.35948e-09
1.53259e-08
-2.25434e-09
1.06186e-08
-8.66387e-10
-1.8516e-10
7.93e-09
1.24538e-09
-6.38439e-10
2.51193e-09
1.02923e-08
2.86972e-09
6.51085e-10
6.39206e-09
1.83663e-09
1.16166e-08
1.31736e-09
5.7587e-09
1.68227e-09
-8.66547e-10
2.11423e-08
5.21712e-10
8.29658e-09
1.5922e-08
-6.68042e-10
1.06907e-09
8.44605e-09
-1.39562e-10
-1.45028e-09
-4.61676e-10
1.56986e-09
1.3657e-08
-5.33929e-10
-1.09556e-09
8.69073e-11
5.65068e-09
3.22468e-10
1.19813e-09
1.62039e-08
-1.05835e-10
7.60497e-12
3.90633e-10
1.67693e-08
-1.36362e-09
-1.80007e-09
-1.71291e-10
1.09312e-08
-2.33007e-10
-1.65925e-10
1.40117e-08
5.43276e-10
9.50374e-09
-3.39093e-10
6.55305e-10
7.45088e-09
5.53545e-10
-1.12827e-09
-1.90483e-09
1.28151e-08
-6.86873e-10
-3.1848e-11
5.8166e-09
-2.4479e-09
1.52738e-08
-4.62171e-09
1.49559e-08
-1.56782e-09
-6.72099e-11
1.33918e-08
-3.6008e-10
7.98061e-09
1.56103e-08
5.26486e-10
-2.46563e-10
6.52782e-09
2.06894e-09
-4.30636e-10
3.27512e-10
-3.28261e-10
1.40453e-08
1.3898e-10
-1.29138e-09
-1.64346e-09
1.00758e-08
-1.16275e-09
5.26459e-10
1.2434e-08
1.55373e-09
9.64583e-10
2.15472e-09
1.13905e-08
2.0129e-09
-1.15991e-09
6.42492e-10
1.20849e-08
8.10314e-10
9.67799e-11
1.03012e-08
-3.21421e-10
1.03524e-08
-1.28278e-09
-5.24933e-10
1.13619e-08
5.14557e-11
-1.51548e-09
-1.6313e-09
1.53216e-08
9.70369e-10
-3.03819e-10
3.73135e-09
-3.3382e-09
2.05406e-08
-3.65289e-09
1.60224e-08
1.39945e-09
-2.71635e-10
7.69524e-09
-3.52731e-10
7.8153e-09
8.8347e-09
-1.00062e-09
2.57802e-10
6.65777e-09
8.08462e-10
-1.95573e-10
-5.33825e-10
-3.8426e-10
1.38973e-08
6.54651e-11
-1.25008e-09
-1.43266e-09
1.11417e-08
1.083e-09
-1.32801e-09
9.69642e-09
1.61947e-09
-1.72687e-09
-1.0334e-09
1.36394e-08
7.69186e-10
-1.43424e-09
-6.80027e-10
1.20881e-08
-9.21663e-10
4.99171e-10
7.8568e-09
1.66478e-09
4.61352e-09
-1.46803e-09
-7.98119e-10
1.1748e-08
8.46597e-10
-1.36853e-10
-5.32256e-10
1.38426e-08
-3.32233e-10
-9.86596e-10
5.4125e-09
-9.17127e-10
2.31005e-08
-8.15493e-10
1.83164e-08
-3.20296e-10
-1.30561e-09
7.74565e-09
6.56572e-10
4.49818e-09
7.86324e-09
6.32879e-11
1.35202e-10
9.84558e-09
1.59487e-10
-3.54572e-09
7.72886e-10
3.43502e-10
1.55232e-08
-2.67906e-09
1.88582e-10
1.65413e-09
1.08033e-08
-7.31479e-10
1.81882e-09
1.00168e-08
-8.02977e-10
-7.30602e-11
4.67344e-10
1.3214e-08
1.66291e-10
3.53713e-10
1.64285e-10
1.18404e-08
1.15792e-09
1.58149e-09
7.12523e-09
8.03213e-10
6.02738e-09
1.75369e-09
1.78106e-09
1.25037e-08
-3.82312e-09
2.02896e-09
2.18339e-09
1.15482e-08
4.57468e-10
1.36616e-09
7.19932e-09
5.08391e-09
1.80379e-08
3.55203e-09
1.7902e-08
-5.23059e-09
1.11297e-09
1.02278e-08
2.81199e-09
4.54674e-09
7.9251e-09
-7.85096e-10
-3.29068e-09
1.15405e-08
-1.6914e-09
4.07233e-09
-4.27238e-10
-8.9548e-10
1.43049e-08
1.75594e-09
-7.99234e-11
1.48635e-09
1.01729e-08
-1.2032e-09
1.90049e-09
9.94248e-09
-2.16472e-09
7.58535e-10
-2.98993e-10
9.34784e-09
1.15866e-10
1.5295e-09
4.36336e-10
9.7375e-09
1.14418e-09
1.22755e-09
7.76934e-09
5.44471e-10
7.96083e-09
1.38525e-09
1.2101e-09
1.14476e-08
-1.83836e-09
1.8116e-09
2.11955e-09
9.43853e-09
3.09744e-10
1.76609e-09
8.16267e-09
3.04084e-09
1.37904e-08
8.2837e-10
1.44597e-08
1.19616e-09
2.02075e-09
1.02287e-08
2.41037e-09
5.96616e-09
9.54958e-09
2.13026e-09
3.58974e-09
1.26362e-08
-2.7893e-09
-4.02639e-09
2.51068e-09
3.61466e-09
1.28846e-08
-2.57487e-09
5.51226e-10
2.3566e-09
1.14583e-08
-1.68257e-09
2.1041e-09
1.14477e-08
-2.95581e-09
1.70006e-09
1.70146e-09
1.13915e-08
-1.85559e-09
1.72636e-09
2.07081e-09
1.1255e-08
2.04341e-10
1.1543e-09
1.04936e-08
-3.32661e-10
1.05903e-08
2.0094e-09
1.20771e-09
1.19123e-08
-1.98043e-09
7.27371e-10
1.64216e-09
1.11491e-08
-1.97977e-09
1.38899e-09
1.06351e-08
7.13661e-10
1.23096e-08
1.50933e-09
1.20574e-08
4.75123e-10
9.56697e-10
1.10458e-08
-2.22042e-09
1.00612e-08
1.12529e-08
7.04622e-10
1.03021e-09
1.22981e-08
-9.51165e-10
-4.45581e-10
6.11745e-10
1.02652e-09
1.21559e-08
-2.04931e-10
1.69566e-10
9.51727e-10
1.16359e-08
-6.87155e-10
9.7539e-10
1.16998e-08
-1.2689e-09
6.59211e-10
8.35135e-10
1.16816e-08
-7.54261e-10
5.56001e-10
8.53305e-10
1.15315e-08
1.32026e-10
6.38503e-10
1.12309e-08
1.87515e-10
1.13338e-08
6.68995e-10
1.04186e-09
1.17128e-08
-6.7622e-10
2.92876e-10
9.61185e-10
1.14175e-08
-4.41122e-10
7.75216e-10
1.12324e-08
5.89977e-10
1.17294e-08
3.36349e-10
1.15443e-08
1.00473e-10
1.84514e-10
1.12599e-08
-5.06849e-10
1.10326e-08
1.1477e-08
5.70024e-10
8.70245e-10
1.20493e-08
-5.91794e-10
-5.99737e-10
4.95647e-10
7.5659e-10
1.19078e-08
-4.33968e-10
2.61498e-10
6.65402e-10
1.17247e-08
-5.19936e-10
6.29925e-10
1.17337e-08
-6.97802e-10
4.65384e-10
7.87965e-10
1.17777e-08
-4.79166e-10
3.9657e-10
6.94403e-10
1.16626e-08
1.99974e-10
5.5574e-10
1.15372e-08
3.6179e-10
1.15629e-08
3.71239e-10
8.11601e-10
1.16649e-08
-3.46845e-10
2.44978e-10
6.92535e-10
1.15457e-08
4.67067e-12
5.57767e-10
1.14708e-08
4.28474e-10
1.16015e-08
1.9454e-10
1.14963e-08
-7.10809e-11
1.17582e-10
1.14149e-08
-8.77207e-11
1.13624e-08
1.15143e-08
2.88246e-10
4.81496e-10
1.18495e-08
-2.61782e-10
-3.08082e-10
2.58659e-10
4.35709e-10
1.17753e-08
-2.73541e-10
1.97358e-10
4.09297e-10
1.17055e-08
-3.28712e-10
3.91871e-10
1.16917e-08
-3.92255e-10
2.49811e-10
5.12748e-10
1.17295e-08
-2.32698e-10
2.26447e-10
4.55846e-10
1.1666e-08
1.7109e-10
3.91876e-10
1.16101e-08
3.19053e-10
1.16019e-08
1.91492e-10
5.27443e-10
1.16311e-08
-1.72366e-10
1.57313e-10
4.56371e-10
1.15794e-08
9.22638e-11
3.81761e-10
1.1546e-08
3.11543e-10
1.15699e-08
1.06633e-10
1.1518e-08
-7.69298e-11
8.21229e-11
1.14892e-08
2.89259e-11
1.14753e-08
1.1516e-08
1.60036e-10
2.97258e-10
1.17328e-08
-1.34427e-10
-2.06083e-10
1.54893e-10
2.75942e-10
1.16976e-08
-1.93074e-10
1.47481e-10
2.65202e-10
1.16652e-08
-2.17453e-10
2.55161e-10
1.1647e-08
-2.39504e-10
1.42174e-10
3.32525e-10
1.16731e-08
-1.20946e-10
1.41825e-10
3.02269e-10
1.16401e-08
1.34649e-10
2.7142e-10
1.16111e-08
2.39099e-10
1.15953e-08
1.11409e-10
3.4038e-10
1.16063e-08
-9.43986e-11
1.08732e-10
3.0296e-10
1.15815e-08
9.99754e-11
2.63529e-10
1.15627e-08
2.26736e-10
1.15588e-08
6.98434e-11
1.15347e-08
-5.68039e-11
6.81432e-11
1.1522e-08
6.31699e-11
1.15148e-08
1.15209e-08
9.34059e-11
1.91709e-10
1.16602e-08
-7.1846e-11
-1.40648e-10
9.9821e-11
1.82412e-10
1.16455e-08
-1.36662e-10
1.07277e-10
1.77509e-10
1.16277e-08
-1.47491e-10
1.71652e-10
1.16119e-08
-1.55342e-10
8.57639e-11
2.16977e-10
1.16286e-08
-6.65897e-11
9.41468e-11
2.02439e-10
1.16116e-08
1.00782e-10
1.87409e-10
1.15945e-08
1.7164e-10
1.158e-08
7.09334e-11
2.22208e-10
1.15862e-08
-5.59614e-11
7.81579e-11
2.03683e-10
1.1573e-08
8.41587e-11
1.83379e-10
1.15607e-08
1.63796e-10
1.15513e-08
5.07792e-11
1.15411e-08
-4.03172e-11
5.70687e-11
1.15341e-08
6.42089e-11
1.1528e-08
1.15242e-08
5.75739e-11
1.2698e-10
1.16131e-08
-4.06635e-11
-9.67664e-11
6.70959e-11
1.2337e-10
1.16087e-08
-9.61849e-11
7.68522e-11
1.21245e-10
1.15982e-08
-1.01489e-10
1.18076e-10
1.15861e-08
-1.04717e-10
5.48018e-11
1.43506e-10
1.15966e-08
-3.92643e-11
6.47738e-11
1.37162e-10
1.15878e-08
7.36897e-11
1.29911e-10
1.15769e-08
1.21946e-10
1.15655e-08
4.8166e-11
1.47399e-10
1.15699e-08
-3.57954e-11
5.71245e-11
1.38787e-10
1.15624e-08
6.54543e-11
1.28513e-10
1.15537e-08
1.18106e-10
1.15448e-08
3.85313e-11
1.15413e-08
-2.95166e-11
4.64051e-11
1.15366e-08
5.48492e-11
1.15312e-08
1.15254e-08
3.71927e-11
8.54695e-11
1.15816e-08
-2.45112e-11
-6.66409e-11
4.61683e-11
8.45423e-11
1.15826e-08
-6.74749e-11
5.46977e-11
8.38721e-11
1.15762e-08
-7.04583e-11
8.23719e-11
1.15675e-08
-7.21908e-11
3.66334e-11
9.62739e-11
1.15739e-08
-2.47935e-11
4.54934e-11
9.39296e-11
1.15694e-08
5.33567e-11
9.06114e-11
1.15622e-08
8.66248e-11
1.15537e-08
3.40489e-11
9.93442e-11
1.15571e-08
-2.43803e-11
4.2013e-11
9.56844e-11
1.15526e-08
4.93112e-11
9.06417e-11
1.15463e-08
8.51859e-11
1.15391e-08
2.97162e-11
1.15386e-08
-2.22893e-11
3.6725e-11
1.15353e-08
4.37634e-11
1.15307e-08
1.15251e-08
2.49308e-11
5.81921e-11
1.15601e-08
-1.5676e-11
-4.59845e-11
3.22301e-11
5.84136e-11
1.1564e-08
-4.72253e-11
3.88673e-11
5.8489e-11
1.15602e-08
-4.91919e-11
5.79487e-11
1.1554e-08
-5.03962e-11
2.53264e-11
6.54124e-11
1.15578e-08
-1.65926e-11
3.23539e-11
6.4897e-11
1.15558e-08
3.84905e-11
6.3557e-11
1.15509e-08
6.16517e-11
1.15447e-08
2.46443e-11
6.78671e-11
1.15473e-08
-1.73569e-11
3.09477e-11
6.65874e-11
1.15445e-08
3.65938e-11
6.42444e-11
1.15399e-08
6.14489e-11
1.15343e-08
2.29137e-11
1.15352e-08
-1.71152e-11
2.84632e-11
1.15327e-08
3.37534e-11
1.15289e-08
1.15243e-08
1.71611e-11
3.99102e-11
1.15453e-08
-1.05217e-11
-3.17613e-11
2.26928e-11
4.05432e-11
1.15508e-08
-3.29937e-11
2.76e-11
4.09527e-11
1.15487e-08
-3.44322e-11
4.09107e-11
1.15444e-08
-3.53853e-11
1.78949e-11
4.48506e-11
1.15465e-08
-1.15716e-11
2.31518e-11
4.51001e-11
1.15459e-08
2.76899e-11
4.47171e-11
1.15424e-08
4.38869e-11
1.15379e-08
1.80278e-11
4.68043e-11
1.154e-08
-1.26652e-11
2.27437e-11
4.66053e-11
1.15382e-08
2.68846e-11
4.56229e-11
1.15348e-08
4.42393e-11
1.15305e-08
1.75212e-11
1.15318e-08
-1.31554e-11
2.16735e-11
1.153e-08
2.54769e-11
1.1527e-08
1.15232e-08
1.1989e-11
2.74317e-11
1.1535e-08
-7.29004e-12
-2.19077e-11
1.60097e-11
2.81406e-11
1.15415e-08
-2.29558e-11
1.95331e-11
2.86469e-11
1.15405e-08
-2.40592e-11
2.88251e-11
1.15374e-08
-2.48335e-11
1.27561e-11
3.08675e-11
1.15385e-08
-8.24715e-12
1.65616e-11
3.13727e-11
1.15387e-08
1.98101e-11
3.14162e-11
1.15363e-08
3.11167e-11
1.1533e-08
1.31784e-11
3.23984e-11
1.15345e-08
-9.31453e-12
1.65913e-11
3.26348e-11
1.15334e-08
1.95349e-11
3.23073e-11
1.15309e-08
3.16509e-11
1.15277e-08
1.3204e-11
1.1529e-08
-1.00092e-11
1.62074e-11
1.15277e-08
1.88688e-11
1.15252e-08
1.15223e-08
8.37895e-12
1.87499e-11
1.1528e-08
-5.11282e-12
-1.49925e-11
1.12195e-11
1.93862e-11
1.15351e-08
-1.58195e-11
1.36839e-11
1.98667e-11
1.15347e-08
-1.666e-11
2.01093e-11
1.15326e-08
-1.72722e-11
9.05118e-12
2.11484e-11
1.15329e-08
-5.88868e-12
1.17312e-11
2.16732e-11
1.15337e-08
1.39972e-11
2.1871e-11
1.1532e-08
2.18144e-11
1.15295e-08
9.51655e-12
2.23145e-11
1.15306e-08
-6.78566e-12
1.19214e-11
2.26752e-11
1.153e-08
1.39597e-11
2.26378e-11
1.1528e-08
2.23441e-11
1.15256e-08
9.73531e-12
1.15267e-08
-7.45289e-12
1.18465e-11
1.15258e-08
1.36632e-11
1.15239e-08
1.15215e-08
5.74703e-12
1.25626e-11
1.15232e-08
-3.54e-12
-1.00427e-11
7.68473e-12
1.30686e-11
1.15307e-08
-1.06544e-11
9.35426e-12
1.34641e-11
1.15308e-08
-1.12726e-11
1.36931e-11
1.15293e-08
-1.17322e-11
6.27458e-12
1.42103e-11
1.15292e-08
-4.117e-12
8.10171e-12
1.46527e-11
1.15303e-08
9.6317e-12
1.48723e-11
1.1529e-08
1.49123e-11
1.15271e-08
6.67698e-12
1.50606e-11
1.15279e-08
-4.80241e-12
8.31705e-12
1.54041e-11
1.15276e-08
9.68306e-12
1.54744e-11
1.15261e-08
1.53564e-11
1.15241e-08
6.92628e-12
1.15251e-08
-5.3472e-12
8.36197e-12
1.15244e-08
9.56636e-12
1.15229e-08
1.1521e-08
3.73662e-12
7.99916e-12
1.15202e-08
-2.32497e-12
-6.38711e-12
4.98063e-12
8.35768e-12
1.15279e-08
-6.80352e-12
6.04693e-12
8.6452e-12
1.15283e-08
-7.22656e-12
8.82441e-12
1.15272e-08
-7.54473e-12
4.10795e-12
9.07212e-12
1.15267e-08
-2.71564e-12
5.28236e-12
9.39552e-12
1.1528e-08
6.25698e-12
9.57663e-12
1.15271e-08
9.64018e-12
1.15256e-08
4.40561e-12
9.64871e-12
1.15261e-08
-3.19027e-12
5.4607e-12
9.91528e-12
1.1526e-08
6.32697e-12
1.00041e-11
1.15248e-08
9.96879e-12
1.15232e-08
4.61249e-12
1.1524e-08
-3.5825e-12
5.53306e-12
1.15235e-08
6.28816e-12
1.15222e-08
1.15207e-08
2.11999e-12
4.49248e-12
1.15185e-08
-1.32822e-12
-3.5833e-12
2.81662e-12
4.70595e-12
1.15263e-08
-3.82637e-12
3.41313e-12
4.88032e-12
1.15269e-08
-4.07454e-12
4.99372e-12
1.1526e-08
-4.26259e-12
2.33943e-12
5.10328e-12
1.15254e-08
-1.55352e-12
2.99943e-12
5.30057e-12
1.15268e-08
3.54381e-12
5.41789e-12
1.1526e-08
5.46847e-12
1.15247e-08
2.52188e-12
5.44137e-12
1.15251e-08
-1.8332e-12
3.11534e-12
5.60969e-12
1.15251e-08
3.59767e-12
5.67618e-12
1.1524e-08
5.67286e-12
1.15227e-08
2.65659e-12
1.15233e-08
-2.07078e-12
3.17268e-12
1.1523e-08
3.59038e-12
1.15219e-08
1.15205e-08
8.58701e-13
1.98146e-12
-5.206e-13
-1.5754e-12
1.15586e-12
2.08152e-12
-1.69298e-12
1.41009e-12
2.16011e-12
-1.80237e-12
2.21004e-12
-1.88391e-12
9.60216e-13
2.25553e-12
-6.27796e-13
1.23861e-12
2.34847e-12
1.46794e-12
2.40352e-12
2.42707e-12
1.04591e-12
2.41238e-12
-7.56845e-13
1.29328e-12
2.49217e-12
1.49349e-12
2.52555e-12
2.52717e-12
1.11053e-12
-8.67035e-13
1.32267e-12
1.49339e-12
-2.25924e-09
-1.7785e-09
1.54828e-08
-2.68303e-10
-2.2335e-09
-5.4295e-10
1.07547e-08
-5.41628e-10
-2.47624e-09
-6.74292e-11
9.32683e-09
-7.43476e-10
8.24182e-10
5.25396e-09
-2.92101e-10
3.3419e-09
6.05715e-10
8.10306e-09
-6.61756e-10
-3.48577e-10
1.60779e-08
-4.88964e-10
-6.89082e-10
1.1263e-08
-1.52074e-09
1.24524e-08
9.47676e-10
-7.74634e-10
1.61638e-08
-1.75073e-09
-5.92434e-10
1.70795e-08
-1.03683e-09
8.89407e-10
1.03516e-08
1.64645e-09
6.22016e-09
1.20844e-09
1.29191e-08
7.88087e-10
1.21109e-08
-4.14922e-10
1.63958e-08
1.43704e-08
-2.7167e-09
6.52513e-10
1.86582e-08
-1.08223e-09
-2.28669e-09
2.82798e-10
1.02862e-08
-2.44305e-10
4.98679e-10
1.41247e-10
5.3752e-09
1.02502e-09
5.10608e-11
5.53786e-09
2.64621e-10
-2.97751e-09
-9.13385e-10
1.26783e-08
-2.38864e-09
-1.06346e-09
1.68353e-08
3.31665e-10
2.5126e-10
8.43264e-09
-2.12367e-10
1.42793e-08
-1.83306e-09
1.93775e-10
1.68766e-08
4.73207e-10
5.21378e-10
1.31884e-08
-4.72401e-10
-1.08761e-09
1.2636e-08
-2.2525e-10
6.93193e-09
-1.15762e-09
1.35515e-08
-2.73962e-09
1.16821e-08
8.26311e-10
1.02117e-08
1.50311e-08
6.83564e-10
1.29206e-09
1.5988e-08
6.64531e-10
9.37856e-10
1.03846e-09
8.69616e-09
2.97294e-10
-4.45733e-10
2.30344e-10
6.63191e-09
-1.03458e-10
1.17451e-09
4.57655e-09
5.61904e-11
1.09736e-09
1.18085e-09
1.17439e-08
-2.64057e-10
9.37971e-10
1.82972e-08
-8.78802e-11
8.35136e-10
7.65167e-09
-1.41259e-10
1.48438e-08
3.04115e-10
9.57191e-10
1.69426e-08
-4.52404e-10
-9.21727e-10
1.58046e-08
-1.32862e-09
-1.50056e-09
1.5848e-08
-4.39491e-10
7.14692e-09
-2.72161e-09
1.83918e-08
-2.16193e-10
5.03359e-09
3.52867e-10
7.01999e-09
1.55124e-08
-1.18787e-09
-3.17203e-10
1.7258e-08
2.13695e-10
1.30653e-09
4.41611e-10
5.65728e-09
1.02866e-10
-1.78028e-09
-1.19386e-11
1.0838e-08
-1.10736e-09
4.98987e-10
2.16517e-09
-7.44693e-12
2.44986e-09
1.68653e-09
7.30476e-09
4.77369e-10
1.47334e-09
1.9238e-08
-7.54033e-10
8.78229e-10
7.9929e-09
1.68151e-09
1.15436e-08
-2.45183e-09
-1.34224e-10
2.13209e-08
1.34985e-10
7.53803e-10
1.39374e-08
1.96827e-10
1.19272e-09
1.54716e-08
-1.07259e-09
1.06514e-08
3.11331e-10
1.89983e-08
5.03553e-11
9.28844e-09
-2.4748e-09
1.25573e-08
1.07501e-08
3.8736e-10
5.49039e-10
1.65183e-08
-1.56422e-10
1.78126e-09
-1.35944e-11
4.09413e-09
1.82849e-10
2.27932e-09
1.50374e-11
1.0641e-08
-3.16058e-10
-6.72689e-10
8.33655e-09
-1.15042e-09
-1.46728e-09
1.73982e-11
9.2902e-09
1.81091e-09
1.05107e-09
1.48951e-08
-3.79766e-10
-3.64463e-10
1.05631e-08
7.63269e-10
1.17408e-08
8.66187e-10
-2.98957e-10
2.05565e-08
-7.85238e-10
5.88499e-10
1.60514e-08
1.13705e-09
1.70071e-09
1.14842e-08
5.11871e-10
1.20913e-08
1.97356e-09
1.56782e-08
1.57902e-10
1.11619e-08
-3.62877e-10
1.58523e-08
1.30896e-08
2.38571e-09
5.68591e-10
1.45147e-08
-8.14451e-10
-5.54838e-10
-2.03332e-10
8.08908e-09
-8.51062e-10
-6.64492e-10
3.35689e-10
1.26308e-08
-2.21591e-09
9.56279e-10
8.1146e-09
-5.90358e-10
1.24649e-09
6.86332e-10
7.93757e-09
2.45711e-10
1.00345e-09
1.46891e-08
9.83341e-11
5.8622e-10
1.04599e-08
-4.19929e-10
1.39845e-08
2.18077e-09
-7.50909e-10
1.93769e-08
-5.65785e-10
-2.18401e-09
2.19854e-08
-1.20309e-09
-4.67122e-10
1.31748e-08
-2.04896e-09
1.33638e-08
2.84439e-10
1.52021e-08
2.24632e-09
6.0283e-09
-3.67964e-09
2.18571e-08
5.05231e-09
1.52834e-09
-4.88721e-10
1.81111e-08
-4.92434e-10
-3.69112e-09
-1.62191e-09
1.66893e-08
-1.75897e-09
-1.82162e-09
-3.31774e-09
1.56268e-08
-1.54763e-09
-2.1114e-09
1.01459e-08
-1.58184e-09
-6.27417e-09
-2.97091e-09
1.85074e-08
-9.92924e-09
-2.13186e-09
1.88542e-08
-5.59743e-09
-7.64468e-09
1.04549e-08
-6.52005e-09
1.2962e-08
-4.47651e-10
-2.76994e-09
1.79481e-08
2.79535e-10
-6.66935e-09
2.57958e-08
-3.60713e-09
-5.9241e-09
1.53409e-08
-2.12003e-08
2.06137e-08
4.36477e-09
1.77014e-08
-2.07523e-11
1.02033e-08
-8.95442e-11
1.78336e-08
1.04328e-09
6.23784e-10
-1.61028e-09
1.60234e-08
3.07424e-09
1.31439e-09
-1.77124e-09
1.55156e-08
2.25446e-09
1.30117e-09
-1.89552e-09
1.37557e-08
3.77987e-09
-2.29582e-09
9.62584e-09
2.42572e-09
-3.1479e-09
-1.56698e-09
2.1612e-08
-2.59636e-09
-1.77076e-09
1.83022e-08
-2.39169e-09
-1.6349e-09
9.98943e-09
-6.58453e-10
9.04879e-09
-2.13289e-09
2.73157e-09
1.57826e-08
7.67537e-10
1.18555e-09
1.9939e-08
2.17529e-10
-1.81105e-10
1.44371e-08
1.44068e-09
1.68937e-08
-6.8013e-10
1.99962e-08
-3.88705e-09
1.72221e-08
1.06158e-09
1.18065e-08
8.33456e-09
8.7416e-10
9.63268e-10
1.29467e-08
1.23932e-09
2.01081e-09
1.35938e-09
1.24517e-08
5.67895e-10
2.96025e-09
2.28546e-09
1.06757e-08
-1.54918e-10
2.07081e-09
8.23102e-09
-5.05247e-10
3.05907e-09
2.82713e-09
1.66891e-08
4.65152e-09
2.78617e-09
1.5283e-08
2.44228e-09
2.60764e-09
1.18765e-08
1.77763e-09
9.92864e-09
-8.33549e-10
2.92625e-09
1.6517e-08
1.18881e-09
3.36801e-09
1.73348e-08
5.78786e-10
3.28247e-09
1.43723e-08
4.25198e-09
1.30178e-08
1.85867e-09
1.82378e-08
2.95927e-09
1.58894e-08
1.0718e-09
1.32196e-08
1.08306e-08
-1.29945e-11
1.00695e-10
1.21578e-08
7.01244e-10
7.10202e-10
1.79215e-10
1.09774e-08
5.71972e-10
1.07147e-09
3.86059e-10
9.51709e-09
4.11274e-10
4.20186e-10
7.74731e-09
1.83761e-10
6.30365e-10
8.58519e-10
1.5301e-08
1.46666e-09
8.65377e-10
1.37606e-08
1.09527e-09
9.01958e-10
1.17321e-08
7.78086e-10
9.91179e-09
-2.80796e-10
1.5524e-09
1.61039e-08
6.00859e-10
1.92226e-09
1.53963e-08
5.59199e-10
1.80677e-09
1.35092e-08
1.89611e-09
1.17828e-08
5.36697e-10
1.74518e-08
8.35422e-10
1.56624e-08
4.89206e-10
1.35713e-08
1.17426e-08
2.58524e-10
2.70512e-10
1.14567e-08
1.72123e-10
4.6007e-10
3.26873e-10
1.03224e-08
1.26633e-10
6.01785e-10
4.10485e-10
8.90294e-09
6.20033e-11
4.40703e-10
7.32826e-09
-1.15917e-11
4.92226e-10
7.26133e-10
1.43532e-08
7.17725e-10
7.57566e-10
1.31045e-08
6.21529e-10
7.54427e-10
1.14844e-08
6.98013e-10
9.79695e-09
8.1494e-11
9.19284e-10
1.58293e-08
3.89759e-10
1.04974e-09
1.4796e-08
3.88477e-10
1.07756e-09
1.31875e-08
1.04475e-09
1.14778e-08
3.97571e-10
1.68156e-08
4.64983e-10
1.54395e-08
2.81202e-10
1.37275e-08
1.20316e-08
1.17035e-10
1.4983e-10
1.11407e-08
4.91202e-11
2.45228e-10
1.77248e-10
9.98477e-09
3.23083e-11
2.99341e-10
2.11763e-10
8.63155e-09
5.5747e-12
2.34417e-10
7.15446e-09
-2.29479e-11
1.99068e-10
4.08623e-10
1.38954e-08
3.22503e-10
4.38999e-10
1.27194e-08
3.12374e-10
4.46131e-10
1.12603e-08
4.2816e-10
9.68298e-09
7.16712e-11
5.35106e-10
1.56312e-08
2.05344e-10
5.92554e-10
1.45089e-08
2.20723e-10
6.12996e-10
1.30053e-08
5.83918e-10
1.13705e-08
1.52962e-10
1.65364e-08
1.95371e-10
1.53048e-08
1.43697e-10
1.37485e-08
1.2108e-08
8.03544e-11
1.08444e-10
1.0952e-08
5.82055e-15
1.38519e-10
1.23021e-10
9.81258e-09
-8.95343e-12
1.58743e-10
1.39402e-10
8.49159e-09
-1.96284e-11
1.5219e-10
7.05801e-09
-3.13547e-11
1.028e-10
2.48864e-10
1.36522e-08
1.59413e-10
2.68443e-10
1.25174e-08
1.60067e-10
2.76718e-10
1.11224e-08
2.72218e-10
9.60213e-09
5.53659e-11
3.26103e-10
1.54987e-08
1.11986e-10
3.55634e-10
1.43652e-08
1.20534e-10
3.6792e-10
1.29056e-08
3.53121e-10
1.13158e-08
6.4604e-11
1.64157e-08
8.65665e-11
1.52417e-08
7.70369e-11
1.37418e-08
1.21289e-08
4.94157e-11
7.62111e-11
1.08411e-08
-1.47523e-11
8.0141e-11
8.51648e-11
9.71562e-09
-1.89338e-11
8.82043e-11
9.41107e-11
8.41337e-09
-2.3956e-11
1.01559e-10
7.00214e-09
-2.93195e-11
5.57987e-11
1.54898e-10
1.35178e-08
8.51635e-11
1.67865e-10
1.24054e-08
8.6823e-11
1.75e-10
1.10398e-08
1.7499e-10
9.54893e-09
3.69243e-11
2.03318e-10
1.54134e-08
6.40889e-11
2.20347e-10
1.42855e-08
6.89468e-11
2.28264e-10
1.28475e-08
2.22055e-10
1.12818e-08
3.0129e-11
1.63617e-08
4.35902e-11
1.52106e-08
4.53222e-11
1.37315e-08
1.2132e-08
3.03234e-11
5.2907e-11
1.07737e-08
-1.57778e-11
4.78393e-11
5.85806e-11
9.65759e-09
-1.8122e-11
5.14405e-11
6.40279e-11
8.36657e-09
-2.08586e-11
6.86186e-11
6.96794e-09
-2.36652e-11
3.19238e-11
9.85352e-11
1.34402e-08
4.86799e-11
1.07166e-10
1.234e-08
5.02493e-11
1.12743e-10
1.09895e-08
1.141e-10
9.51438e-09
2.35387e-11
1.28981e-10
1.53594e-08
3.86447e-11
1.39609e-10
1.4238e-08
4.2097e-11
1.45312e-10
1.28114e-08
1.43372e-10
1.12587e-08
1.61314e-11
1.63348e-08
2.55361e-11
1.51926e-08
2.95791e-11
1.37221e-08
1.21292e-08
1.90039e-11
3.63579e-11
1.07313e-08
-1.30527e-11
2.96336e-11
4.0041e-11
9.62129e-09
-1.44545e-11
3.15456e-11
4.35679e-11
8.33716e-09
-1.61087e-11
4.65381e-11
6.94604e-09
-1.76559e-11
1.92585e-11
6.38394e-11
1.33935e-08
2.95681e-11
6.96297e-11
1.23e-08
3.09472e-11
7.38054e-11
1.09578e-08
7.54192e-11
9.49158e-09
1.51609e-11
8.31608e-11
1.53249e-08
2.46136e-11
9.01727e-11
1.42079e-08
2.73616e-11
9.45152e-11
1.27879e-08
9.44897e-11
1.12425e-08
9.98736e-12
1.63191e-08
1.69343e-11
1.51806e-08
2.09657e-11
1.37139e-08
1.21246e-08
1.2265e-11
2.48478e-11
1.0704e-08
-9.82388e-12
1.90579e-11
2.72783e-11
9.59782e-09
-1.06939e-11
2.0256e-11
2.96412e-11
8.318e-09
-1.17336e-11
3.16364e-11
6.93156e-09
-1.26425e-11
1.22101e-11
4.19975e-11
1.33641e-08
1.89352e-11
4.59165e-11
1.22746e-08
2.01379e-11
4.89809e-11
1.09371e-08
5.04623e-11
9.4762e-09
1.00871e-11
5.44759e-11
1.53023e-08
1.64669e-11
5.92578e-11
1.41881e-08
1.8725e-11
6.2578e-11
1.2772e-08
6.3305e-11
1.1231e-08
6.89342e-12
1.63085e-08
1.21558e-11
1.51717e-08
1.55688e-11
1.3707e-08
1.21198e-08
8.13038e-12
1.69236e-11
1.0686e-08
-7.06502e-12
1.26547e-11
1.85429e-11
9.58228e-09
-7.61641e-12
1.35036e-11
2.01577e-11
8.30523e-09
-8.28595e-12
2.15308e-11
6.92179e-09
-8.82937e-12
8.06131e-12
2.79446e-11
1.3345e-08
1.26384e-11
3.06166e-11
1.22578e-08
1.36584e-11
3.28391e-11
1.09233e-08
3.40739e-11
9.46566e-09
6.93264e-12
3.61788e-11
1.52871e-08
1.14332e-11
3.94922e-11
1.41747e-08
1.32583e-11
4.19989e-11
1.27609e-08
4.29247e-11
1.12226e-08
5.04866e-12
1.63007e-08
9.06481e-12
1.51648e-08
1.17884e-11
1.37014e-08
1.21156e-08
5.49339e-12
1.14816e-11
1.06739e-08
-4.94251e-12
8.58605e-12
1.25652e-11
9.57183e-09
-5.29476e-12
9.22027e-12
1.36781e-11
8.2966e-09
-5.72946e-12
1.46368e-11
6.91513e-09
-6.06167e-12
5.46785e-12
1.87149e-11
1.33322e-08
8.66197e-12
2.05427e-11
1.22466e-08
9.49507e-12
2.21384e-11
1.09139e-08
2.31143e-11
9.45837e-09
4.8633e-12
2.42481e-11
1.52767e-08
8.10191e-12
2.65536e-11
1.41654e-08
9.53571e-12
2.84121e-11
1.27531e-08
2.92874e-11
1.12166e-08
3.7714e-12
1.62948e-08
6.81885e-12
1.51595e-08
8.91403e-12
1.3697e-08
1.21121e-08
3.73516e-12
7.72584e-12
1.06658e-08
-3.38084e-12
5.86795e-12
8.44876e-12
9.5648e-09
-3.60369e-12
6.34485e-12
9.21372e-12
8.29076e-09
-3.8859e-12
9.88313e-12
6.91059e-09
-4.09004e-12
3.7455e-12
1.25193e-11
1.33237e-08
5.98747e-12
1.37644e-11
1.2239e-08
6.63999e-12
1.48938e-11
1.09076e-08
1.56321e-11
9.45334e-09
3.42467e-12
1.62655e-11
1.52695e-08
5.75223e-12
1.78601e-11
1.41589e-08
6.84203e-12
1.92069e-11
1.27477e-08
1.99344e-11
1.12123e-08
2.79571e-12
1.62904e-08
5.06446e-12
1.51556e-08
6.6275e-12
1.36936e-08
1.21095e-08
2.50684e-12
5.09523e-12
1.06605e-08
-2.24645e-12
3.95725e-12
5.57022e-12
9.56013e-09
-2.38497e-12
4.30704e-12
6.08682e-12
8.28687e-09
-2.56527e-12
6.54497e-12
6.90756e-09
-2.68905e-12
2.53489e-12
8.24517e-12
1.3318e-08
4.08207e-12
9.07782e-12
1.22339e-08
4.56703e-12
9.85636e-12
1.09033e-08
1.03891e-11
9.44995e-09
2.3685e-12
1.07525e-11
1.52647e-08
4.00179e-12
1.18327e-11
1.41545e-08
4.7936e-12
1.27754e-11
1.27439e-08
1.33298e-11
1.12093e-08
2.00898e-12
1.62872e-08
3.6386e-12
1.51527e-08
4.75669e-12
1.36911e-08
1.21075e-08
1.60503e-12
3.19911e-12
1.06571e-08
-1.4136e-12
2.54138e-12
3.49788e-12
9.55717e-09
-1.49622e-12
2.78153e-12
3.8303e-12
8.28441e-09
-1.60642e-12
4.1272e-12
6.90563e-09
-1.6783e-12
1.63606e-12
5.18144e-12
1.33144e-08
2.64543e-12
5.71173e-12
1.22307e-08
2.97767e-12
6.21831e-12
1.09006e-08
6.57673e-12
9.44778e-09
1.55299e-12
6.78295e-12
1.52615e-08
2.6319e-12
7.47706e-12
1.41517e-08
3.16617e-12
8.09642e-12
1.27415e-08
8.48096e-12
1.12074e-08
1.35254e-12
1.62851e-08
2.44485e-12
1.51507e-08
3.1916e-12
1.36895e-08
1.21062e-08
9.12799e-13
1.77827e-12
1.06552e-08
-7.86354e-13
1.43566e-12
1.94759e-12
9.55553e-09
-8.3213e-13
1.57435e-12
2.13731e-12
8.28303e-09
-8.92996e-13
2.30625e-12
6.90455e-09
-9.30831e-13
9.34341e-13
2.88146e-12
1.33124e-08
1.50341e-12
3.1819e-12
1.22289e-08
1.69408e-12
3.47168e-12
1.0899e-08
3.68126e-12
9.44656e-09
8.94124e-13
3.78317e-12
1.52597e-08
1.50928e-12
4.17771e-12
1.41501e-08
1.8169e-12
4.53326e-12
1.27401e-08
4.76135e-12
1.12063e-08
7.90219e-13
1.62838e-08
1.41982e-12
1.51496e-08
1.84926e-12
1.36885e-08
1.21054e-08
3.74969e-13
7.74015e-13
-3.55182e-13
6.02546e-13
8.61899e-13
-3.84149e-13
6.49725e-13
9.51207e-13
-4.15451e-13
1.03044e-12
-4.35698e-13
3.87661e-13
1.25259e-12
6.33659e-13
1.40231e-12
7.05609e-13
1.5365e-12
1.63504e-12
3.74589e-13
1.64923e-12
6.38505e-13
1.84197e-12
7.6211e-13
2.00572e-12
2.11244e-12
3.34158e-13
6.03053e-13
7.80834e-13
-1.3724e-09
-4.16173e-09
1.64429e-08
-3.91795e-10
1.03305e-09
1.17958e-08
-4.84216e-10
7.88514e-10
1.50553e-08
1.15604e-09
1.34069e-08
-5.98683e-12
-1.03666e-09
6.13593e-09
-7.25334e-10
-1.6876e-09
1.57567e-08
-5.93735e-11
2.36845e-10
1.41246e-08
2.43162e-10
1.63064e-08
-1.10251e-11
-3.40492e-10
7.03155e-09
3.31566e-10
-1.00231e-09
9.81835e-09
-5.23195e-11
-1.63432e-09
1.49858e-08
-1.49577e-09
1.55474e-08
-4.60367e-10
7.72971e-09
-8.86815e-11
7.30636e-09
-2.00325e-11
8.74081e-09
1.01189e-08
2.05239e-10
-5.16186e-11
1.5135e-08
-6.3158e-10
6.23089e-10
1.19694e-08
9.7539e-10
6.88318e-10
1.26983e-08
-2.48606e-09
2.07763e-08
1.6389e-10
1.57725e-09
4.09887e-09
-5.42379e-10
-1.31629e-09
1.84024e-08
-3.02535e-11
-1.03461e-09
1.53354e-08
-3.12258e-09
1.90022e-08
-1.39209e-09
-3.1688e-09
1.41947e-08
-5.94498e-10
6.67906e-10
7.03657e-09
-1.47099e-09
-5.64801e-10
1.53925e-08
3.05749e-09
8.12965e-09
5.39178e-10
5.11272e-09
-7.94752e-10
1.09632e-08
1.03265e-09
7.59566e-09
1.98222e-08
-8.33647e-11
-1.84709e-10
1.60917e-08
2.00182e-10
1.57595e-09
1.0067e-08
1.00633e-09
-1.33277e-09
1.33345e-08
-3.85768e-09
2.84715e-08
2.92254e-10
-8.52894e-10
4.7721e-09
-1.29639e-09
-1.89205e-09
2.3459e-08
-1.74861e-10
-2.05256e-09
1.49336e-08
-2.38876e-10
1.60604e-08
-8.81676e-10
1.66709e-10
1.39533e-08
-8.38398e-10
-5.83449e-10
5.68469e-09
6.97275e-10
3.85096e-10
1.14191e-08
-3.03894e-09
1.14003e-08
-8.13788e-10
6.4857e-09
-8.40992e-10
1.04504e-08
-1.78454e-09
1.05673e-08
1.62753e-08
-2.22267e-10
-1.76937e-09
1.83289e-08
-2.96125e-11
-9.63094e-10
1.08444e-08
6.22559e-10
-7.35727e-10
1.34097e-08
-2.14448e-09
3.12843e-08
6.57566e-11
-1.83344e-09
4.87328e-09
-7.85934e-12
1.91939e-09
2.06502e-08
3.24997e-10
-4.12571e-10
1.42776e-08
-1.78751e-10
1.38853e-08
1.51407e-09
2.357e-09
7.14145e-09
-7.15245e-10
-1.37074e-09
1.12041e-08
5.29387e-10
2.66461e-10
9.49547e-09
-1.96953e-09
1.28257e-08
-6.03675e-11
7.44534e-09
4.57635e-10
8.02777e-09
-1.12813e-09
1.2742e-08
1.16968e-08
7.95074e-10
2.63854e-09
1.47888e-08
1.37365e-11
-1.18043e-09
1.28073e-08
-3.2775e-10
-5.87569e-10
1.43924e-08
2.59262e-10
3.02711e-08
-3.49254e-10
-3.24841e-10
8.36877e-09
-1.36919e-11
1.93288e-09
1.72013e-08
1.25943e-10
6.52555e-10
1.28979e-08
1.02298e-09
1.15687e-08
1.57473e-10
-1.39512e-09
7.73819e-09
-3.00227e-10
8.53823e-10
1.27409e-08
4.33856e-10
3.86794e-10
9.02715e-09
7.61886e-10
1.42313e-08
1.1571e-09
3.31207e-09
-5.66159e-10
1.07438e-08
1.13883e-09
1.02611e-08
1.57114e-08
-1.94538e-10
5.2308e-09
8.97738e-09
1.211e-09
-1.49459e-09
1.31192e-08
-1.16844e-09
9.9847e-10
1.56642e-08
4.46709e-09
2.53668e-08
-2.60302e-09
-2.42233e-09
1.77739e-08
2.51026e-09
6.60771e-09
3.98572e-09
5.02612e-10
2.61473e-09
1.32893e-08
3.84627e-09
1.13844e-08
3.2568e-10
4.03818e-09
-1.26388e-09
1.45751e-09