/*--------------------------------*- C++ -*----------------------------------*\
| =========                 |                                                 |
| \\      /  F ield         | OpenFOAM: The Open Source CFD Toolbox           |
|  \\    /   O peration     | Version:  2506                                  |
|   \\  /    A nd           | Website:  www.openfoam.com                      |
|    \\/     M anipulation  |                                                 |
\*---------------------------------------------------------------------------*/
FoamFile
{
    version     2.0;
    format      ascii;
    arch        "LSB;label=32;scalar=64";
    class       volVectorField;
    location    "0.01";
    object      stored_U;
}
// * * * * * * * * * * * * * * * * * * * * * * * * * * * * * * * * * * * * * //

dimensions      [0 1 -1 0 0 0 0];

internalField   nonuniform List<vector> 
1152
(
(-0.000195371 -6.31051e-05 0.00303623)
(8.32488e-05 0.00021297 0.00581316)
(-0.00143482 -0.00051761 0.00653883)
(-1.68062e-05 -0.000167924 0.00136525)
(-0.000371324 0.000176204 0.004749)
(-0.000801676 7.85966e-06 0.00534754)
(-0.000612872 2.96949e-05 0.00413356)
(0.000187132 0.000420428 0.00476562)
(0.00029743 5.74016e-05 0.00688031)
(-0.000846776 0.000390408 0.0043803)
(-0.00125559 0.000648131 0.00582441)
(-0.00050092 0.000189293 0.0069513)
(-0.000231068 0.000107653 0.00457614)
(-0.000772173 -0.00122461 0.0110376)
(-0.00119297 -0.000879404 0.00601211)
(-0.000416942 -0.00020048 0.00497)
(-0.000312994 -0.000533816 0.00803227)
(-0.000698123 -0.000977384 0.00995137)
(-0.000176319 0.000155274 0.0120763)
(-7.39251e-05 -0.000118 0.00128847)
(-0.000764482 -0.000586327 0.0103189)
(8.07494e-05 -0.000280706 0.0101935)
(-2.176e-05 -0.000153197 0.00211009)
(-0.000589845 -9.14815e-06 0.00721719)
(-0.000413953 -0.000124918 0.00580968)
(-0.000206706 -0.000533497 0.00945759)
(0.000279388 -0.00158975 0.0126862)
(-5.69629e-05 -0.000236061 0.00132875)
(-0.000886948 0.000476007 0.00840963)
(-0.000382733 0.000108437 0.00409163)
(-0.000296227 -6.03087e-05 0.00738412)
(0.00032479 -0.000183394 0.00620553)
(-0.000216354 0.000162305 0.00487701)
(-0.00114653 -0.000304991 0.00781832)
(0.000173934 0.000119742 0.00370531)
(-0.00012682 -0.00014086 0.000169428)
(-0.000345413 -0.000133667 0.00329874)
(-0.000290382 -0.000170593 0.00440371)
(0.00134755 0.000741428 0.0123276)
(-0.000131784 -0.000723613 0.00930309)
(-0.000867766 -0.00086898 0.00913747)
(-0.000600703 0.000517403 0.00900525)
(9.69402e-05 -0.000141801 0.00338768)
(0.00100248 8.23153e-05 0.0165399)
(-0.000119248 0.000181669 0.00554937)
(0.000214238 0.000471997 0.0157005)
(0.000197936 0.000147027 0.00414241)
(-0.000145222 -4.71694e-05 0.00158605)
(0.000187563 0.000523609 0.00751333)
(-0.000339103 0.000916485 0.0156432)
(-0.000128715 -7.13114e-05 0.00580636)
(-0.000449392 0.000553525 0.0139461)
(0.000633647 0.000573293 0.0176306)
(-0.00041688 0.000231471 0.00754519)
(-0.000669172 -0.000117086 0.0113093)
(0.000366348 0.000151373 0.00907056)
(-0.000248429 0.000298522 0.00404575)
(-0.00049829 -0.000343789 0.00683063)
(-0.000194417 -7.84412e-05 0.0070929)
(-8.39316e-05 -3.94331e-05 0.000264245)
(-0.000205001 -4.72677e-05 0.00370587)
(-0.00209293 -0.000389311 0.0158095)
(-2.7235e-05 6.91741e-05 0.00908987)
(0.000130928 -0.00231131 0.0200821)
(-0.000657964 0.000121912 0.00748072)
(0.000237895 -4.92374e-05 0.00473612)
(-0.000175909 -0.000134082 0.0039979)
(-0.000416195 -0.000257553 0.00761658)
(-0.000233787 0.000570452 0.00689455)
(2.47253e-05 1.43778e-05 0.00995053)
(-4.72759e-05 -0.000758864 0.00885407)
(0.000245745 5.49249e-05 0.00428803)
(-0.000279454 0.000692846 0.00775079)
(-0.00109098 -0.000633454 0.0121049)
(-8.33899e-05 -0.00012831 0.00279279)
(-0.000166482 -0.00284485 0.020585)
(-0.00229379 -0.000321705 0.0172739)
(-0.000395225 -7.22768e-06 0.00317438)
(-0.000275337 -0.000187707 0.00341541)
(-2.66859e-05 -1.24613e-05 0.000436293)
(-0.000159431 0.00019255 0.00279318)
(-0.000650239 -0.000248964 0.0102324)
(-0.000577132 -0.000942121 0.00738807)
(0.000191479 -0.000649142 0.00714928)
(-0.000529642 -0.000169676 0.0065471)
(-0.000815174 -0.00033281 0.00571276)
(-0.00058708 -4.19778e-05 0.00487023)
(-9.40233e-05 3.00851e-05 0.00770386)
(-0.000608653 -0.000511495 0.00621988)
(-0.000523988 -0.000450763 0.00699228)
(-7.08839e-05 -4.87203e-05 0.00232068)
(6.2598e-05 8.57412e-05 0.00558848)
(-0.000113185 -0.000353681 0.00389991)
(-0.000758104 -0.000172468 0.0057562)
(-0.000242397 -0.000393318 0.00591541)
(-0.000807344 -0.000753726 0.00854881)
(0.00010974 0.00086206 0.00335527)
(0.000242469 5.68701e-05 0.00667994)
(0.000157184 0.000430177 0.00486326)
(-4.37533e-05 0.000405127 0.00413415)
(-0.000116785 -0.000502343 0.00691701)
(0.000231265 0.000125812 0.00606558)
(-0.000221285 0.000802988 0.0034538)
(0.000697993 0.000128579 0.000948826)
(0.000673743 0.000479695 0.00548357)
(0.000661743 0.000400289 0.00639106)
(0.000607272 0.000769816 0.00258465)
(0.000143458 0.000235541 0.0116348)
(0.00119698 0.00099702 0.0101894)
(0.000746983 0.00152555 0.00333352)
(0.000795458 -0.000143224 0.00134227)
(0.00220081 0.00178503 0.00222911)
(0.000159721 -0.00089562 0.00793259)
(-0.000318077 -0.000293782 0.0102978)
(-2.14363e-05 0.000404351 0.00748774)
(-0.00010244 0.000634008 0.00754064)
(0.000177899 -0.000489521 0.00671894)
(0.000276363 -0.000132854 0.00725333)
(0.000318705 0.000251233 0.00603699)
(2.82375e-06 -3.31884e-05 0.00625136)
(0.000551438 0.000305911 0.00828704)
(0.000474836 0.000452032 0.007032)
(7.69084e-05 0.000557501 0.00645947)
(5.08956e-05 0.000551072 0.0109148)
(-0.000273119 0.000659327 0.0109821)
(0.000579312 0.00055989 0.00773625)
(0.000486092 0.000350988 0.00464013)
(0.00067802 0.000681934 0.00775789)
(0.000691691 0.00131853 0.00186869)
(0.000655446 0.00114787 0.00210552)
(0.000499314 0.000715361 0.00164242)
(-9.51366e-05 0.000814053 0.00152593)
(0.000528581 0.000733415 0.00153464)
(0.000490754 0.000848959 0.00151665)
(0.000267555 0.000515839 0.00126731)
(-0.000169617 0.000134537 0.00121827)
(0.000671437 0.000333253 0.00180362)
(0.000488256 0.000475082 0.00149822)
(-0.00018771 0.000401665 0.00126027)
(-0.00052279 7.93885e-05 0.00183104)
(0.000126239 0.000405853 0.00188042)
(0.000562019 0.000346428 0.00146098)
(-0.000118519 0.000270044 0.00101269)
(-0.000687153 0.000343778 0.00116885)
(0.000248766 0.000299826 0.00486374)
(0.000187549 0.000278778 0.00478212)
(0.000110903 0.000290318 0.00439103)
(3.84868e-06 0.000355375 0.00440676)
(0.00021054 0.000280547 0.00443184)
(0.000176693 0.000297874 0.00433866)
(8.6431e-05 0.000245636 0.0041321)
(-9.68586e-06 0.000153519 0.00418415)
(0.00022032 0.000253333 0.00442487)
(0.00016977 0.000252651 0.00422686)
(-2.87712e-05 0.000218235 0.00410698)
(-0.000112017 0.000128953 0.00442029)
(3.97046e-05 0.000315362 0.00436914)
(0.000141233 0.000256518 0.00414542)
(-3.60886e-05 0.000195732 0.0039708)
(-0.000124887 0.00019411 0.00424981)
(0.00017368 0.000229809 0.00389825)
(0.000147109 0.000200108 0.00386857)
(9.80268e-05 0.000189686 0.00380344)
(6.12011e-05 0.000204071 0.00382684)
(0.000142326 0.000238209 0.00380866)
(0.0001232 0.0002168 0.00377412)
(7.8795e-05 0.000184931 0.00372583)
(4.83312e-05 0.00015054 0.00374955)
(0.000116171 0.000221926 0.0037955)
(9.89654e-05 0.000198152 0.00374173)
(3.35417e-05 0.000167663 0.00370842)
(5.05905e-06 0.000127313 0.00379336)
(5.25138e-05 0.00022354 0.00373094)
(6.76071e-05 0.000188903 0.00368644)
(8.01052e-06 0.000151535 0.00365191)
(-1.10582e-05 0.000131261 0.00373001)
(8.35822e-05 0.00012033 0.00393102)
(7.67005e-05 0.000112373 0.00389277)
(6.07681e-05 0.000114518 0.0038545)
(5.60675e-05 0.000119423 0.00385072)
(7.46093e-05 0.000144815 0.00386707)
(6.91483e-05 0.000133372 0.00383559)
(5.4987e-05 0.000121644 0.00380677)
(4.93037e-05 0.000109572 0.0038058)
(5.99991e-05 0.000148623 0.00382515)
(5.51013e-05 0.000133608 0.00379653)
(3.76136e-05 0.000117093 0.00377731)
(3.16447e-05 9.95014e-05 0.00379486)
(3.57816e-05 0.000146027 0.00377412)
(3.65781e-05 0.000127341 0.00375452)
(2.08088e-05 0.000107572 0.00374205)
(1.86086e-05 9.20622e-05 0.00376485)
(4.47381e-05 7.50982e-05 0.00387719)
(4.43202e-05 7.19528e-05 0.00385898)
(4.10786e-05 7.37741e-05 0.00384259)
(4.33654e-05 7.50801e-05 0.00383549)
(4.11374e-05 9.19308e-05 0.00384707)
(4.12901e-05 8.62173e-05 0.0038303)
(3.8788e-05 8.11713e-05 0.00381593)
(3.97588e-05 7.58079e-05 0.00380985)
(3.39905e-05 9.73118e-05 0.00381692)
(3.40557e-05 8.94151e-05 0.00380322)
(3.10045e-05 8.09083e-05 0.00379322)
(3.16455e-05 7.2344e-05 0.00379287)
(2.33927e-05 9.51404e-05 0.00378415)
(2.42227e-05 8.5441e-05 0.00377558)
(2.16494e-05 7.50653e-05 0.00377028)
(2.34756e-05 6.59577e-05 0.00377399)
(2.5088e-05 4.93383e-05 0.00384471)
(2.71893e-05 4.82918e-05 0.00383618)
(2.83936e-05 4.93236e-05 0.00382753)
(3.16574e-05 4.95177e-05 0.00382089)
(2.38552e-05 5.98213e-05 0.00382846)
(2.60079e-05 5.72856e-05 0.0038196)
(2.73745e-05 5.4992e-05 0.00381136)
(2.97841e-05 5.23182e-05 0.00380523)
(2.0692e-05 6.39885e-05 0.00380877)
(2.25307e-05 6.02193e-05 0.0038016)
(2.36366e-05 5.59493e-05 0.00379543)
(2.57555e-05 5.15262e-05 0.00379159)
(1.58251e-05 6.27659e-05 0.003788)
(1.75498e-05 5.79844e-05 0.00378349)
(1.86391e-05 5.26186e-05 0.00377997)
(2.10908e-05 4.75597e-05 0.00377849)
(1.484e-05 3.31997e-05 0.00382352)
(1.74593e-05 3.30876e-05 0.00381999)
(1.97853e-05 3.369e-05 0.0038149)
(2.26224e-05 3.36598e-05 0.0038097)
(1.46284e-05 3.97223e-05 0.00381444)
(1.7104e-05 3.87714e-05 0.00380973)
(1.93602e-05 3.77463e-05 0.00380459)
(2.16956e-05 3.63865e-05 0.00379967)
(1.33929e-05 4.26269e-05 0.0038019)
(1.55427e-05 4.10017e-05 0.00379786)
(1.75409e-05 3.89076e-05 0.0037937)
(1.96378e-05 3.65962e-05 0.00378987)
(1.11909e-05 4.2096e-05 0.00378864)
(1.31174e-05 3.9878e-05 0.0037859)
(1.49284e-05 3.71481e-05 0.00378315)
(1.7074e-05 3.44093e-05 0.00378063)
(9.24672e-06 2.26565e-05 0.00380945)
(1.15889e-05 2.28632e-05 0.00380851)
(1.38338e-05 2.33047e-05 0.00380536)
(1.60418e-05 2.33019e-05 0.00380157)
(9.44068e-06 2.67951e-05 0.0038045)
(1.16064e-05 2.65729e-05 0.00380197)
(1.37286e-05 2.61804e-05 0.0037986)
(1.56304e-05 2.55242e-05 0.00379493)
(9.08932e-06 2.88034e-05 0.00379649)
(1.09929e-05 2.82223e-05 0.00379408)
(1.28803e-05 2.72513e-05 0.00379116)
(1.45851e-05 2.60661e-05 0.00378805)
(8.16292e-06 2.86779e-05 0.0037879)
(9.88061e-06 2.77448e-05 0.00378607)
(1.15554e-05 2.63969e-05 0.00378389)
(1.32025e-05 2.49397e-05 0.0037815)
(6.01666e-06 1.55793e-05 0.00379986)
(7.87618e-06 1.59004e-05 0.00380031)
(9.70782e-06 1.62571e-05 0.00379836)
(1.13552e-05 1.63141e-05 0.00379567)
(6.34902e-06 1.82923e-05 0.00379744)
(8.05344e-06 1.8383e-05 0.00379611)
(9.76865e-06 1.83049e-05 0.00379384)
(1.12163e-05 1.80298e-05 0.00379118)
(6.38034e-06 1.97061e-05 0.00379231)
(7.89402e-06 1.96063e-05 0.0037908)
(9.41946e-06 1.92096e-05 0.00378872)
(1.07034e-05 1.86315e-05 0.00378635)
(6.06238e-06 1.97886e-05 0.00378664)
(7.44243e-06 1.94756e-05 0.00378536)
(8.78261e-06 1.88448e-05 0.00378365)
(9.96798e-06 1.80813e-05 0.00378166)
(4.04529e-06 1.07658e-05 0.00379324)
(5.44154e-06 1.10917e-05 0.00379447)
(6.83582e-06 1.13918e-05 0.00379328)
(8.03633e-06 1.14881e-05 0.00379141)
(4.39432e-06 1.25882e-05 0.00379244)
(5.66956e-06 1.27912e-05 0.00379179)
(6.97005e-06 1.28579e-05 0.00379024)
(8.03242e-06 1.27794e-05 0.00378832)
(4.57008e-06 1.36002e-05 0.00378913)
(5.71284e-06 1.37024e-05 0.00378817)
(6.86836e-06 1.35876e-05 0.00378667)
(7.7988e-06 1.33292e-05 0.00378489)
(4.52862e-06 1.37718e-05 0.00378533)
(5.58068e-06 1.3741e-05 0.00378441)
(6.58937e-06 1.34751e-05 0.00378308)
(7.41503e-06 1.30838e-05 0.0037815)
(2.7782e-06 7.44452e-06 0.00378865)
(3.79357e-06 7.72797e-06 0.00379033)
(4.81549e-06 7.97792e-06 0.00378964)
(5.67449e-06 8.08653e-06 0.00378833)
(3.08941e-06 8.68769e-06 0.00378889)
(4.01608e-06 8.90854e-06 0.00378865)
(4.9669e-06 9.02706e-06 0.00378758)
(5.72792e-06 9.03824e-06 0.00378619)
(3.29698e-06 9.41825e-06 0.00378677)
(4.13367e-06 9.58493e-06 0.00378616)
(4.97559e-06 9.59508e-06 0.00378505)
(5.63547e-06 9.49379e-06 0.00378371)
(3.36703e-06 9.61198e-06 0.00378417)
(4.14182e-06 9.69323e-06 0.0037835)
(4.87068e-06 9.60444e-06 0.00378246)
(5.43997e-06 9.40988e-06 0.00378123)
(1.91902e-06 5.11265e-06 0.00378546)
(2.63927e-06 5.3406e-06 0.00378741)
(3.36679e-06 5.53979e-06 0.00378706)
(3.97049e-06 5.6402e-06 0.00378613)
(2.17259e-06 5.96494e-06 0.0037864)
(2.82956e-06 6.16117e-06 0.00378641)
(3.50442e-06 6.28269e-06 0.00378565)
(4.03871e-06 6.3251e-06 0.00378462)
(2.36223e-06 6.49046e-06 0.00378504)
(2.95751e-06 6.65632e-06 0.00378465)
(3.5515e-06 6.70979e-06 0.00378382)
(4.01221e-06 6.67821e-06 0.00378281)
(2.46343e-06 6.66935e-06 0.00378322)
(3.01468e-06 6.77971e-06 0.00378274)
(3.52288e-06 6.7693e-06 0.00378193)
(3.91458e-06 6.67603e-06 0.00378096)
(1.30436e-06 3.43795e-06 0.00378327)
(1.79915e-06 3.60887e-06 0.00378539)
(2.29821e-06 3.75783e-06 0.00378525)
(2.71187e-06 3.83901e-06 0.00378459)
(1.49625e-06 4.01372e-06 0.00378466)
(1.94623e-06 4.16796e-06 0.00378483)
(2.40834e-06 4.26982e-06 0.00378428)
(2.7744e-06 4.31665e-06 0.0037835)
(1.64808e-06 4.38173e-06 0.00378381)
(2.05566e-06 4.519e-06 0.00378357)
(2.46083e-06 4.57834e-06 0.00378293)
(2.77611e-06 4.57606e-06 0.00378215)
(1.74302e-06 4.52811e-06 0.0037825)
(2.12026e-06 4.6303e-06 0.00378215)
(2.46313e-06 4.64972e-06 0.0037815)
(2.72909e-06 4.608e-06 0.00378074)
(8.40562e-07 2.19386e-06 0.00378182)
(1.16033e-06 2.31085e-06 0.00378404)
(1.48249e-06 2.41264e-06 0.00378404)
(1.75107e-06 2.4704e-06 0.00378355)
(9.73065e-07 2.5628e-06 0.00378349)
(1.26263e-06 2.67105e-06 0.00378377)
(1.56104e-06 2.74545e-06 0.00378336)
(1.79918e-06 2.78385e-06 0.00378275)
(1.0812e-06 2.80521e-06 0.00378296)
(1.34326e-06 2.90449e-06 0.00378282)
(1.60414e-06 2.95302e-06 0.00378231)
(1.80996e-06 2.96032e-06 0.00378169)
(1.15367e-06 2.91213e-06 0.00378198)
(1.39618e-06 2.99074e-06 0.00378172)
(1.61541e-06 3.01581e-06 0.0037812)
(1.78886e-06 2.9991e-06 0.00378058)
(4.72657e-07 1.2304e-06 0.00378093)
(6.52527e-07 1.29819e-06 0.00378322)
(8.34187e-07 1.35713e-06 0.0037833)
(9.86576e-07 1.39145e-06 0.00378291)
(5.50001e-07 1.4371e-06 0.00378278)
(7.1269e-07 1.50123e-06 0.00378312)
(8.81262e-07 1.5458e-06 0.00378279)
(1.01579e-06 1.57011e-06 0.00378228)
(6.14505e-07 1.57592e-06 0.00378243)
(7.61325e-07 1.63581e-06 0.00378235)
(9.07999e-07 1.66601e-06 0.00378193)
(1.02522e-06 1.67227e-06 0.00378141)
(6.59226e-07 1.64149e-06 0.00378165)
(7.94815e-07 1.68993e-06 0.00378145)
(9.16883e-07 1.7084e-06 0.00378101)
(1.01632e-06 1.70217e-06 0.00378048)
(1.84013e-07 5.13239e-07 0.00378047)
(2.58906e-07 5.43205e-07 0.00378279)
(3.34651e-07 5.6811e-07 0.00378292)
(3.97019e-07 5.82028e-07 0.00378258)
(2.17151e-07 6.01487e-07 0.00378241)
(2.85108e-07 6.29671e-07 0.00378278)
(3.53943e-07 6.47741e-07 0.00378249)
(4.0838e-07 6.57564e-07 0.00378204)
(2.45541e-07 6.61538e-07 0.00378216)
(3.05157e-07 6.86965e-07 0.00378212)
(3.64597e-07 6.99305e-07 0.00378174)
(4.12092e-07 7.02036e-07 0.00378127)
(2.65163e-07 6.9039e-07 0.00378148)
(3.19442e-07 7.11023e-07 0.00378131)
(3.68616e-07 7.19244e-07 0.00378091)
(4.0839e-07 7.16733e-07 0.00378044)
(1.73846e-05 -0.000980925 0.00611485)
(-0.000896683 -0.000465652 0.0065232)
(-0.00141869 -0.000237885 0.00742449)
(-0.00116888 6.37381e-05 0.00549287)
(0.000591774 -3.29778e-05 0.0041257)
(0.000826302 6.09073e-05 0.00667853)
(-0.00026911 -0.000466767 0.00695097)
(-0.000551733 -0.000702427 0.00907048)
(8.89944e-05 3.99368e-07 0.00510497)
(-0.000169435 -0.000357533 0.00842724)
(-0.00070979 -7.44468e-05 0.00586747)
(-0.000127909 -1.67249e-05 0.00267402)
(0.00029972 0.000243889 0.00452185)
(0.000309276 0.000340771 0.00337792)
(5.57417e-05 6.7963e-05 0.00715058)
(-0.000628951 0.000706898 0.00746379)
(-0.00106164 0.000359212 0.0115339)
(-0.00110772 -0.000363926 0.00780632)
(-3.88037e-05 -0.000589179 0.00622629)
(4.49633e-05 -7.07148e-05 0.00405759)
(-0.00025001 -0.000200122 0.00346617)
(-0.00149911 -0.00104637 0.0110678)
(-0.000381759 -2.79331e-06 0.00595695)
(-0.00022574 -7.59472e-05 0.00611463)
(-0.000394605 -0.00046576 0.00950585)
(-0.000129448 -0.000150582 0.00503638)
(-4.40739e-05 -0.000186937 0.00478336)
(-0.000583512 -0.000200868 0.00692919)
(-0.000151754 0.000373408 0.00676291)
(-0.00101798 0.00113386 0.0093766)
(-0.0003739 0.000409237 0.00825487)
(-4.62032e-05 0.000291552 0.00716352)
(0.000106135 0.000307039 0.0152522)
(0.000302271 0.000491859 0.00989667)
(9.61183e-05 0.000124506 0.0048919)
(-0.000486905 0.000236568 0.0100712)
(-0.000149881 0.00092245 0.0123031)
(-0.00016958 0.000710932 0.0103375)
(-0.00016088 0.000327268 0.00708879)
(9.65626e-05 0.000285622 0.0171542)
(-6.25932e-05 0.000591823 0.00827883)
(-9.1122e-05 -0.000258813 0.0101588)
(-0.000636221 -0.000501048 0.011897)
(-0.000421478 -0.00013555 0.00391882)
(-0.00092241 3.01043e-05 0.00716492)
(-0.000302903 2.78071e-05 0.00333193)
(9.06162e-06 -1.31716e-05 0.00382713)
(-0.000423222 0.000140718 0.0129573)
(-9.15854e-05 -0.000389323 0.00709118)
(-1.80107e-05 6.20106e-05 0.00613412)
(-0.000689234 0.000510344 0.0105204)
(-7.25232e-05 -4.22748e-06 0.00080123)
(3.74861e-05 0.000143251 0.00183928)
(0.000639973 0.00114609 0.0150362)
(-0.000129587 0.000217138 0.00674565)
(-0.000236414 0.000880324 0.0103613)
(-0.000875039 0.000745917 0.0106916)
(-0.00075487 0.000522443 0.0106691)
(-7.66129e-05 0.000781878 0.0106323)
(-0.000243135 0.000127499 0.00827189)
(0.000200629 -0.000470659 0.0124666)
(8.68186e-05 -0.000332012 0.00305387)
(-0.00043582 -0.000374563 0.00629202)
(-0.000169106 -0.000499336 0.010245)
(-5.99331e-05 0.000325205 0.0182026)
(0.000330333 6.99272e-05 0.0054466)
(0.00148336 0.000856097 0.0127335)
(-0.000371019 0.000220453 0.00462694)
(-0.000315043 8.66203e-05 0.00752919)
(1.72117e-05 0.000431764 0.0106023)
(0.00027454 4.30004e-05 0.00661228)
(-0.000610039 -0.000134216 0.0107276)
(0.000304096 5.49662e-05 0.0137671)
(-9.31332e-05 0.000305802 0.00645102)
(7.45832e-05 0.000250734 0.0109499)
(0.000320867 0.000424019 0.00906493)
(0.000522848 0.000104299 0.00697482)
(0.000557546 0.000260203 0.00808306)
(-9.77373e-05 -2.81173e-05 0.0107216)
(-0.000244456 -3.88444e-05 0.00503973)
(0.000298378 0.00083088 0.00428424)
(9.74199e-06 0.000225101 0.00211536)
(-0.00109694 0.000498333 0.00606208)
(-0.00078292 0.000683085 0.00962129)
(-0.000115458 0.000429427 0.00380903)
(0.000312194 0.000409138 0.00653087)
(-3.58653e-05 0.000296923 0.00681225)
(3.12656e-05 3.4153e-05 0.00690145)
(0.000419802 0.000159388 0.00560403)
(0.000619651 3.67845e-05 0.00789112)
(-0.000110513 -0.000109093 0.00324744)
(-0.000188117 -0.000898491 0.00627387)
(0.0002379 -0.000793918 0.00586157)
(0.000463296 -0.000471991 0.00390337)
(-0.000188793 -0.000537352 0.00557556)
(-0.00096999 -0.00013395 0.00904414)
(0.000703697 0.00123394 0.00782061)
(-0.000771012 -3.78801e-05 0.00471856)
(-0.000858249 9.05835e-05 0.00848675)
(-0.000823624 1.65591e-05 0.00580302)
(0.0011317 -0.00134186 0.00382056)
(-0.00372848 -0.00480889 0.00440625)
(-0.00167191 -0.005221 0.00530477)
(-3.92836e-05 -0.00291814 0.0091958)
(-0.000264488 0.000185931 0.00716002)
(0.00069079 0.000141584 0.00981685)
(-0.000749666 -0.00129917 0.00565918)
(0.00031124 -0.000254469 0.00714328)
(-0.000346633 -0.002281 0.00517509)
(0.00271324 -0.0050502 0.00226655)
(-0.00132269 -0.00185048 0.00891511)
(0.00186922 -0.0132189 -0.00151769)
(0.000353109 -0.000350055 0.0119258)
(0.000357534 -0.000128835 0.0131541)
(0.000729772 -0.000541538 0.0134751)
(0.000543595 -0.000737555 0.0111013)
(0.000390695 -0.000808256 0.0132584)
(-7.53976e-06 -0.00112953 0.0122721)
(-0.000357989 -0.000886295 0.00687311)
(-0.000166867 -0.000847061 0.00750643)
(-0.000467056 0.000316464 0.00752731)
(-9.49802e-05 0.000400377 0.0105214)
(0.000242153 -0.000116434 0.00860392)
(0.000185453 0.000728721 0.0128828)
(-3.19539e-05 0.000897166 0.00931873)
(-0.000691185 -0.000429808 0.00996308)
(2.6817e-05 0.000132956 0.0071742)
(0.00020298 -0.000328731 0.00643194)
(5.63555e-05 -3.53871e-05 0.00196163)
(4.76117e-05 0.000303912 0.00245756)
(0.000332422 0.000844475 0.00262801)
(0.000625464 0.00110542 0.00234915)
(2.04778e-05 0.000689179 0.00232206)
(0.000599811 0.000872115 0.00239018)
(0.000643514 0.00110811 0.00183371)
(0.00049882 0.000827742 0.00183862)
(-0.000429957 0.0005911 0.00218183)
(-0.000112947 0.00074467 0.00292154)
(0.000246258 0.000827112 0.00242852)
(0.000323075 0.000803719 0.00253424)
(0.00011151 0.000983019 0.00223366)
(0.000528733 0.00117443 0.0018464)
(0.00062501 0.00122449 0.00169206)
(-3.8606e-05 0.00125534 0.0010696)
(3.9165e-05 -9.39018e-05 0.00509326)
(5.41918e-05 -2.02927e-05 0.00534929)
(0.000186933 0.000155058 0.00537832)
(0.000257495 0.000260105 0.00516682)
(-2.12454e-05 0.000179973 0.00521725)
(0.000157298 0.000244481 0.00522697)
(0.000257549 0.000339549 0.00487467)
(0.000234982 0.000312019 0.00466793)
(-0.000152593 0.000268109 0.00452879)
(-5.208e-05 0.000367245 0.00491203)
(0.000144604 0.000410348 0.00472267)
(0.000174516 0.000405849 0.00470633)
(2.81347e-05 0.00056942 0.0047712)
(0.000141648 0.000626788 0.0047002)
(0.0001811 0.000591929 0.00433871)
(2.84379e-05 0.000559334 0.00419285)
(5.09828e-06 2.77892e-05 0.00379367)
(3.59704e-05 7.61056e-05 0.00394757)
(8.83315e-05 0.000143647 0.00399922)
(0.000131072 0.000197355 0.00396812)
(-2.64135e-05 0.000167089 0.00388106)
(5.80974e-05 0.000210524 0.00398188)
(0.000107296 0.000251834 0.00393463)
(0.000120091 0.000258234 0.00387616)
(-5.98514e-05 0.000205852 0.00373711)
(-5.51774e-06 0.000254597 0.00392687)
(7.17444e-05 0.000283477 0.00390528)
(9.3982e-05 0.000277225 0.00386756)
(1.91675e-05 0.00033188 0.0037378)
(8.00715e-05 0.000358475 0.0037853)
(8.78876e-05 0.000338765 0.00373786)
(4.79673e-05 0.000306159 0.00368863)
(-2.63061e-06 2.28806e-05 0.00381777)
(1.72584e-05 4.80701e-05 0.00392826)
(4.45989e-05 7.89282e-05 0.00397533)
(6.19302e-05 0.000105459 0.00396766)
(-2.04153e-05 9.25569e-05 0.00383431)
(1.74664e-05 0.00011757 0.00392803)
(4.7094e-05 0.000139214 0.00393685)
(5.90587e-05 0.000148999 0.00390754)
(-2.88148e-05 0.000128962 0.00374871)
(-7.97678e-07 0.000152898 0.0038693)
(3.43144e-05 0.000168066 0.00388234)
(4.82721e-05 0.000166539 0.00385844)
(2.84669e-06 0.000185045 0.00372264)
(2.92831e-05 0.000196746 0.00379652)
(3.81658e-05 0.000190669 0.00379539)
(3.26198e-05 0.000174185 0.00377596)
(-6.0025e-06 2.2018e-05 0.0037173)
(7.25427e-06 3.6747e-05 0.003824)
(2.1804e-05 5.22625e-05 0.00387686)
(3.10311e-05 6.64484e-05 0.00388693)
(-1.54102e-05 5.82848e-05 0.00373553)
(3.99891e-06 7.29737e-05 0.0038386)
(2.05364e-05 8.51675e-05 0.00387142)
(2.91407e-05 9.23238e-05 0.00386458)
(-1.62339e-05 8.23975e-05 0.00370393)
(-6.08114e-07 9.50571e-05 0.00381239)
(1.65622e-05 0.000103286 0.00384054)
(2.5358e-05 0.000103728 0.00383204)
(-1.47397e-06 0.000106796 0.00367843)
(1.08537e-05 0.000113415 0.00377251)
(1.77496e-05 0.000112799 0.00379456)
(1.97089e-05 0.000105933 0.00378968)
(-6.35642e-06 1.74695e-05 0.00366652)
(2.01879e-06 2.65992e-05 0.0037716)
(1.05602e-05 3.5503e-05 0.00382735)
(1.60521e-05 4.37746e-05 0.00384469)
(-1.1168e-05 3.76137e-05 0.00368376)
(-4.53057e-07 4.66073e-05 0.00378979)
(9.24758e-06 5.40622e-05 0.00383159)
(1.50867e-05 5.89617e-05 0.00383569)
(-1.00329e-05 5.26881e-05 0.00367484)
(-9.67409e-07 6.00836e-05 0.00378098)
(8.42628e-06 6.5066e-05 0.00381546)
(1.41453e-05 6.61612e-05 0.00381584)
(-2.0184e-06 6.39404e-05 0.00365768)
(4.35934e-06 6.84086e-05 0.00375885)
(9.24646e-06 6.9545e-05 0.00378959)
(1.22571e-05 6.7117e-05 0.00379148)
(-5.47284e-06 1.2953e-05 0.00363532)
(-1.58558e-07 1.8765e-05 0.00374029)
(5.17686e-06 2.42623e-05 0.00379782)
(8.69702e-06 2.94066e-05 0.00381881)
(-7.91052e-06 2.47276e-05 0.00365402)
(-1.63316e-06 3.04031e-05 0.00376141)
(4.35202e-06 3.51949e-05 0.00380712)
(8.32585e-06 3.85748e-05 0.00381662)
(-6.48372e-06 3.39801e-05 0.00365636)
(-1.02084e-06 3.86162e-05 0.0037625)
(4.61968e-06 4.19166e-05 0.00380001)
(8.49217e-06 4.31265e-05 0.00380497)
(-1.61638e-06 3.96909e-05 0.00364752)
(2.08137e-06 4.28715e-05 0.00375119)
(5.50052e-06 4.43632e-05 0.00378527)
(8.14095e-06 4.37816e-05 0.0037903)
(-4.26505e-06 9.28402e-06 0.00361581)
(-8.36722e-07 1.30698e-05 0.00372086)
(2.62664e-06 1.66251e-05 0.00377944)
(4.98468e-06 1.99711e-05 0.00380238)
(-5.51458e-06 1.64652e-05 0.0036363)
(-1.64875e-06 2.01467e-05 0.00374429)
(2.20103e-06 2.33328e-05 0.00379186)
(4.9436e-06 2.57018e-05 0.00380412)
(-4.26863e-06 2.21947e-05 0.0036447)
(-8.3577e-07 2.52427e-05 0.0037511)
(2.7799e-06 2.75407e-05 0.00379017)
(5.47972e-06 2.8649e-05 0.0037975)
(-1.11473e-06 2.54151e-05 0.00364196)
(1.2495e-06 2.77008e-05 0.00374651)
(3.66839e-06 2.90691e-05 0.00378194)
(5.7413e-06 2.92104e-05 0.00378846)
(-3.14689e-06 6.53735e-06 0.00360326)
(-8.80664e-07 9.04942e-06 0.00370835)
(1.43512e-06 1.14094e-05 0.00376752)
(3.05081e-06 1.36501e-05 0.00379156)
(-3.80441e-06 1.10685e-05 0.00362525)
(-1.32091e-06 1.35132e-05 0.00373349)
(1.23569e-06 1.56798e-05 0.00378199)
(3.15417e-06 1.73599e-05 0.00379571)
(-2.83335e-06 1.46928e-05 0.00363716)
(-5.85747e-07 1.67574e-05 0.00374372)
(1.8339e-06 1.83953e-05 0.0037836)
(3.75114e-06 1.93276e-05 0.0037922)
(-7.21028e-07 1.66862e-05 0.00363843)
(9.01353e-07 1.83251e-05 0.00374327)
(2.63917e-06 1.9448e-05 0.00377929)
(4.21336e-06 1.98246e-05 0.00378656)
(-2.25005e-06 4.55425e-06 0.003595)
(-7.23784e-07 6.2454e-06 0.00370009)
(8.5416e-07 7.84245e-06 0.00375959)
(1.97918e-06 9.3705e-06 0.00378428)
(-2.60611e-06 7.48737e-06 0.00361811)
(-9.58205e-07 9.13973e-06 0.00372643)
(7.78178e-07 1.0636e-05 0.00377543)
(2.13246e-06 1.1836e-05 0.00378996)
(-1.8886e-06 9.83746e-06 0.00363214)
(-3.67315e-07 1.12609e-05 0.00373877)
(1.29735e-06 1.24382e-05 0.00377908)
(2.67134e-06 1.31857e-05 0.0037884)
(-4.50983e-07 1.11578e-05 0.00363596)
(7.09112e-07 1.2332e-05 0.0037409)
(1.97263e-06 1.32053e-05 0.00377719)
(3.15053e-06 1.36184e-05 0.00378486)
(-1.57359e-06 3.14482e-06 0.00358947)
(-5.33019e-07 4.29318e-06 0.00369453)
(5.52889e-07 5.38456e-06 0.00375423)
(1.33995e-06 6.43709e-06 0.0037793)
(-1.77385e-06 5.07744e-06 0.00361338)
(-6.56931e-07 6.20606e-06 0.00372171)
(5.37574e-07 7.24681e-06 0.00377098)
(1.49503e-06 8.10435e-06 0.00378599)
(-1.26019e-06 6.63336e-06 0.00362873)
(-2.08343e-07 7.62261e-06 0.00373537)
(9.53453e-07 8.46791e-06 0.00377593)
(1.93738e-06 9.04611e-06 0.00378566)
(-2.76309e-07 7.54413e-06 0.00363415)
(5.6765e-07 8.38117e-06 0.00373911)
(1.48871e-06 9.03887e-06 0.00377555)
(2.35839e-06 9.40848e-06 0.00378346)
(-1.07741e-06 2.14624e-06 0.00358573)
(-3.65514e-07 2.92573e-06 0.00369077)
(3.80765e-07 3.67073e-06 0.00375059)
(9.26725e-07 4.39472e-06 0.00377589)
(-1.19547e-06 3.42911e-06 0.00361019)
(-4.32414e-07 4.19994e-06 0.00371851)
(3.90033e-07 4.92091e-06 0.00376793)
(1.06097e-06 5.52794e-06 0.00378323)
(-8.37073e-07 4.46953e-06 0.00362638)
(-1.05703e-07 5.15476e-06 0.00373302)
(7.05159e-07 5.75479e-06 0.00377371)
(1.40253e-06 6.18713e-06 0.00378369)
(-1.66502e-07 5.10654e-06 0.00363281)
(4.45445e-07 5.69618e-06 0.00373777)
(1.11037e-06 6.17734e-06 0.00377429)
(1.74113e-06 6.47643e-06 0.00378235)
(-7.16371e-07 1.43158e-06 0.00358322)
(-2.36043e-07 1.95238e-06 0.00368823)
(2.67252e-07 2.45217e-06 0.00374811)
(6.36031e-07 2.94102e-06 0.00377356)
(-7.88868e-07 2.27457e-06 0.00360804)
(-2.73801e-07 2.79209e-06 0.00371634)
(2.83162e-07 3.2812e-06 0.00376586)
(7.41667e-07 3.69969e-06 0.00378133)
(-5.46771e-07 2.96397e-06 0.00362476)
(-4.62456e-08 3.42923e-06 0.00373139)
(5.09039e-07 3.84367e-06 0.00377217)
(9.9059e-07 4.15266e-06 0.0037823)
(-9.82512e-08 3.40329e-06 0.00363182)
(3.33947e-07 3.8082e-06 0.00373678)
(8.00157e-07 4.1471e-06 0.00377335)
(1.24301e-06 4.37085e-06 0.00378151)
(-4.50811e-07 9.06887e-07 0.00358157)
(-1.42042e-07 1.23846e-06 0.00368656)
(1.80287e-07 1.55723e-06 0.00374648)
(4.15314e-07 1.87037e-06 0.00377202)
(-4.95337e-07 1.4366e-06 0.00360662)
(-1.64274e-07 1.76702e-06 0.00371491)
(1.9416e-07 2.08109e-06 0.00376448)
(4.90349e-07 2.35268e-06 0.00378006)
(-3.40834e-07 1.87316e-06 0.00362368)
(-1.62287e-08 2.17259e-06 0.00373029)
(3.43619e-07 2.4423e-06 0.00377112)
(6.57341e-07 2.64776e-06 0.00378136)
(-5.58766e-08 2.16027e-06 0.00363113)
(2.30774e-07 2.42268e-06 0.00373608)
(5.3785e-07 2.6465e-06 0.00377269)
(8.29096e-07 2.79946e-06 0.00378091)
(-2.49914e-07 5.06082e-07 0.00358057)
(-7.63769e-08 6.92515e-07 0.00368555)
(1.04187e-07 8.71342e-07 0.00374549)
(2.35932e-07 1.04739e-06 0.00377108)
(-2.74345e-07 7.99942e-07 0.00360576)
(-8.83894e-08 9.85968e-07 0.00371404)
(1.1279e-07 1.16278e-06 0.00376364)
(2.80298e-07 1.31633e-06 0.00377928)
(-1.87948e-07 1.04331e-06 0.00362301)
(-4.37316e-09 1.21264e-06 0.00372961)
(1.98456e-07 1.36596e-06 0.00377047)
(3.7626e-07 1.48411e-06 0.00378077)
(-2.88506e-08 1.20703e-06 0.00363069)
(1.35586e-07 1.35597e-06 0.00373563)
(3.10648e-07 1.48416e-06 0.00377226)
(4.76109e-07 1.57381e-06 0.00378052)
(-1.06588e-07 2.09107e-07 0.00358005)
(-3.81536e-08 2.8819e-07 0.00368502)
(3.48756e-08 3.65122e-07 0.00374498)
(9.05842e-08 4.39982e-07 0.0037706)
(-1.15376e-07 3.30126e-07 0.00360531)
(-4.10662e-08 4.10275e-07 0.00371359)
(4.11597e-08 4.85678e-07 0.0037632)
(1.10898e-07 5.50744e-07 0.00377888)
(-7.99281e-08 4.32517e-07 0.00362265)
(-5.99673e-09 5.06543e-07 0.00372926)
(7.73984e-08 5.72164e-07 0.00377014)
(1.50906e-07 6.2234e-07 0.00378046)
(-1.32311e-08 5.01918e-07 0.00363045)
(5.35822e-08 5.68023e-07 0.0037354)
(1.25173e-07 6.23123e-07 0.00377204)
(1.92402e-07 6.61244e-07 0.00378033)
(-0.00126453 -0.000390926 0.00737018)
(-0.000280488 0.000248943 0.00334772)
(-0.000388619 0.000242166 0.00615104)
(6.11814e-05 0.000203585 0.0028379)
(-0.000668003 -0.00060178 0.00498834)
(-0.000391832 -3.99174e-05 0.00919049)
(-0.000193385 0.000248153 0.00514815)
(-0.000102649 0.000351231 0.0044805)
(-0.000384881 -0.000180827 0.00556349)
(-0.000136231 -0.00057239 0.00474674)
(-6.58916e-06 -0.000439694 0.00575599)
(-0.000193004 -0.000520145 0.00779507)
(-0.000467605 -0.000332607 0.00680076)
(-0.000314608 -6.82826e-05 0.00533862)
(-0.000132345 -0.000264891 0.0051517)
(5.03368e-05 -0.000303905 0.00153907)
(-0.00023911 0.000189508 0.0112839)