/*--------------------------------*- C++ -*----------------------------------*\
| =========                 |                                                 |
| \\      /  F ield         | OpenFOAM: The Open Source CFD Toolbox           |
|  \\    /   O peration     | Version:  2506                                  |
|   \\  /    A nd           | Website:  www.openfoam.com                      |
|    \\/     M anipulation  |                                                 |
\*---------------------------------------------------------------------------*/
FoamFile
{
    version     2.0;
    format      ascii;
    arch        "LSB;label=32;scalar=64";
    class       volVectorField;
    location    "0.01";
    object      U;
}
// * * * * * * * * * * * * * * * * * * * * * * * * * * * * * * * * * * * * * //

dimensions      [0 1 -1 0 0 0 0];

internalField   nonuniform List<vector> 
1152
(
(-0.000155927 -7.91664e-05 0.00307121)
(0.000155056 0.000211022 0.00591967)
(-0.0013927 -0.000513179 0.00671957)
(-2.47486e-05 -0.000166613 0.00140228)
(-0.000254714 0.000197111 0.00485642)
(-0.00070414 3.67923e-06 0.00549705)
(-0.000554749 4.19807e-05 0.00423725)
(0.000237786 0.000406982 0.00487005)
(0.0004202 3.1597e-05 0.00712409)
(-0.000816485 0.000406974 0.00432203)
(-0.0012151 0.000666478 0.00601112)
(-0.000447596 0.000161926 0.00697381)
(-0.000161556 9.83753e-05 0.00470906)
(-0.000611703 -0.00128596 0.0113319)
(-0.00106714 -0.000875705 0.00603938)
(-0.000304542 3.21928e-05 0.00471904)
(-0.000244456 -0.000504494 0.00818095)
(-0.000643788 -0.000950083 0.0101504)
(-8.339e-06 0.000152277 0.0123391)
(-9.02591e-05 -0.00011563 0.00138867)
(-0.00070264 -0.00059603 0.0105606)
(0.00019686 -0.000269405 0.0104153)
(3.62469e-05 -0.000142081 0.00214256)
(-0.000515411 -4.98485e-05 0.00745043)
(-0.000297494 -0.000124878 0.00596363)
(-0.000109555 -0.000591465 0.00976161)
(0.000398089 -0.00156467 0.0129858)
(-3.47262e-05 -0.000249888 0.00131182)
(-0.000788371 0.000486964 0.00865411)
(-0.000316142 0.00012361 0.00422887)
(-0.00032724 4.57435e-05 0.0075536)
(0.000414742 0.000394347 0.00631325)
(-0.000242448 0.000177217 0.00498935)
(-0.00107852 -0.000310291 0.00791733)
(0.000471445 0.000122146 0.00375366)
(-9.09115e-05 -8.34693e-05 0.00022091)
(-0.000351879 -0.000100409 0.00340394)
(-0.00027545 -0.000166452 0.00452797)
(0.00131565 0.000622346 0.0126558)
(2.64937e-05 -0.00130199 0.00942145)
(-0.000869371 -0.000887891 0.00939815)
(-0.000544051 0.000492598 0.00927796)
(0.000154232 -0.000131623 0.0034522)
(0.00116694 0.000177055 0.0171414)
(-0.000151026 0.000154964 0.00571835)
(0.000243078 0.000403275 0.0161927)
(0.000198958 0.000133616 0.00428069)
(-0.000145089 -6.01782e-05 0.00154218)
(0.000172934 0.000449021 0.00759407)
(-0.000440377 0.000879577 0.0158535)
(-0.000268417 -3.26082e-05 0.00600992)
(-0.000297393 0.000479595 0.0134506)
(0.000626976 0.000592047 0.0179779)
(-0.000452191 0.000236021 0.0077192)
(-0.000721712 -4.42171e-05 0.0116909)
(0.000519942 0.000702235 0.00942718)
(-0.000218589 0.000277703 0.00417317)
(-0.00048046 -0.000347066 0.00706006)
(-9.88011e-05 -5.26944e-05 0.00742383)
(-0.000122304 -8.01084e-06 0.000246921)
(-0.00022444 -0.000104485 0.0037926)
(-0.00213723 -0.00034622 0.0163237)
(-2.54868e-05 0.000179282 0.00951407)
(0.000812697 -0.0027273 0.0209367)
(-0.000734709 2.35412e-05 0.007435)
(0.00027463 -9.09283e-05 0.00482353)
(-0.000164641 -0.000101648 0.00416076)
(-0.000476388 -0.000251813 0.00826585)
(-0.000314267 0.000549345 0.00703801)
(4.58651e-05 3.02111e-05 0.0102122)
(3.5371e-07 -0.000733135 0.00941403)
(0.000306749 0.00013332 0.00468725)
(-0.000306004 0.000670426 0.00798836)
(-0.00111765 -0.000624242 0.0125192)
(-0.000163678 -6.02819e-05 0.00298658)
(0.000148503 -0.00288556 0.02139)
(-0.00228515 -0.000158292 0.0176063)
(-0.000398139 -2.194e-05 0.00328541)
(-0.000280493 -0.00011234 0.0037171)
(-3.3189e-05 7.67746e-05 0.000419958)
(-0.000269371 0.000138797 0.00270432)
(-0.000596048 -0.000240209 0.00998438)
(-0.000436865 -0.00101391 0.00771469)
(0.000171179 -0.000734278 0.00761286)
(-0.000768271 -0.000162937 0.00654215)
(-0.000943864 -0.000312635 0.00569891)
(-0.00064819 -0.00010506 0.00512479)
(0.000167663 8.14784e-05 0.00816374)
(-0.000648991 -0.000545492 0.00635971)
(-0.000466084 -0.000382462 0.00732621)
(-0.000106558 -6.16248e-05 0.00253559)
(-3.43498e-05 0.000262068 0.00576084)
(0.00010159 -0.00057695 0.00382583)
(-0.000863967 -0.000168705 0.00613354)
(-0.000115004 -0.000351249 0.00642392)
(-0.000106491 -0.000878868 0.00950752)
(0.000521156 0.00121939 0.00326311)
(7.23302e-05 0.00034201 0.00662115)
(8.09232e-05 0.000365744 0.0050621)
(1.59393e-05 0.00053557 0.00450349)
(-0.000166479 -0.000459683 0.00701512)
(0.000214614 -0.000160098 0.00616956)
(-0.000147178 0.000708483 0.0037202)
(0.000851814 0.000297095 0.00106373)
(0.000954661 0.000379699 0.00546411)
(0.000731274 0.000342632 0.00669743)
(0.000432539 0.000771751 0.00260278)
(0.000522964 -3.63245e-06 0.0121983)
(0.0012333 0.00110783 0.0102686)
(0.00039337 0.00109746 0.00376276)
(0.000446626 0.000101522 0.00146575)
(0.00194003 0.0022343 0.00246498)
(0.000117144 -0.000924606 0.00804001)
(-0.000316093 -0.000246615 0.0104831)
(1.66033e-05 0.000409674 0.0075543)
(-0.000129704 0.00065625 0.00754408)
(0.0001563 -0.000511992 0.00720663)
(0.000301268 -0.000148441 0.00766345)
(0.000371879 0.000238933 0.005854)
(8.9406e-05 -1.28894e-05 0.00544736)
(0.00048704 0.000256312 0.00859452)
(0.000475295 0.000376084 0.00743416)
(0.000149742 0.000462942 0.00648583)
(0.000250794 0.000442343 0.0108793)
(-0.000346292 0.000501 0.0111494)
(0.00054659 0.000451892 0.00781385)
(0.000514777 0.000212258 0.00462968)
(0.000749222 0.00050192 0.00769465)
(0.000663024 0.00123452 0.00189463)
(0.000617153 0.00104169 0.00214454)
(0.000461789 0.000656345 0.0016479)
(-9.5767e-05 0.00077161 0.00152807)
(0.000466735 0.000657778 0.00157495)
(0.000468964 0.000751378 0.00154098)
(0.000267402 0.000433152 0.001244)
(-0.000164869 4.24346e-05 0.00117298)
(0.000584263 0.000278546 0.00182205)
(0.000442868 0.000408724 0.00152177)
(-0.000219682 0.000315809 0.00124336)
(-0.000558689 -6.25538e-05 0.00180865)
(2.83542e-05 0.000353456 0.00192301)
(0.000508166 0.000291099 0.00149773)
(-0.000193641 0.000197556 0.00101619)
(-0.00086768 0.000245261 0.00117727)
(0.000227154 0.00026256 0.00496688)
(0.000172679 0.000238655 0.00488789)
(0.000101722 0.000255134 0.00451123)
(-2.01534e-06 0.000326678 0.00453159)
(0.000181447 0.000243942 0.00456018)
(0.000163894 0.000257725 0.0044733)
(8.27139e-05 0.000203839 0.00426552)
(-1.40525e-05 0.000106328 0.00431166)
(0.000185623 0.000218023 0.00456328)
(0.000150177 0.000215371 0.00438127)
(-4.48515e-05 0.000173572 0.00426598)
(-0.000128388 7.0481e-05 0.00459198)
(4.61768e-07 0.000284306 0.00452098)
(0.000119154 0.000221529 0.00431007)
(-6.08653e-05 0.000155396 0.00414644)
(-0.000164234 0.000148294 0.00446017)
(0.000164414 0.000211571 0.00396082)
(0.000139906 0.000178024 0.00393555)
(9.12954e-05 0.000166727 0.00387194)
(5.48441e-05 0.00018156 0.00389587)
(0.000127534 0.000217848 0.00387985)
(0.000113667 0.000192917 0.00384965)
(7.10444e-05 0.000158215 0.00380062)
(4.10071e-05 0.000120434 0.00382266)
(9.75099e-05 0.000199857 0.00387391)
(8.55746e-05 0.000173515 0.00382564)
(2.06617e-05 0.000139508 0.00379433)
(-7.39e-06 9.41352e-05 0.00388313)
(3.14732e-05 0.000201886 0.00381671)
(5.19963e-05 0.000165506 0.00377701)
(-8.27338e-06 0.000126214 0.00374624)
(-2.9597e-05 0.000104201 0.0038319)
(7.66797e-05 0.000106783 0.00401009)
(7.07796e-05 9.70997e-05 0.00397363)
(5.4926e-05 9.84586e-05 0.00393626)
(5.07575e-05 0.000103334 0.00393368)
(6.53159e-05 0.000130022 0.00394991)
(6.18105e-05 0.000116824 0.00392096)
(4.82363e-05 0.00010364 0.00389323)
(4.34676e-05 9.02425e-05 0.00389354)
(4.90186e-05 0.000132897 0.00391219)
(4.60224e-05 0.000116473 0.00388698)
(2.90051e-05 9.84944e-05 0.00387012)
(2.41824e-05 7.91963e-05 0.00389096)
(2.39316e-05 0.000130372 0.00386541)
(2.63694e-05 0.000111064 0.0038496)
(1.08881e-05 9.05932e-05 0.00384032)
(9.66152e-06 7.44233e-05 0.00386772)
(4.05521e-05 6.60068e-05 0.00395826)
(4.04521e-05 6.17318e-05 0.00394178)
(3.70628e-05 6.29171e-05 0.00392664)
(3.96385e-05 6.40703e-05 0.00392081)
(3.55829e-05 8.17808e-05 0.00393122)
(3.65056e-05 7.50175e-05 0.00391639)
(3.41676e-05 6.91574e-05 0.00390346)
(3.57543e-05 6.32329e-05 0.00389879)
(2.75384e-05 8.64294e-05 0.00390423)
(2.83434e-05 7.77047e-05 0.00389285)
(2.5612e-05 6.84963e-05 0.00388476)
(2.71242e-05 5.93368e-05 0.00388643)
(1.65888e-05 8.42231e-05 0.00387453)
(1.79064e-05 7.41222e-05 0.00386851)
(1.57278e-05 6.343e-05 0.00386546)
(1.85836e-05 5.41205e-05 0.00387167)
(2.25087e-05 4.30806e-05 0.00392842)
(2.47282e-05 4.13642e-05 0.00392108)
(2.57522e-05 4.19772e-05 0.00391337)
(2.91295e-05 4.20447e-05 0.00390762)
(2.05016e-05 5.27837e-05 0.00391433)
(2.29998e-05 4.96373e-05 0.00390673)
(2.43701e-05 4.68876e-05 0.00389955)
(2.71096e-05 4.3951e-05 0.0038944)
(1.68534e-05 5.6415e-05 0.00389679)
(1.901e-05 5.21573e-05 0.00389106)
(2.0274e-05 4.75257e-05 0.00388616)
(2.29056e-05 4.2877e-05 0.00388352)
(1.18208e-05 5.51022e-05 0.00387815)
(1.36908e-05 5.00548e-05 0.0038752)
(1.50445e-05 4.452e-05 0.00387311)
(1.81453e-05 3.9394e-05 0.00387298)
(1.32584e-05 2.88834e-05 0.00390918)
(1.59144e-05 2.83086e-05 0.00390651)
(1.80591e-05 2.86672e-05 0.00390207)
(2.09153e-05 2.85555e-05 0.00389748)
(1.25796e-05 3.48037e-05 0.00390169)
(1.52267e-05 3.34788e-05 0.00389778)
(1.74246e-05 3.2196e-05 0.00389335)
(1.99104e-05 3.07048e-05 0.00388906)
(1.10695e-05 3.73112e-05 0.00389063)
(1.33693e-05 3.53855e-05 0.00388747)
(1.54243e-05 3.30936e-05 0.00388412)
(1.77878e-05 3.06905e-05 0.003881)
(8.77726e-06 3.66746e-05 0.00387884)
(1.07421e-05 3.4273e-05 0.00387705)
(1.27015e-05 3.14407e-05 0.00387517)
(1.51997e-05 2.8673e-05 0.00387342)
(8.26225e-06 1.9613e-05 0.00389652)
(1.06163e-05 1.95656e-05 0.00389623)
(1.27188e-05 1.98377e-05 0.00389355)
(1.48925e-05 1.97793e-05 0.00389015)
(8.17026e-06 2.33254e-05 0.00389276)
(1.04337e-05 2.28771e-05 0.00389076)
(1.24843e-05 2.23274e-05 0.00388785)
(1.44346e-05 2.15949e-05 0.0038846)
(7.65565e-06 2.50429e-05 0.00388581)
(9.63884e-06 2.42693e-05 0.00388394)
(1.15311e-05 2.31776e-05 0.00388153)
(1.33614e-05 2.19462e-05 0.00387885)
(6.67288e-06 2.48176e-05 0.00387825)
(8.39536e-06 2.37523e-05 0.003877)
(1.01433e-05 2.23344e-05 0.00387535)
(1.19734e-05 2.08602e-05 0.00387341)
(5.40751e-06 1.34339e-05 0.00388794)
(7.27047e-06 1.35924e-05 0.00388891)
(8.98947e-06 1.38355e-05 0.00388728)
(1.05789e-05 1.38521e-05 0.00388486)
(5.55223e-06 1.58351e-05 0.00388645)
(7.31877e-06 1.57786e-05 0.00388548)
(8.96382e-06 1.55955e-05 0.00388351)
(1.04079e-05 1.52667e-05 0.00388112)
(5.4777e-06 1.70331e-05 0.00388208)
(7.03735e-06 1.68005e-05 0.00388092)
(8.54223e-06 1.63192e-05 0.00387915)
(9.87788e-06 1.57069e-05 0.00387705)
(5.11827e-06 1.70275e-05 0.00387714)
(6.49113e-06 1.66151e-05 0.00387622)
(7.85844e-06 1.59304e-05 0.00387483)
(9.13942e-06 1.51524e-05 0.00387312)
(3.6698e-06 9.24859e-06 0.00388203)
(5.0643e-06 9.46417e-06 0.00388371)
(6.36741e-06 9.68474e-06 0.00388275)
(7.50594e-06 9.74844e-06 0.00388105)
(3.88765e-06 1.08443e-05 0.00388198)
(5.20304e-06 1.09445e-05 0.0038816)
(6.43891e-06 1.09351e-05 0.00388024)
(7.47707e-06 1.08144e-05 0.00387849)
(3.98908e-06 1.16966e-05 0.00387924)
(5.15754e-06 1.17013e-05 0.00387851)
(6.28171e-06 1.15217e-05 0.0038772)
(7.22876e-06 1.12332e-05 0.0038756)
(3.91413e-06 1.17935e-05 0.00387596)
(4.95256e-06 1.16862e-05 0.00387528)
(5.96299e-06 1.13763e-05 0.00387415)
(6.83916e-06 1.09704e-05 0.00387274)
(2.54643e-06 6.37224e-06 0.00387795)
(3.55506e-06 6.57904e-06 0.00388002)
(4.50278e-06 6.77119e-06 0.00387951)
(5.30628e-06 6.85281e-06 0.00387832)
(2.76218e-06 7.45147e-06 0.00387882)
(3.71345e-06 7.59776e-06 0.00387878)
(4.60766e-06 7.65993e-06 0.00387784)
(5.34006e-06 7.63876e-06 0.00387656)
(2.91556e-06 8.06447e-06 0.00387713)
(3.76492e-06 8.15821e-06 0.00387667)
(4.57435e-06 8.11917e-06 0.00387569)
(5.23526e-06 7.99441e-06 0.00387447)
(2.95816e-06 8.19739e-06 0.00387491)
(3.71764e-06 8.22051e-06 0.0038744)
(4.4386e-06 8.09702e-06 0.0038735)
(5.03324e-06 7.88972e-06 0.00387238)
(1.77687e-06 4.36157e-06 0.00387512)
(2.48665e-06 4.53533e-06 0.00387743)
(3.15511e-06 4.6928e-06 0.00387722)
(3.713e-06 4.77236e-06 0.00387639)
(1.95993e-06 5.09577e-06 0.0038766)
(2.63112e-06 5.23793e-06 0.00387678)
(3.25956e-06 5.3193e-06 0.00387611)
(3.76691e-06 5.33946e-06 0.00387517)
(2.10958e-06 5.53529e-06 0.00387558)
(2.71119e-06 5.64777e-06 0.00387531)
(3.27758e-06 5.66669e-06 0.00387457)
(3.73181e-06 5.62056e-06 0.00387364)
(2.18888e-06 5.66773e-06 0.00387405)
(2.72876e-06 5.73535e-06 0.00387369)
(3.22881e-06 5.69965e-06 0.00387297)
(3.63018e-06 5.59751e-06 0.00387209)
(1.22001e-06 2.9243e-06 0.00387319)
(1.70347e-06 3.05758e-06 0.00387566)
(2.15868e-06 3.17821e-06 0.00387564)
(2.53558e-06 3.24509e-06 0.00387504)
(1.36076e-06 3.41749e-06 0.00387506)
(1.81969e-06 3.53439e-06 0.00387539)
(2.24663e-06 3.60954e-06 0.00387491)
(2.58835e-06 3.64165e-06 0.00387419)
(1.48379e-06 3.72539e-06 0.00387449)
(1.89632e-06 3.82536e-06 0.00387434)
(2.28001e-06 3.86147e-06 0.00387378)
(2.58403e-06 3.85063e-06 0.00387306)
(1.56245e-06 3.8382e-06 0.0038734)
(1.93351e-06 3.9099e-06 0.00387315)
(2.26955e-06 3.91104e-06 0.00387257)
(2.53502e-06 3.86319e-06 0.00387188)
(7.94615e-07 1.86236e-06 0.00387192)
(1.10516e-06 1.95491e-06 0.00387448)
(1.39699e-06 2.03932e-06 0.00387459)
(1.63762e-06 2.08881e-06 0.00387415)
(8.92323e-07 2.17821e-06 0.00387404)
(1.1883e-06 2.26257e-06 0.00387446)
(1.46183e-06 2.32025e-06 0.0038741)
(1.67932e-06 2.34996e-06 0.00387354)
(9.81018e-07 2.38153e-06 0.00387374)
(1.24776e-06 2.45659e-06 0.00387369)
(1.49334e-06 2.4906e-06 0.00387324)
(1.6858e-06 2.49359e-06 0.00387266)
(1.04301e-06 2.46548e-06 0.00387295)
(1.28334e-06 2.5234e-06 0.00387277)
(1.49732e-06 2.53582e-06 0.0038723)
(1.66375e-06 2.51496e-06 0.00387173)
(4.51372e-07 1.04591e-06 0.00387115)
(6.25716e-07 1.10041e-06 0.00387376)
(7.89264e-07 1.15053e-06 0.00387395)
(9.23734e-07 1.18097e-06 0.00387361)
(5.08616e-07 1.22409e-06 0.00387342)
(6.75503e-07 1.27495e-06 0.00387389)
(8.28929e-07 1.31098e-06 0.00387361)
(9.50158e-07 1.33124e-06 0.00387314)
(5.62124e-07 1.34104e-06 0.00387329)
(7.12889e-07 1.38754e-06 0.00387328)
(8.50553e-07 1.41081e-06 0.0038729)
(9.57272e-07 1.41651e-06 0.00387242)
(6.01573e-07 1.39288e-06 0.00387266)
(7.37412e-07 1.43015e-06 0.00387253)
(8.57045e-07 1.44159e-06 0.00387213)
(9.48402e-07 1.4335e-06 0.00387164)
(1.80551e-07 4.59464e-07 0.00387075)
(2.55182e-07 4.85939e-07 0.00387339)
(3.25274e-07 5.0845e-07 0.00387362)
(3.82641e-07 5.22073e-07 0.00387333)
(2.07658e-07 5.40269e-07 0.00387309)
(2.78139e-07 5.64253e-07 0.00387359)
(3.43024e-07 5.80848e-07 0.00387335)
(3.94014e-07 5.89981e-07 0.00387294)
(2.32786e-07 5.93685e-07 0.00387304)
(2.95806e-07 6.15638e-07 0.00387307)
(3.53117e-07 6.26813e-07 0.00387273)
(3.97186e-07 6.29921e-07 0.00387229)
(2.51708e-07 6.1859e-07 0.0038725)
(3.07828e-07 6.36481e-07 0.0038724)
(3.56895e-07 6.42657e-07 0.00387203)
(3.937e-07 6.39875e-07 0.00387159)
(3.88528e-05 -0.00100527 0.00623802)
(-0.000895336 -0.000471665 0.00664914)
(-0.00142265 -0.000257009 0.00756699)
(-0.00111072 4.676e-05 0.00555958)
(0.000618569 -4.10148e-05 0.00421297)
(0.000875315 7.26342e-05 0.00677559)
(-0.00020404 -0.000488848 0.00705867)
(-0.000454727 -0.000720486 0.00921299)
(0.000104942 -8.09621e-06 0.00520193)
(-0.000127017 -0.000385868 0.00858033)
(-0.000656695 -8.60725e-05 0.00599277)
(-6.96516e-05 -1.02434e-05 0.00272455)
(0.000317756 0.000231396 0.00461039)
(0.000328557 0.000328893 0.00341643)
(0.000125789 4.00395e-05 0.00730401)
(-0.000542555 0.000687785 0.00763741)
(-0.00105882 0.000366071 0.0117439)
(-0.00110296 -0.000340865 0.00794445)
(5.45934e-06 -0.000558786 0.00626957)
(8.76295e-05 -6.95491e-05 0.004108)
(-0.000239688 -0.000193875 0.00350995)
(-0.00148002 -0.00105408 0.0112418)
(-0.000346752 1.46106e-05 0.00605254)
(-0.000173044 -6.66936e-05 0.00621339)
(-0.000383309 -0.000487844 0.00962819)
(-8.73177e-05 -0.000159334 0.00510627)
(6.96084e-06 -0.000191266 0.00485827)
(-0.000507671 -0.000236474 0.00710201)
(-0.000155406 0.000373077 0.00687893)
(-0.00102178 0.0011092 0.00949663)
(-0.000325627 0.000373511 0.00841086)
(5.05263e-05 0.000286842 0.0073289)
(0.000130098 0.000305688 0.0155046)
(0.000320003 0.000479797 0.0100849)
(7.84528e-05 0.000120722 0.00500472)
(-0.000477824 0.000219393 0.0102183)
(-0.000122799 0.000934008 0.0125337)
(-0.000145844 0.000740616 0.0105198)
(-0.000160537 0.000315348 0.00718818)
(0.000151977 0.0002807 0.0173989)
(-3.5896e-05 0.000620893 0.00839378)
(-2.78033e-05 -0.000232791 0.0103692)
(-0.000650772 -0.000536741 0.0121548)
(-0.000433121 -0.000146566 0.0040061)
(-0.000890976 2.28114e-05 0.00723129)
(-0.000405196 6.52943e-05 0.0033676)
(-1.76364e-05 -9.02973e-06 0.003923)
(-0.000443399 4.51318e-05 0.0131929)
(-7.60415e-05 -0.000413844 0.00718434)
(-1.06744e-05 7.65192e-06 0.00625925)
(-0.000684554 0.000497852 0.0106458)
(-8.02462e-05 -1.08308e-05 0.000777961)
(4.74197e-05 0.000176954 0.00183244)
(0.0006946 0.00117914 0.0153656)
(-9.81326e-05 0.000230133 0.00688025)
(-0.000200884 0.000846774 0.0105508)
(-0.000760756 0.000775363 0.0107666)
(-0.000621255 0.000655995 0.0109532)
(-3.97561e-05 0.000841118 0.0108794)
(-0.000219713 0.000146304 0.00851949)
(0.000114053 -0.000435082 0.0127422)
(3.35895e-05 -0.000246627 0.00311872)
(-0.000528651 -0.000250573 0.00648429)
(-0.000119411 -0.000547973 0.0105037)
(-3.29351e-05 0.000345346 0.0183826)
(0.000317024 4.60565e-05 0.00553559)
(0.00151761 0.00079578 0.0128621)
(-0.000386971 0.000163972 0.00463066)
(-0.000313409 4.80589e-05 0.00759733)
(2.41678e-05 0.000450358 0.0109779)
(0.00026912 3.6249e-05 0.00676792)
(-0.000644216 -0.00021214 0.0107912)
(0.000213259 -9.08749e-05 0.0133558)
(-0.000121878 0.000483716 0.00657045)
(8.76763e-05 0.000413612 0.0112966)
(0.00021149 0.00045051 0.00922047)
(0.000334125 0.000119042 0.00698452)
(0.000501856 0.000396788 0.00822329)
(-0.000151235 6.76698e-05 0.0110271)
(-0.000261706 -8.54197e-06 0.0051041)
(0.000353793 0.000823096 0.00440559)
(0.000191191 0.000276305 0.00219433)
(-0.000830571 0.000647567 0.00624722)
(-0.000638765 0.000596906 0.00987206)
(-3.65876e-06 0.000553278 0.003791)
(0.000354146 0.000330071 0.00655201)
(-7.48483e-05 0.000442022 0.00677556)
(-0.0001887 8.60724e-05 0.00693506)
(0.000239496 0.00010713 0.00536671)
(0.000353202 -0.000205532 0.00782093)
(-0.000331918 -3.37332e-05 0.00338083)
(-0.000579245 -0.000785168 0.00645482)
(7.1933e-05 -0.000669185 0.00608578)
(0.000595338 -0.000600174 0.00377575)
(1.08853e-06 -0.00046881 0.00599481)
(-0.00110858 -0.000172791 0.00905384)
(0.000765706 0.00143024 0.00792805)
(-0.00096249 -0.000397546 0.00456725)
(-0.000842801 0.000206453 0.00879887)
(-0.000564123 7.61252e-05 0.00618678)
(0.0013058 -0.00173421 0.00326214)
(-0.00187294 -0.0025334 0.00645446)
(-0.00192896 -0.00516624 0.0050752)
(0.000165718 -0.00268841 0.00929329)
(-0.000395723 -7.10147e-05 0.00728893)
(0.000303936 0.00032825 0.0099241)
(-0.000810115 -0.00111846 0.00555661)
(0.000477598 -0.000168524 0.0071883)
(-0.000123752 -0.0022035 0.00485718)
(0.00243807 -0.00446035 0.001139)
(-0.00127857 -0.00166751 0.00918222)
(0.00185947 -0.0130774 -0.00171507)
(0.000290086 -0.000264302 0.0124597)
(0.000279726 -0.000179294 0.0132299)
(0.000685777 -0.000669073 0.0134245)
(0.000476249 -0.000795579 0.0110812)
(0.000204188 -0.000867216 0.0125553)
(-0.000231185 -0.00119206 0.012109)
(-0.000412091 -0.000926152 0.0071875)
(-0.000181687 -0.000862578 0.00781196)
(-0.0004656 0.000238982 0.007813)
(-0.000168605 0.000441619 0.0104809)
(0.000133126 -9.74639e-05 0.00854649)
(0.000104175 0.000687288 0.0130376)
(2.02325e-06 0.000760099 0.0094987)
(-0.000695124 -0.000404933 0.0096366)
(-0.000126333 8.52151e-05 0.00737568)
(8.401e-05 -0.000492497 0.00668279)
(5.34976e-05 1.97324e-05 0.00201973)
(6.29978e-05 0.00035995 0.00247985)
(0.000331737 0.000859403 0.00264435)
(0.000609383 0.00107438 0.00237935)
(-2.81112e-05 0.000719216 0.00225705)
(0.000515073 0.00089201 0.00241169)
(0.000551152 0.0010972 0.00187604)
(0.000420022 0.000781116 0.00187854)
(-0.000428152 0.000625003 0.00214973)
(-0.00015078 0.000770194 0.00288275)
(0.000133536 0.000802021 0.00240059)
(0.000204381 0.000769468 0.0025472)
(9.04828e-05 0.00090018 0.00216211)
(0.000427451 0.00109767 0.00175641)
(0.000480548 0.00117382 0.00166087)
(-0.000166075 0.00121567 0.00107125)
(3.81868e-05 -9.22673e-05 0.00521663)
(4.93371e-05 -2.10666e-05 0.00545287)
(0.000174933 0.00014626 0.00547238)
(0.000241516 0.000242432 0.00526281)
(-2.97405e-05 0.000178134 0.00527602)
(0.000136019 0.000237208 0.00529141)
(0.000227807 0.000323729 0.00495785)
(0.000206124 0.00028515 0.00477427)
(-0.000155556 0.000263786 0.00458766)
(-6.7985e-05 0.00035286 0.00495994)
(0.00010858 0.00038707 0.00479293)
(0.000133048 0.00037929 0.00481676)
(1.56867e-05 0.000538003 0.00478506)
(0.000111102 0.000591192 0.0047185)
(0.000143862 0.000562649 0.00441141)
(-1.77323e-05 0.0005305 0.00429999)
(5.9329e-06 2.79395e-05 0.0038478)
(3.59852e-05 7.4656e-05 0.00399857)
(8.41697e-05 0.000138981 0.00405178)
(0.000126071 0.000189297 0.00402495)
(-2.92095e-05 0.000167756 0.00392569)
(5.17366e-05 0.000207493 0.00402707)
(9.58714e-05 0.000243724 0.00398704)
(0.00010848 0.000244145 0.00393809)
(-6.17915e-05 0.000201384 0.00378294)
(-1.33855e-05 0.000245004 0.00397247)
(5.5951e-05 0.000269562 0.00395897)
(7.56071e-05 0.000259938 0.00393478)
(1.52087e-05 0.000315175 0.00377982)
(6.87102e-05 0.00033881 0.00383322)
(7.07448e-05 0.000319815 0.00379644)
(2.59826e-05 0.000286405 0.00375859)
(-1.77561e-06 1.97981e-05 0.00389458)
(1.66069e-05 4.29517e-05 0.00400231)
(4.15916e-05 7.24838e-05 0.0040501)
(5.86629e-05 9.7634e-05 0.00404436)
(-2.09238e-05 8.89714e-05 0.00390695)
(1.48267e-05 0.000111145 0.00399943)
(4.19629e-05 0.000130202 0.00401123)
(5.36889e-05 0.000137155 0.00398619)
(-2.97968e-05 0.000122541 0.00381938)
(-5.09467e-06 0.000143441 0.00394009)
(2.67868e-05 0.000156437 0.00395761)
(3.94411e-05 0.000152911 0.00393987)
(1.12856e-06 0.000174218 0.00379428)
(2.37821e-05 0.000183724 0.00386974)
(2.95287e-05 0.000176949 0.00387357)
(2.16066e-05 0.000159743 0.00386019)
(-5.14625e-06 1.95467e-05 0.00379437)
(7.13681e-06 3.27357e-05 0.00389973)
(2.00415e-05 4.73125e-05 0.00395379)
(2.93438e-05 6.07435e-05 0.00396587)
(-1.51453e-05 5.49277e-05 0.00381236)
(3.06898e-06 6.76628e-05 0.00391496)
(1.79979e-05 7.82669e-05 0.00395006)
(2.65236e-05 8.38385e-05 0.00394607)
(-1.64082e-05 7.71328e-05 0.00378102)
(-2.59479e-06 8.78461e-05 0.00389004)
(1.27269e-05 9.47478e-05 0.00392124)
(2.08213e-05 9.39773e-05 0.0039162)
(-2.1578e-06 9.9566e-05 0.00375783)
(8.12856e-06 0.000104544 0.00385286)
(1.31324e-05 0.000103127 0.00387801)
(1.38445e-05 9.5594e-05 0.00387654)
(-5.61567e-06 1.54882e-05 0.00374697)
(2.13625e-06 2.35127e-05 0.00385098)
(9.61105e-06 3.18004e-05 0.00390781)
(1.52438e-05 3.96257e-05 0.00392683)
(-1.06782e-05 3.47991e-05 0.0037645)
(-6.56067e-07 4.24922e-05 0.00387011)
(8.00696e-06 4.8949e-05 0.00391372)
(1.38412e-05 5.29024e-05 0.00391988)
(-9.88537e-06 4.86951e-05 0.00375626)
(-1.81363e-06 5.47987e-05 0.00386271)
(6.43737e-06 5.892e-05 0.00389943)
(1.17461e-05 5.92537e-05 0.00390202)
(-2.29961e-06 5.89292e-05 0.00374098)
(2.93382e-06 6.22289e-05 0.00384272)
(6.68999e-06 6.27436e-05 0.00387569)
(8.98968e-06 5.98163e-05 0.00387971)
(-4.85643e-06 1.14479e-05 0.00371816)
(6.65924e-08 1.64837e-05 0.0038223)
(4.68819e-06 2.15697e-05 0.00388078)
(8.35323e-06 2.64354e-05 0.00390322)
(-7.42064e-06 2.25405e-05 0.00373729)
(-1.54423e-06 2.73343e-05 0.00384435)
(3.76218e-06 3.14791e-05 0.0038916)
(7.76324e-06 3.42615e-05 0.00390271)
(-6.24904e-06 3.10347e-05 0.00374038)
(-1.34035e-06 3.47933e-05 0.00384671)
(3.57749e-06 3.75176e-05 0.00388602)
(7.20242e-06 3.82303e-05 0.00389256)
(-1.72879e-06 3.61504e-05 0.0037329)
(1.30719e-06 3.85176e-05 0.00383701)
(4.0424e-06 3.95551e-05 0.00387287)
(6.25859e-06 3.8614e-05 0.00387936)
(-3.77145e-06 8.16225e-06 0.00370037)
(-5.83149e-07 1.14008e-05 0.00380473)
(2.4064e-06 1.46657e-05 0.00386417)
(4.8971e-06 1.78232e-05 0.0038884)
(-5.09499e-06 1.48201e-05 0.00372124)
(-1.46288e-06 1.78951e-05 0.00382898)
(1.9377e-06 2.06486e-05 0.00387791)
(4.71845e-06 2.26251e-05 0.00389153)
(-4.03845e-06 2.0045e-05 0.00373032)
(-9.22941e-07 2.24886e-05 0.00383687)
(2.22758e-06 2.4393e-05 0.00387748)
(4.77633e-06 2.51663e-05 0.00388605)
(-1.15286e-06 2.28908e-05 0.00372855)
(8.17165e-07 2.46083e-05 0.00383348)
(2.81173e-06 2.56524e-05 0.00387045)
(4.62267e-06 2.55334e-05 0.00387808)
(-2.76451e-06 5.7095e-06 0.003689)
(-6.50032e-07 7.83643e-06 0.00379351)
(1.34477e-06 9.99586e-06 0.00385347)
(3.07589e-06 1.21085e-05 0.0038787)
(-3.4694e-06 9.85509e-06 0.0037113)
(-1.1241e-06 1.18799e-05 0.00381934)
(1.13195e-06 1.37525e-05 0.00386911)
(3.0883e-06 1.51685e-05 0.00388404)
(-2.63836e-06 1.31356e-05 0.00372377)
(-5.77796e-07 1.47801e-05 0.00383049)
(1.53793e-06 1.61451e-05 0.00387177)
(3.36171e-06 1.68462e-05 0.00388142)
(-7.27098e-07 1.48804e-05 0.00372575)
(6.53737e-07 1.61195e-05 0.00383096)
(2.12156e-06 1.70101e-05 0.00386837)
(3.52869e-06 1.71978e-05 0.00387656)
(-1.95924e-06 3.94959e-06 0.00368156)
(-5.29018e-07 5.37016e-06 0.00378614)
(8.29806e-07 6.82732e-06 0.0038464)
(2.04978e-06 8.26703e-06 0.00387219)
(-2.34874e-06 6.60499e-06 0.00370492)
(-7.82946e-07 7.96544e-06 0.00381308)
(7.50775e-07 9.25899e-06 0.00386328)
(2.13702e-06 1.0278e-05 0.00387893)
(-1.73419e-06 8.7167e-06 0.00371939)
(-3.25739e-07 9.84644e-06 0.00382619)
(1.13765e-06 1.08325e-05 0.00386783)
(2.45235e-06 1.14177e-05 0.00387807)
(-4.44415e-07 9.86567e-06 0.00372373)
(5.64288e-07 1.07569e-05 0.00382903)
(1.6522e-06 1.14633e-05 0.00386664)
(2.72017e-06 1.17383e-05 0.00387512)
(-1.35656e-06 2.70767e-06 0.0036766)
(-3.77403e-07 3.66647e-06 0.00378121)
(5.57421e-07 4.6598e-06 0.00384163)
(1.42091e-06 5.65066e-06 0.00386777)
(-1.58149e-06 4.443e-06 0.00370069)
(-5.13957e-07 5.3683e-06 0.00380889)
(5.42855e-07 6.26818e-06 0.00385933)
(1.52557e-06 7.00059e-06 0.00387539)
(-1.14293e-06 5.83214e-06 0.0037164)
(-1.60778e-07 6.61558e-06 0.00382322)
(8.66096e-07 7.32626e-06 0.00386506)
(1.81215e-06 7.78926e-06 0.00387565)
(-2.66207e-07 6.62265e-06 0.00372222)
(4.80722e-07 7.25933e-06 0.00382753)
(1.28522e-06 7.79722e-06 0.00386524)
(2.08121e-06 8.06587e-06 0.00387389)
(-9.2014e-07 1.83457e-06 0.00367326)
(-2.49054e-07 2.48208e-06 0.00377788)
(3.93011e-07 3.15882e-06 0.0038384)
(1.00096e-06 3.84006e-06 0.00386474)
(-1.05573e-06 2.97908e-06 0.00369786)
(-3.23518e-07 3.60906e-06 0.00380607)
(4.05185e-07 4.2329e-06 0.00385663)
(1.0962e-06 4.75386e-06 0.00387294)
(-7.51203e-07 3.90338e-06 0.00371433)
(-6.38929e-08 4.44537e-06 0.00382116)
(6.55882e-07 4.95129e-06 0.00386311)
(1.32935e-06 5.30197e-06 0.00387391)
(-1.56912e-07 4.45663e-06 0.00372107)
(3.91618e-07 4.90561e-06 0.00382638)
(9.77942e-07 5.30172e-06 0.00386415)
(1.55878e-06 5.52796e-06 0.00387291)
(-6.07202e-07 1.21521e-06 0.00367102)
(-1.54981e-07 1.64588e-06 0.00377564)
(2.77985e-07 2.0994e-06 0.00383622)
(6.96985e-07 2.55936e-06 0.00386269)
(-6.91035e-07 1.96381e-06 0.00369595)
(-1.96019e-07 2.38606e-06 0.00380416)
(2.97682e-07 2.81006e-06 0.0038548)
(7.7216e-07 3.17106e-06 0.00387127)
(-4.86285e-07 2.57432e-06 0.00371291)
(-1.37742e-08 2.94213e-06 0.00381973)
(4.80514e-07 3.29259e-06 0.00386175)
(9.47286e-07 3.5458e-06 0.00387269)
(-9.06081e-08 2.95702e-06 0.00372022)
(3.0034e-07 3.26551e-06 0.00382553)
(7.14518e-07 3.54579e-06 0.00386334)
(1.12417e-06 3.7192e-06 0.00387217)
(-3.79972e-07 7.65078e-07 0.00366956)
(-9.02401e-08 1.03833e-06 0.00377418)
(1.86994e-07 1.32775e-06 0.0038348)
(4.60342e-07 1.62276e-06 0.00386134)
(-4.3091e-07 1.23436e-06 0.0036947)
(-1.1243e-07 1.50409e-06 0.00380291)
(2.05013e-07 1.77748e-06 0.0038536)
(5.12777e-07 2.01346e-06 0.00387016)
(-3.00869e-07 1.62054e-06 0.00371196)
(7.08538e-09 1.85755e-06 0.00381878)
(3.28308e-07 2.0864e-06 0.00386084)
(6.33068e-07 2.2564e-06 0.00387186)
(-5.01907e-08 1.87176e-06 0.00371962)
(2.1115e-07 2.07197e-06 0.00382493)
(4.85673e-07 2.2574e-06 0.00386276)
(7.5641e-07 2.37795e-06 0.00387165)
(-2.09874e-07 4.26271e-07 0.00366869)
(-4.68388e-08 5.80261e-07 0.00377331)
(1.08357e-07 7.42997e-07 0.00383394)
(2.6395e-07 9.09264e-07 0.00386053)
(-2.37666e-07 6.86773e-07 0.00369395)
(-5.7868e-08 8.39532e-07 0.00380215)
(1.20388e-07 9.94339e-07 0.00385287)
(2.94577e-07 1.1291e-06 0.00386948)
(-1.65045e-07 9.02581e-07 0.00371138)
(1.0402e-08 1.03748e-06 0.0038182)
(1.92342e-07 1.16813e-06 0.00386028)
(3.65423e-07 1.26689e-06 0.00387135)
(-2.50634e-08 1.04665e-06 0.00371924)
(1.26247e-07 1.16108e-06 0.00382455)
(2.83729e-07 1.26784e-06 0.0038624)
(4.38682e-07 1.33931e-06 0.00387132)
(-9.41346e-08 1.85875e-07 0.00366822)
(-2.75625e-08 2.55627e-07 0.00377284)
(3.83354e-08 3.2837e-07 0.00383349)
(1.02396e-07 4.00857e-07 0.00386011)
(-1.04563e-07 2.97644e-07 0.00369355)
(-3.05286e-08 3.68123e-07 0.00380176)
(4.54719e-08 4.37413e-07 0.00385249)
(1.1859e-07 4.97154e-07 0.00386913)
(-7.29757e-08 3.92708e-07 0.00371107)
(1.01812e-10 4.56376e-07 0.00381789)
(7.77845e-08 5.15269e-07 0.00385999)
(1.50679e-07 5.59733e-07 0.00387108)
(-1.18388e-08 4.57083e-07 0.00371904)
(5.21042e-08 5.12251e-07 0.00382435)
(1.19068e-07 5.60859e-07 0.00386221)
(1.84027e-07 5.93565e-07 0.00387115)
(-0.00129517 -0.000382922 0.00753619)
(-0.000249878 0.000247126 0.00341128)
(-0.000332538 0.000238781 0.00630608)
(9.06918e-05 0.000204409 0.00288976)
(-0.000665051 -0.000658475 0.00509294)
(-0.000317842 -4.90745e-05 0.00936972)
(-0.000128476 0.00026187 0.00525363)
(-5.93528e-05 0.000363799 0.0045956)
(-0.000394104 -0.000209645 0.00565521)
(-8.61563e-05 -0.000570508 0.00482361)
(4.79513e-05 -0.000401042 0.0058879)
(-0.000154663 -0.000491426 0.00797189)
(-0.0004232 -0.000335603 0.00689609)
(-0.000267808 -5.1639e-05 0.00544973)
(-0.000115356 -0.000261768 0.00530113)
(2.72302e-05 -0.000318467 0.0015959)
(-0.000245596 0.00022475 0.0115417)
(-0.0001592 0.00023175 0.0100022)