/*--------------------------------*- C++ -*----------------------------------*\
| =========                 |                                                 |
| \\      /  F ield         | OpenFOAM: The Open Source CFD Toolbox           |
|  \\    /   O peration     | Version:  2506                                  |
|   \\  /    A nd           | Website:  www.openfoam.com                      |
|    \\/     M anipulation  |                                                 |
\*---------------------------------------------------------------------------*/
FoamFile
{
    version     2.0;
    format      ascii;
    arch        "LSB;label=32;scalar=64";
    class       volScalarField;
    location    "0.003";
    object      p;
}
// * * * * * * * * * * * * * * * * * * * * * * * * * * * * * * * * * * * * * //

dimensions      [0 2 -2 0 0 0 0];

internalField   nonuniform List<scalar> 
512
(
-0.306584
-23.7267
-29.8567
-18.9056
-21.1373
-28.891
0.520473
30.7528
32.1139
15.7763
30.9407
53.0559
53.4486
45.0474
55.2253
71.9611
81.5803
80.4853
73.0598
75.5621
74.1026
56.3516
40.6254
44.6807
55.9471
63.1581
69.435
78.3999
91.0703
100.862
87.8922
40.5456
3.77567
-17.9112
-20.3546
-21.0022
-35.3914
-23.2024
8.09297
30.5025
31.8367
19.9223
34.8411
53.423
50.7565
43.7869
55.4911
71.0659
78.1219
77.266
73.7822
75.747
72.3387
57.3185
45.9643
48.3623
56.2734
62.2691
67.971
75.988
87.5656
96.7076
83.912
40.3417
8.23949
-6.47076
-13.4665
-20.5652
-35.1177
-18.098
11.7777
29.8727
31.963
26.8736
42.5608
54.8978
44.3491
41.022
57.2863
72.5782
74.2628
69.8756
71.8832
75.7467
71.6668
60.9836
52.7847
52.5238
56.7948
61.1381
65.3584
71.2443
80.5179
88.1561
75.1854
35.0285
5.034
-3.67447
-3.27412
-14.1041
-28.3838
-9.77638
15.9548
27.9933
29.7687
33.5939
50.9803
56.8198
37.4584
39.0366
60.6574
77.8571
75.0279
59.83
65.8329
75.8752
73.7751
65.9466
58.2358
55.2482
57.4904
60.7552
62.3591
64.2087
69.5121
75.2194
65.0323
31.9668
-0.379992
1.31562
2.61835
-15.8512
-14.2775
6.06653
24.9763
28.362
20.1349
33.6308
56.019
56.8771
35.0896
40.2409
62.9997
78.7073
74.0632
57.0862
65.1727
78.4267
78.8582
72.1801
61.8623
55.8121
59.285
63.7707
59.836
53.3401
54.746
60.4782
54.4845
27.2492
-9.66635
-2.45937
3.71273
0.514305
3.70446
15.9848
29.8304
29.1394
16.5662
32.5748
56.5093
55.7977
35.128
43.581
65.2705
75.8768
70.043
59.7042
69.4599
83.7042
87.2346
80.022
62.9728
53.8126
64.4833
75.0272
62.6458
35.3922
32.7765
46.4724
44.3443
12.1404
-2.17774
1.17928
6.52881
8.33466
12.3525
21.8865
33.1871
29.6782
14.8567
30.8086
55.0747
54.3469
36.7721
48.7083
71.1813
74.7648
60.7291
59.3689
74.8632
90.4035
97.7447
87.8538
59.3465
52.0011
73.2891
85.2964
64.5352
24.4366
9.99847
20.7647
24.5089
9.39137
-4.48058
4.33733
7.94536
10.7939
15.9744
25.653
36.8811
31.5719
11.2531
27.9411
53.7536
53.682
38.5931
51.7409
74.1484
74.5132
55.3589
59.0494
78.1498
94.8062
104.467
92.9227
56.2097
53.041
80.495
89.7636
58.0095
25.8827
10.0614
9.68866
11.7719
-3.01982
1.11808
-19.3172
-18.0142
-19.1564
-36.7848
-25.8527
3.08354
21.2025
26.6871
28.742
37.4956
47.8415
51.7592
53.8469
61.0999
70.7243
77.703
81.2535
84.1826
88.3771
78.1146
43.3995
31.6635
44.6683
56.6408
62.025
67.6333
76.4563
88.5481
97.2571
83.514
39.0199
6.66136
-9.82779
-15.2414
-21.2631
-38.1819
-23.3308
5.79932
21.9693
27.4438
30.442
39.0839
48.1349
51.015
53.3562
60.9221
69.8902
75.6209
78.6604
82.6049
87.8043
78.4277
46.8029
35.7019
46.469
56.5193
61.0342
66.0693
74.0957
85.118
92.825
78.2301
35.7626
6.4816
-2.52511
-6.25583
-18.2404
-35.8258
-18.5591
8.88029
22.8554
28.6407
33.3023
41.9946
48.7298
49.5542
52.5585
61.1881
69.5353
73.1879
74.8124
78.5374
81.9141
75.2573
57.142
46.1348
49.8112
56.2495
59.674
63.3522
69.3474
77.9456
84.1207
70.6358
31.9314
4.31397
4.45577
3.68777
-19.0792
-29.2415
-9.49657
12.5171
23.2588
29.0638
35.9992
45.1283
49.3279
48.0941
52.0632
62.1388
70.4044
71.8561
70.8963
74.3291
77.8833
74.5271
65.107
55.5813
52.6028
55.871
59.2456
60.5438
62.4509
67.0692
71.3141
61.1346
29.8474
0.41061
7.0004
9.64503
-11.6848
-16.5917
0.538099
17.0726
23.7168
27.6959
36.5835
46.8897
49.6015
47.5056
52.3305
62.8858
70.5755
70.9843
69.1851
73.4138
79.3739
80.2843
74.8448
61.0035
49.3402
55.192
62.4795
58.5733
52.0987
52.5483
57.0811
50.5677
23.1334
-2.4059
1.60712
5.43741
1.79017
2.90517
11.3436
20.4842
24.2401
26.6583
36.0212
46.9538
49.4052
47.7423
53.4501
63.5144
69.4887
69.4502
69.1867
75.3897
85.0942
92.1455
84.5599
56.5808
45.4526
61.1637
73.1089
60.7532
35.7996
31.0659
41.0927
38.8802
14.6625
3.14777
3.91697
6.94105
8.59117
11.4445
17.4178
23.8744
24.8823
24.8961
34.4198
46.2934
49.1741
48.4762
55.0957
64.6809
68.2501
67.0088
69.2994
78.3533
90.36
98.9524
88.6299
54.442
49.6662
72.3335
83.9136
64.47
24.1231
7.99753
17.5259
22.1407
11.6051
0.89922
4.98861
8.00666
10.7997
14.7563
21.3474
29.0695
27.3231
20.2117
30.6967
45.7869
49.1359
48.8255
55.9435
65.4863
67.7319
65.6115
69.5171
80.3119
93.1526
101.991
90.0503
54.4473
55.6167
82.6308
89.5057
58.0053
24.8638
5.56691
4.35493
10.6407
4.75464
)
;

boundaryField
{
    wall
    {
        type            zeroGradient;
    }
    outlet
    {
        type            cyclic;
    }
    inlet
    {
        type            cyclic;
    }
    procBoundary0to1
    {
        type            processor;
        value           nonuniform List<scalar> 
256
(
4.35662
-7.72422
-9.88597
-18.4105
-39.1338
-24.5547
3.29344
18.7012
27.4205
33.5805
40.0705
47.5609
53.7839
58.6536
64.1982
70.7562
77.9662
86.2026
89.9639
87.8291
75.0094
41.3306
31.0639
45.3201
56.2955
59.682
64.2698
72.8406
83.8732
90.3905
74.0196
31.3661
3.36739
-2.50419
-4.05875
-16.6146
-38.5185
-22.6517
5.02182
19.6576
28.1758
34.5897
41.0491
48.0453
53.7212
58.2781
63.6428
69.82
75.7058
81.3654
86.8081
90.6277
79.5412
44.7712
32.9183
45.7398
55.7462
58.1388
62.419
70.6568
80.7887
86.6029
70.5478
27.5916
2.25601
3.41012
4.91586
-14.2266
-35.7841
-17.9853
7.58314
20.8505
29.2966
36.1771
42.7527
49.1047
53.8082
57.9173
63.1287
68.646
73.5262
78.1286
83.6082
87.9968
78.9767
51.9212
40.1408
48.5702
54.947
55.3746
59.1911
66.3648
74.0603
78.1453
63.8564
26.083
2.68383
10.0994
11.2434
-13.6655
-26.7017
-9.87624
10.398
21.8019
30.2537
37.8698
44.6247
50.0532
53.6713
57.653
63.1559
68.4524
72.6398
76.1292
79.8782
80.6683
73.6181
61.2549
52.3599
51.8909
54.0723
54.7596
56.6081
59.8737
63.8044
66.5254
54.9252
22.2386
5.25863
6.71508
6.21864
-3.72296
-7.0821
1.48991
13.2112
22.4955
30.4993
38.3724
45.4862
50.257
53.0837
57.1706
63.5505
69.9946
73.1061
74.0671
76.9307
78.7607
76.8005
72.2137
60.1077
47.296
52.8292
59.9589
55.9183
49.4557
48.3921
50.4768
43.4374
21.5105
7.41075
5.51707
6.31944
4.59577
4.55384
9.03571
15.9535
22.9952
29.9696
37.6546
44.9304
49.8669
53.4097
57.6202
63.0767
68.9603
71.746
72.5092
76.9001
83.1213
85.9894
79.2533
59.5733
47.6977
60.629
71.6504
59.131
33.4454
26.3817
33.0707
31.9647
18.8654
7.64343
5.71869
7.72622
9.34016
10.9311
14.0677
18.5873
23.5097
28.9519
36.2929
43.9956
49.4798
54.0193
58.3509
62.1819
66.9999
70.2657
72.5257
78.5505
87.4174
93.3594
83.0571
56.1729
54.2115
73.719
82.0913
62.0876
22.2111
6.05559
15.0215
21.6747
15.6903
5.5159
4.91834
8.48098
11.2308
13.5682
16.858
21.0597
24.3006
27.8468
34.9901
43.1878
48.5649
52.6893
57.7613
63.038
67.2417
69.8318
73.0992
79.9516
89.1662
94.7069
82.4542
57.5094
63.2334
85.4078
87.0348
55.5035
23.2054
3.37527
1.04735
11.8173
12.7837
)
;
    }
}


// ************************************************************************* //
