FoamFile
{version 2.0; format ascii;class Cloud<passiveParticle>; location 0;object  positions;}
2498
(
( -0.00234841 0.000121713 0.00185972 ) 0 
( -0.0118294 1.09635e-06 0.00588837 ) 0 
( -0.012401 0.000655215 0.00322418 ) 0 
( -0.0123493 0.000405076 0.00223813 ) 0 
( -0.00876978 0.000158815 0.00570487 ) 0 
( -0.00848834 7.92653e-05 0.00376529 ) 0 
( -0.00223512 0.000634953 0.00770611 ) 0 
( -0.0031918 0.000158548 0.00132386 ) 0 
( -0.011953 0.000126703 0.00136332 ) 0 
( -0.00428309 0.000143872 0.00616186 ) 0 
( -0.000287809 7.50639e-05 0.00286383 ) 0 
( -0.0110645 9.95986e-05 0.00652606 ) 0 
( -0.0133434 0.000422516 0.00213202 ) 0 
( -0.00586889 0.000198842 0.00346331 ) 0 
( -0.00375582 0.000112774 0.000499572 ) 0 
( -0.00830215 0.000301798 0.00270363 ) 0 
( -0.00525084 0.000407914 0.00821716 ) 0 
( -0.00939753 1.06372e-05 0.0130619 ) 0 
( -0.00485655 1.59348e-05 0.0129755 ) 0 
( -0.00561911 6.27506e-07 0.0123297 ) 0 
( -0.0110943 0.00153495 0.0142309 ) 0 
( -0.011289 0.00331117 0.0150175 ) 0 
( -0.00776181 0.000649978 0.0142969 ) 0 
( -0.00667732 0.000230171 0.0146034 ) 0 
( -0.000897433 0.000116265 0.0107541 ) 0 
( -0.0069122 5.37152e-05 0.0131953 ) 0 
( -0.0127482 0.000243292 0.0121176 ) 0 
( -0.0108702 0.000575535 0.0140512 ) 0 
( -0.00827439 0.000497784 0.0129919 ) 0 
( -0.00593889 0.000278443 0.013235 ) 0 
( -0.00235018 6.97969e-05 0.0116481 ) 0 
( -0.00284817 1.09564e-05 0.00909363 ) 0 
( -0.00910784 0.0010006 0.0016164 ) 0 
( -0.00112574 0.0097446 0.00123507 ) 0 
( -0.00619049 0.00410299 0.00410943 ) 0 
( -0.0054336 0.00374901 0.0070872 ) 0 
( -0.00201513 0.00567122 0.00328094 ) 0 
( -0.000606837 0.0116095 0.00754151 ) 0 
( -0.00112975 0.0120142 0.00150509 ) 0 
( -0.0125084 0.00187684 0.0014459 ) 0 
( -0.00656559 0.00617545 0.00486646 ) 0 
( -0.00262823 0.010913 0.00737463 ) 0 
( -0.0120385 0.00251342 0.00049975 ) 0 
( -0.003444 0.00879723 0.00459315 ) 0 
( -0.00997123 0.00260206 0.000499671 ) 0 
( -0.00983984 0.00764141 0.000499573 ) 0 
( -0.0105285 0.006561 0.00298497 ) 0 
( -0.00728332 0.00433306 0.00212434 ) 0 
( -0.00436785 0.00555679 0.00347343 ) 0 
( -0.0032998 0.00543024 0.00327084 ) 0 
( -0.0109476 0.00568431 0.00119314 ) 0 
( -0.012086 0.000965594 0.00601521 ) 0 
( -0.00760144 0.00630326 0.00627057 ) 0 
( -0.00259572 0.00166616 0.00554472 ) 0 
( -0.00389863 0.00887786 0.00548002 ) 0 
( -0.00526729 0.00436588 0.00496249 ) 0 
( -0.00549227 0.00607013 0.00218695 ) 0 
( -0.006725 0.00932551 0.000499739 ) 0 
( -0.00034845 0.00523585 0.00449987 ) 0 
( -0.0110895 0.00310525 0.000499728 ) 0 
( -0.00111532 0.0104861 0.00327675 ) 0 
( -0.00859036 0.00921335 0.00585342 ) 0 
( -0.000657656 0.00732222 0.00543605 ) 0 
( -0.00634096 0.00046079 0.00203692 ) 0 
( -0.00533987 0.00933388 0.00198962 ) 0 
( -0.0123171 0.00514984 0.0048276 ) 0 
( -0.00166256 0.00500692 0.00123825 ) 0 
( -0.000923096 0.00351168 0.00345533 ) 0 
( -0.0126527 0.00425842 0.000499665 ) 0 
( -0.000845873 0.00780259 0.00385865 ) 0 
( -0.00695609 0.00974584 0.00238586 ) 0 
( -0.00550883 0.00219387 0.00744019 ) 0 
( -0.00332911 0.00944474 0.00608181 ) 0 
( -0.0017093 0.00782396 0.00677301 ) 0 
( -0.0104703 0.00320166 0.00227816 ) 0 
( -0.00364324 0.00615076 0.00506071 ) 0 
( -0.0011528 0.00432956 0.00683786 ) 0 
( -0.0013102 0.00941239 0.00335919 ) 0 
( -0.0111056 0.00465786 0.00344692 ) 0 
( -0.00318561 0.00873885 0.000499523 ) 0 
( -0.000558437 0.0126734 0.00392001 ) 0 
( -0.0106274 0.00159027 0.00135405 ) 0 
( -0.00848105 0.00374439 0.00386691 ) 0 
( -0.00897403 0.00800237 0.00582819 ) 0 
( -0.00504435 0.0030791 0.000949621 ) 0 
( -0.00200546 0.00442684 0.000499635 ) 0 
( -0.00167485 0.0104261 0.00412746 ) 0 
( -0.00300441 0.00234293 0.00493267 ) 0 
( -0.00947584 0.000345895 0.00432627 ) 0 
( -0.00376144 0.0103374 0.0059548 ) 0 
( -0.00316919 0.0120591 0.00700496 ) 0 
( -0.00696581 0.00323173 0.0050568 ) 0 
( -0.00800573 0.00457693 0.00358072 ) 0 
( -0.00328781 0.00553529 0.00584014 ) 0 
( -0.0100518 0.00724778 0.00139378 ) 0 
( -0.00163944 0.00132787 0.00293143 ) 0 
( -0.00575299 0.00714083 0.00349089 ) 0 
( -0.00102144 0.00802375 0.00215404 ) 0 
( -0.00581093 0.00136223 0.00696788 ) 0 
( -0.00264053 0.00111215 0.00692681 ) 0 
( -0.000624009 0.00498891 0.00335261 ) 0 
( -0.003856 0.0098025 0.00510241 ) 0 
( -0.00724345 0.0100246 0.00136561 ) 0 
( -0.00433873 0.0106965 0.0021645 ) 0 
( -0.00534312 0.00839404 0.00502543 ) 0 
( -0.00594843 0.0104597 0.00647658 ) 0 
( -0.011949 0.00481585 0.00396022 ) 0 
( -0.00497207 0.00286098 0.00192272 ) 0 
( -0.00187347 0.0108271 0.0064487 ) 0 
( -0.00217957 0.00447489 0.0046119 ) 0 
( -0.00556858 0.000600316 0.00141729 ) 0 
( -0.00224421 0.000804828 0.00591288 ) 0 
( -0.00967375 0.00395873 0.00507928 ) 0 
( -0.0104416 0.00309129 0.00128477 ) 0 
( -0.00144992 0.00676127 0.00691628 ) 0 
( -0.00266394 0.00565885 0.00248112 ) 0 
( -0.00797365 0.000493863 0.00724655 ) 0 
( -0.012147 0.0024524 0.00324508 ) 0 
( -0.00283998 0.0112456 0.00421563 ) 0 
( -0.000598024 0.0105058 0.0065887 ) 0 
( -0.00271622 0.00283151 0.0024367 ) 0 
( -0.00192483 0.00979916 0.00188381 ) 0 
( -0.0044117 0.0057767 0.00679842 ) 0 
( -0.00598321 0.00530265 0.00143493 ) 0 
( -0.00688804 0.00287555 0.00381187 ) 0 
( -0.00683722 0.00125309 0.00734198 ) 0 
( -0.00449393 0.00350688 0.00251778 ) 0 
( -0.0109106 0.00412731 0.00646512 ) 0 
( -0.00893759 0.00587862 0.00398832 ) 0 
( -0.00412177 0.00234602 0.00282756 ) 0 
( -0.0030282 0.00258947 0.00597245 ) 0 
( -0.000124068 0.00308416 0.0019623 ) 0 
( -0.00326374 0.00904926 0.00266877 ) 0 
( -0.00668103 0.011558 0.00542921 ) 0 
( -0.00235785 0.00712012 0.0047036 ) 0 
( -0.00775707 0.00259803 0.00338835 ) 0 
( -0.00337912 0.00325343 0.00475807 ) 0 
( -0.011375 0.000809534 0.00532974 ) 0 
( -0.00990218 0.00743177 0.00236534 ) 0 
( -0.0112058 0.00433292 0.00442298 ) 0 
( -0.00100225 0.00342219 0.00783519 ) 0 
( -0.00771017 0.00663023 0.00720883 ) 0 
( -0.00167721 0.000816826 0.000499629 ) 0 
( -0.0130474 0.00282611 0.00598295 ) 0 
( -0.00382755 0.00649697 0.00717298 ) 0 
( -0.000958836 0.00164778 0.00472764 ) 0 
( -9.96871e-05 0.00954432 0.00451457 ) 0 
( -0.00240868 0.00898275 0.00420869 ) 0 
( -0.000119102 0.00388867 0.00255609 ) 0 
( -0.011986 0.00582411 0.00561371 ) 0 
( -0.00792501 0.00753444 0.00684032 ) 0 
( -0.00477009 0.00407022 0.0077625 ) 0 
( -0.0121516 0.002905 0.00141278 ) 0 
( -0.0045017 0.00346678 0.00604653 ) 0 
( -0.00379646 0.00512975 0.00724834 ) 0 
( -0.0100561 0.0020258 0.00365055 ) 0 
( -0.0106439 0.00531707 0.00578271 ) 0 
( -0.00952289 0.000696418 0.00526145 ) 0 
( -0.00610122 0.00144362 0.00131696 ) 0 
( -0.00327114 0.000808688 0.00375794 ) 0 
( -0.00765235 0.000211721 0.00816867 ) 0 
( -0.0113527 0.0070229 0.00482533 ) 0 
( -0.00337914 0.0108155 0.00349136 ) 0 
( -0.00453935 0.000511519 0.00488493 ) 0 
( -0.00504374 0.00262808 0.00309763 ) 0 
( -0.00884006 0.00626674 0.00301266 ) 0 
( -0.00444974 0.00787152 0.00699808 ) 0 
( -0.00583239 0.000667649 0.00606496 ) 0 
( -0.00556645 0.00794444 0.00206461 ) 0 
( -0.00310389 0.00690559 0.00543353 ) 0 
( -0.00282707 0.00760601 0.00609103 ) 0 
( -0.00128062 0.000378787 0.00755656 ) 0 
( -0.0127947 0.000716087 0.00134947 ) 0 
( -0.00973867 0.00627046 0.00352579 ) 0 
( -0.0119061 0.00109528 0.00160715 ) 0 
( -0.00283488 0.0108158 0.00049969 ) 0 
( -0.00436481 0.00837525 0.00475224 ) 0 
( -0.00833246 0.0045405 0.0025029 ) 0 
( -0.00168378 0.00287134 0.00356112 ) 0 
( -0.00343663 0.0129002 0.00190128 ) 0 
( -0.00368341 0.00840267 0.00735776 ) 0 
( -0.00335886 0.00952074 0.00127728 ) 0 
( -0.00511937 0.0114075 0.00127668 ) 0 
( -0.0113511 0.00126523 0.000499808 ) 0 
( -0.00324042 0.00202659 0.00215878 ) 0 
( -0.00532868 0.0102681 0.00571607 ) 0 
( -0.00232732 0.00648903 0.00125737 ) 0 
( -0.00307257 0.00026083 0.00576879 ) 0 
( -0.00966007 0.00818983 0.00298202 ) 0 
( -0.013071 0.00271531 0.00697621 ) 0 
( -0.0052269 0.00699544 0.00245776 ) 0 
( -0.00793161 0.00545527 0.00132168 ) 0 
( -0.00654987 0.00781726 0.00599587 ) 0 
( -0.00459342 0.00770646 0.00213452 ) 0 
( -0.00596788 0.0119418 0.00322255 ) 0 
( -0.0030613 0.0115645 0.00513701 ) 0 
( -0.00874405 0.00869477 0.00135142 ) 0 
( -0.010456 0.000853506 0.00493824 ) 0 
( -0.00317981 0.00579844 0.00683387 ) 0 
( -0.00292785 0.00943416 0.00516601 ) 0 
( -0.0109047 0.00115314 0.00349896 ) 0 
( -0.00368494 0.00580345 0.000816234 ) 0 
( -0.00967244 0.00567178 0.00049971 ) 0 
( -0.00215799 0.0122853 0.00248837 ) 0 
( -0.00498389 0.0100764 0.0026135 ) 0 
( -0.00700757 0.00507828 0.00518647 ) 0 
( -0.00602751 0.000904218 0.00782977 ) 0 
( -0.00703633 0.00702733 0.0045171 ) 0 
( -0.00555889 0.0016371 0.000499632 ) 0 
( -0.00383185 0.0107416 0.000499718 ) 0 
( -0.00331502 0.00117716 0.00502434 ) 0 
( -0.00189566 0.00821374 0.00371051 ) 0 
( -6.53628e-05 0.00571486 0.00292253 ) 0 
( -0.0115427 0.00196333 0.00120364 ) 0 
( -0.00483453 0.0016538 0.00554913 ) 0 
( -0.0044284 0.00346545 0.00704355 ) 0 
( -0.00250434 0.00430668 0.00555309 ) 0 
( -0.00979219 0.00247604 0.00451748 ) 0 
( -0.0096945 0.00375718 0.00130929 ) 0 
( -0.00150592 0.0106276 0.00150993 ) 0 
( -0.00137796 0.00900604 0.00623197 ) 0 
( -0.00228369 0.0107221 0.00486338 ) 0 
( -0.00214159 0.0046585 0.00658231 ) 0 
( -0.00383447 0.00414647 0.00201815 ) 0 
( -0.00409275 0.000989677 0.00564096 ) 0 
( -0.000309092 0.00679399 0.00330253 ) 0 
( -0.00747299 0.00457906 0.00117389 ) 0 
( -0.00781496 0.0108236 0.00208868 ) 0 
( -0.00844495 0.00247529 0.00689824 ) 0 
( -0.00719594 0.00208436 0.0063803 ) 0 
( -0.00624457 0.00219376 0.00422315 ) 0 
( -0.00427093 0.00864769 0.00200256 ) 0 
( -0.00812704 0.0036788 0.00203757 ) 0 
( -0.0108983 0.00771076 0.00624255 ) 0 
( -0.00912896 0.00133884 0.00049981 ) 0 
( -0.00561941 0.00376212 0.00049958 ) 0 
( -0.00773297 0.00598832 0.00049961 ) 0 
( -0.00403116 0.0123105 0.00135478 ) 0 
( -0.00309434 0.0046584 0.00627955 ) 0 
( -0.00503981 0.000157063 0.0004998 ) 0 
( -0.0120681 0.00230564 0.0022387 ) 0 
( -0.00488994 0.0111657 0.00398904 ) 0 
( -0.00329495 0.000402342 0.00718645 ) 0 
( -0.0112252 0.00195048 0.00726332 ) 0 
( -0.00205229 0.003864 0.00794783 ) 0 
( -0.00428089 0.00335035 0.0035501 ) 0 
( -0.00272955 0.0114303 0.00273487 ) 0 
( -0.00138868 0.0132775 0.0018242 ) 0 
( -0.0121472 0.00403724 0.00178887 ) 0 
( -3.41952e-06 0.00297172 0.000499817 ) 0 
( -0.00864826 0.00490757 0.00427165 ) 0 
( -0.000843023 0.00832124 0.00672926 ) 0 
( -0.00292013 0.00677179 0.00685544 ) 0 
( -0.00683273 0.00903591 0.00309198 ) 0 
( -0.00597471 0.00771096 0.0011822 ) 0 
( -5.1601e-05 0.0105095 0.00574992 ) 0 
( -0.00971781 0.00840569 0.00133296 ) 0 
( -0.00979367 0.00163825 0.00506312 ) 0 
( -0.0114694 0.00463768 0.00136496 ) 0 
( -0.00230384 0.00197677 0.00729883 ) 0 
( -0.00167051 0.00640731 0.000499622 ) 0 
( -0.00753797 0.00697232 0.000499681 ) 0 
( -0.0030853 0.00957254 0.00708732 ) 0 
( -0.00210044 0.0122536 0.00149071 ) 0 
( -0.00203067 0.0131937 0.00473415 ) 0 
( -0.00558445 0.0121257 0.00543686 ) 0 
( -0.00735249 0.0049747 0.00423791 ) 0 
( -0.00281001 0.00736441 0.00128354 ) 0 
( -0.00430497 0.00585634 0.00574996 ) 0 
( -0.012335 0.00227213 0.00424252 ) 0 
( -0.00442753 0.00299266 0.00451924 ) 0 
( -0.00104274 0.00422143 0.00274622 ) 0 
( -0.00399227 0.00977154 0.00200916 ) 0 
( -0.00622872 0.00155882 0.00855893 ) 0 
( -0.00367938 0.0128332 0.00579766 ) 0 
( -0.00670061 0.00806948 0.00342834 ) 0 
( -0.00132615 0.00277786 0.00132461 ) 0 
( -0.00445424 0.00380198 0.00510579 ) 0 
( -0.00892933 0.00352878 0.00558992 ) 0 
( -0.00481181 0.00547304 0.00769597 ) 0 
( -0.000154142 0.0120002 0.00128647 ) 0 
( -0.00173521 0.00301194 0.00837712 ) 0 
( -0.00371552 0.00295236 0.00211054 ) 0 
( -0.000175915 0.00718047 0.000499745 ) 0 
( -0.000105725 0.00995709 0.00222326 ) 0 
( -0.00854867 0.00605703 0.00647947 ) 0 
( -0.00127746 0.00929161 0.00527887 ) 0 
( -0.00584369 0.00248635 0.00521327 ) 0 
( -0.00220747 0.00344623 0.00596662 ) 0 
( -0.0102162 0.00744563 0.00339287 ) 0 
( -9.62871e-05 0.0108337 0.00281626 ) 0 
( -0.000999378 0.00845657 0.0030992 ) 0 
( -0.00509333 0.00508532 0.00183607 ) 0 
( -0.00166556 0.00528378 0.00428863 ) 0 
( -0.00540491 0.0103063 0.00411505 ) 0 
( -0.00140838 0.00593859 0.00502197 ) 0 
( -0.00372425 0.00391136 0.00649124 ) 0 
( -0.00988123 0.00897712 0.00722809 ) 0 
( -0.00137217 0.00752806 0.00301525 ) 0 
( -0.00611539 0.0110865 0.000499722 ) 0 
( -0.00252976 0.00445591 0.00135048 ) 0 
( -0.00712403 0.0061197 0.00403899 ) 0 
( -0.0119995 0.00350783 0.000597268 ) 0 
( -0.0116695 0.00159949 0.00303388 ) 0 
( -0.00636728 0.0102653 0.00439798 ) 0 
( -0.00924767 0.000318257 0.00233744 ) 0 
( -0.00449019 0.00217168 0.0079715 ) 0 
( -0.00278479 0.0130563 0.0040905 ) 0 
( -0.00979978 0.00787669 0.00466604 ) 0 
( -0.000319779 0.00773551 0.00296342 ) 0 
( -0.00733201 0.000123749 0.00170849 ) 0 
( -0.009929 0.00339969 0.00400546 ) 0 
( -8.82186e-05 0.000518781 0.0019012 ) 0 
( -0.00551602 0.00931565 0.00547628 ) 0 
( -0.00679764 0.0050769 0.00328523 ) 0 
( -0.00362518 0.00451157 0.0010673 ) 0 
( -0.0113037 0.00184369 0.0062725 ) 0 
( -0.00462424 0.00199281 0.000499804 ) 0 
( -0.000118765 0.000546941 0.000499802 ) 0 
( -0.00386097 0.00162996 0.00741472 ) 0 
( -0.000610187 0.00594597 0.0037386 ) 0 
( -0.00721612 0.00775818 0.00518495 ) 0 
( -0.00390478 0.00237473 0.00131626 ) 0 
( -0.00683871 0.00892609 0.00673258 ) 0 
( -0.00704926 0.00827168 0.00434336 ) 0 
( -0.00836286 0.00271897 0.00143747 ) 0 
( -0.00396663 0.00285621 0.00546303 ) 0 
( -0.00077209 0.0102114 0.00512392 ) 0 
( -0.0015896 0.0113612 0.00303692 ) 0 
( -0.0133116 0.0010123 0.00588535 ) 0 
( -0.00841578 0.00278037 0.00412456 ) 0 
( -0.00923006 0.00964519 0.00521767 ) 0 
( -0.000256257 0.00729261 0.00452069 ) 0 
( -0.00986295 0.00698952 0.0042095 ) 0 
( -0.00927014 0.00781029 0.00382082 ) 0 
( -0.011817 0.00621138 0.00146821 ) 0 
( -0.00290565 0.0098062 0.00212188 ) 0 
( -0.0108916 0.00771987 0.000499765 ) 0 
( -0.00340068 0.00639399 0.00282773 ) 0 
( -1.44741e-05 0.00125795 0.00119613 ) 0 
( -0.00473623 0.00448367 0.00581277 ) 0 
( -0.000686547 0.00163887 0.00719431 ) 0 
( -0.0115564 0.00485381 0.0062189 ) 0 
( -0.000568575 0.00504585 0.00234582 ) 0 
( -0.00405059 0.0111377 0.00647987 ) 0 
( -0.0089313 0.00687089 0.00386588 ) 0 
( -0.0126509 0.00361325 0.00551084 ) 0 
( -0.0125326 0.00459984 0.00563456 ) 0 
( -0.0110646 0.00213362 0.0036327 ) 0 
( -0.0073973 0.00172017 0.00392337 ) 0 
( -0.000715323 0.00971416 0.00598971 ) 0 
( -0.00286118 0.0130399 0.000499594 ) 0 
( -0.00673682 0.00604153 0.00713028 ) 0 
( -0.00818996 0.000633852 0.00176711 ) 0 
( -0.0128397 0.00365697 0.0065617 ) 0 
( -0.00805271 0.00763634 0.00227833 ) 0 
( -0.00933015 0.00418408 0.00416619 ) 0 
( -0.00178571 0.0114752 0.00203379 ) 0 
( -0.00999429 0.00885125 0.0047737 ) 0 
( -0.00324157 0.00117725 0.00613071 ) 0 
( -0.0123197 0.00197182 0.00622736 ) 0 
( -0.011464 0.000335245 0.00336376 ) 0 
( -0.000936025 0.00744138 0.00109445 ) 0 
( -0.00692265 0.0104261 0.00625445 ) 0 
( -0.00329989 0.00774554 0.000499744 ) 0 
( -0.0108726 0.00598286 0.00655137 ) 0 
( -0.0067503 0.00441099 0.000499731 ) 0 
( -0.00146443 0.00189851 0.00390162 ) 0 
( -0.00837278 0.00846487 0.00647962 ) 0 
( -0.0100201 0.00372725 0.00599276 ) 0 
( -0.00595294 0.00686537 0.00724115 ) 0 
( -0.0117987 0.00171131 0.00541399 ) 0 
( -0.00128603 0.00658127 0.00332527 ) 0 
( -0.00130308 0.00182528 0.00569484 ) 0 
( -0.00210039 0.00235897 0.00179878 ) 0 
( -0.000453422 0.00965724 0.000499793 ) 0 
( -0.00488902 0.000941929 0.00624907 ) 0 
( -0.00114058 0.00686259 0.00433728 ) 0 
( -0.000854079 0.00687078 0.00245354 ) 0 
( -0.00146824 0.012393 0.00449241 ) 0 
( -0.0049846 0.0113666 0.00675192 ) 0 
( -0.000794127 0.0012854 0.000499671 ) 0 
( -0.0109109 0.00363993 0.00370446 ) 0 
( -0.00194456 0.0116347 0.00727032 ) 0 
( -0.00317251 0.00369326 0.00142114 ) 0 
( -0.00119868 0.00975667 0.00686814 ) 0 
( -0.00949539 0.00431112 0.00049966 ) 0 
( -0.0101892 0.00703218 0.00517439 ) 0 
( -0.000588035 0.00431569 0.00766283 ) 0 
( -0.0119168 0.00328078 0.00240087 ) 0 
( -0.00873244 0.00601252 0.000499644 ) 0 
( -0.00873247 0.00119946 0.0025216 ) 0 
( -0.0017302 0.0115107 0.00409642 ) 0 
( -0.00651734 0.00703695 0.00537168 ) 0 
( -0.0110215 0.000672965 0.00141048 ) 0 
( -0.0108542 0.00213353 0.0004997 ) 0 
( -0.00264419 0.00530824 0.00752757 ) 0 
( -0.00411152 0.0113155 0.00141281 ) 0 
( -0.009403 0.00630081 0.0047694 ) 0 
( -0.00191593 0.00624711 0.00419246 ) 0 
( -0.00485114 0.00772731 0.00609386 ) 0 
( -0.00417291 0.0028853 0.000499573 ) 0 
( -0.00959524 0.00667184 0.000499793 ) 0 
( -0.00544465 0.00223076 0.00129601 ) 0 
( -0.00633522 0.005333 0.000499598 ) 0 
( -0.00276178 0.00524802 0.00490683 ) 0 
( -0.0063361 0.00411161 0.00731867 ) 0 
( -0.00239169 0.0061901 0.00507015 ) 0 
( -0.0106251 0.00181227 0.00451713 ) 0 
( -0.00183709 0.00417616 0.00201519 ) 0 
( -0.00351551 0.00665763 0.00133428 ) 0 
( -0.00701387 0.00294224 0.00274489 ) 0 
( -0.00381989 0.00414403 0.00745892 ) 0 
( -0.00810227 0.0106099 0.00498299 ) 0 
( -0.000666408 0.0111433 0.00133982 ) 0 
( -0.00752721 0.00813027 0.000499547 ) 0 
( -0.00312485 0.00225296 0.00315397 ) 0 
( -0.000393512 0.00570928 0.00635638 ) 0 
( -0.00106037 0.00354682 0.00199448 ) 0 
( -0.00355252 0.0104871 0.00144502 ) 0 
( -0.00429916 0.00679488 0.00461665 ) 0 
( -0.00561879 0.00459577 0.0078188 ) 0 
( -0.0108904 0.00541985 0.00282402 ) 0 
( -0.0125017 0.00467861 0.00663268 ) 0 
( -0.0112687 0.00167219 0.00212024 ) 0 
( -0.0106012 0.00262479 0.0052535 ) 0 
( -0.00466651 0.00450662 0.00686888 ) 0 
( -0.00465606 0.0086884 0.00355204 ) 0 
( -0.00105478 0.012143 0.00249508 ) 0 
( -0.0130959 0.00259378 0.00182003 ) 0 
( -0.00920755 0.00184984 0.00311699 ) 0 
( -0.00453007 0.00218121 0.00385893 ) 0 
( -0.0045764 0.00935454 0.00131287 ) 0 
( -0.00996981 0.00213066 0.00699286 ) 0 
( -0.0103829 2.72854e-05 0.00265261 ) 0 
( -0.00743251 0.00578876 0.00780207 ) 0 
( -0.000344426 0.0124743 0.00711432 ) 0 
( -0.00158761 0.00197015 0.00799659 ) 0 
( -0.00764206 0.00377045 0.00296368 ) 0 
( -0.00228584 0.00177826 0.000499619 ) 0 
( -0.00803924 0.0048549 0.00506406 ) 0 
( -0.00318097 0.00274582 0.000499746 ) 0 
( -0.00859398 0.00176793 0.00123278 ) 0 
( -0.0106918 0.00166095 0.00550327 ) 0 
( -0.00563843 0.00107825 0.00304684 ) 0 
( -0.00828328 0.00402338 0.00617086 ) 0 
( -0.0074384 0.00893728 0.00108283 ) 0 
( -0.00273234 0.00383365 0.0023079 ) 0 
( -0.00217767 0.00272555 0.000801186 ) 0 
( -0.00481984 0.00753737 0.00505316 ) 0 
( -0.00928231 0.00661664 0.0014897 ) 0 
( -0.00667705 0.00144857 0.000499621 ) 0 
( -0.00164386 0.0103842 0.00558215 ) 0 
( -0.00972257 0.00497337 0.00121346 ) 0 
( -0.00748701 0.000421998 0.00328269 ) 0 
( -0.0128989 0.00341252 0.00767208 ) 0 
( -0.000373128 0.00295004 0.00622672 ) 0 
( -0.00555404 0.00441862 0.00125061 ) 0 
( -0.00640177 0.00359845 0.00322452 ) 0 
( -0.00361105 0.00728855 0.00228234 ) 0 
( -0.00091248 0.00445976 0.00161229 ) 0 
( -0.0104463 0.00286605 0.00327424 ) 0 
( -0.00571396 0.00786465 0.00681718 ) 0 
( -0.00234636 0.00276278 0.00668285 ) 0 
( -0.0113843 0.000712166 0.00237609 ) 0 
( -0.00928452 0.00551352 0.00567232 ) 0 
( -0.0068325 0.0114697 0.00750023 ) 0 
( -0.00401072 0.00866279 0.0064498 ) 0 
( -0.000423655 0.00261341 0.00746824 ) 0 
( -0.000736249 0.00635432 0.00567368 ) 0 
( -0.000443481 0.0036699 0.00121739 ) 0 
( -0.00512105 0.00678823 0.00588153 ) 0 
( -0.000291293 0.00639693 0.00707488 ) 0 
( -0.00462613 0.00692183 0.00673996 ) 0 
( -0.00591009 0.00868447 0.00148502 ) 0 
( -0.00621359 0.00991388 0.00317917 ) 0 
( -0.0005499 0.00871345 0.00484133 ) 0 
( -0.00959272 0.00180144 0.00126514 ) 0 
( -0.000551678 0.0060036 0.00205603 ) 0 
( -0.00127208 0.00908317 0.000499728 ) 0 
( -6.93311e-05 0.00197395 0.000499743 ) 0 
( -0.00110201 0.00265494 0.00244463 ) 0 
( -0.00539354 0.0046829 0.00393834 ) 0 
( -0.000922097 0.0110399 0.00580809 ) 0 
( -0.00242888 0.00296399 0.00765883 ) 0 
( -0.00701588 0.0113562 0.00450882 ) 0 
( -0.00581673 0.00150469 0.00543613 ) 0 
( -0.000334119 0.0111098 0.00500184 ) 0 
( -0.00681163 0.0114816 0.00144496 ) 0 
( -0.000666158 0.012347 0.00617617 ) 0 
( -0.00877341 0.00125657 0.00561348 ) 0 
( -0.0102977 0.00845194 0.00378865 ) 0 
( -0.0043809 0.0066153 0.00287921 ) 0 
( -0.00864393 0.00566807 0.00492058 ) 0 
( -0.0123856 0.000384798 0.000499616 ) 0 
( -0.00699386 0.00416789 0.00470702 ) 0 
( -0.0088316 0.00503517 0.000684914 ) 0 
( -0.00588201 0.00898841 0.00701511 ) 0 
( -0.00422948 0.0010305 0.000499521 ) 0 
( -0.00931259 0.00829159 0.00677388 ) 0 
( -0.000705951 0.0106692 0.00418414 ) 0 
( -0.000298132 0.00288124 0.00299513 ) 0 
( -0.00454988 0.00382258 0.000499604 ) 0 
( -0.00596437 0.0111335 0.00397692 ) 0 
( -0.00796088 0.0101087 0.00337522 ) 0 
( -0.00745023 0.00263114 0.00717779 ) 0 
( -0.00996325 0.00888571 0.00217512 ) 0 
( -5.85334e-05 0.00356202 0.00813366 ) 0 
( -0.00117078 0.00170724 0.00213348 ) 0 
( -0.00477872 0.0124655 0.000499823 ) 0 
( -0.0100807 0.00609285 0.00549905 ) 0 
( -0.00774558 0.0108448 0.00109141 ) 0 
( -0.00772026 0.00167059 0.00712402 ) 0 
( -0.00318093 0.00463903 0.00804948 ) 0 
( -0.00208195 0.00368487 0.00696474 ) 0 
( -0.0125076 0.00256859 0.00518173 ) 0 
( -0.00986546 0.0058259 0.00171612 ) 0 
( -0.00220272 0.00721339 0.00739405 ) 0 
( -0.00712752 0.00436696 0.00676225 ) 0 
( -0.0069672 0.000496694 0.00505507 ) 0 
( -0.00197334 0.010101 0.0028556 ) 0 
( -0.00838191 0.00187844 0.00369123 ) 0 
( -0.00430901 0.00929588 0.00436594 ) 0 
( -0.00321507 0.0121715 0.00427047 ) 0 
( -0.00844207 0.00461531 0.00150455 ) 0 
( -0.00962086 0.00158838 0.0022418 ) 0 
( -0.00717513 0.000995418 0.00217266 ) 0 
( -0.00461941 0.0120889 0.00575479 ) 0 
( -0.0114488 0.00686676 0.000499692 ) 0 
( -0.00685513 0.00698695 0.00682813 ) 0 
( -0.000174508 0.00785033 0.00613402 ) 0 
( -0.00182061 0.000955541 0.00202136 ) 0 
( -0.0101285 0.00144593 0.000499606 ) 0 
( -0.00801232 0.00944314 0.00172637 ) 0 
( -0.00819762 0.00309812 0.00506177 ) 0 
( -0.00822118 0.00709069 0.00312035 ) 0 
( -0.00900114 0.00868051 0.00500436 ) 0 
( -0.00426843 0.0126492 0.00257757 ) 0 
( -0.00861868 0.000557385 0.000865434 ) 0 
( -0.00712257 0.00293323 0.000499659 ) 0 
( -0.00568573 0.00758379 0.00555067 ) 0 
( -0.00739651 0.00726257 0.00603439 ) 0 
( -0.0040134 0.0118375 0.00500003 ) 0 
( -0.00536262 0.00507497 0.000499798 ) 0 
( -0.0054897 0.00518335 0.00702042 ) 0 
( -0.00430805 0.00925333 0.0028039 ) 0 
( -0.00952921 0.00293975 0.00738125 ) 0 
( -0.00037903 0.00718403 0.00796176 ) 0 
( -0.000897209 0.00435947 0.000499806 ) 0 
( -0.000932193 0.000985448 0.00148417 ) 0 
( -0.00948657 0.00507816 0.00479503 ) 0 
( -0.00164357 0.00607215 0.00598458 ) 0 
( -0.00697145 0.00534125 0.00158244 ) 0 
( -0.00910775 0.00754924 0.00117422 ) 0 
( -1.76766e-05 0.00686289 0.00614789 ) 0 
( -0.00766988 0.00918789 0.00624268 ) 0 
( -0.00577736 0.00492055 0.00562108 ) 0 
( -0.00805202 0.000964317 0.0039274 ) 0 
( -0.00289495 0.0130319 0.00521033 ) 0 
( -0.00056971 0.00256113 0.0048493 ) 0 
( -0.0046332 0.0057838 0.000499654 ) 0 
( -0.0100271 0.000794139 0.0012814 ) 0 
( -0.00363375 0.00185326 0.0004998 ) 0 
( -0.00590874 0.00127518 0.00443123 ) 0 
( -0.00632537 0.000505533 0.00691938 ) 0 
( -0.000385163 0.00146691 0.00552696 ) 0 
( -0.00490499 0.00131003 0.0011815 ) 0 
( -0.00819192 0.00926953 0.00709129 ) 0 
( -0.00861614 0.00346002 0.00692665 ) 0 
( -0.00833703 0.00550491 0.00223789 ) 0 
( -0.0116695 0.00153058 0.00415941 ) 0 
( -0.0066481 0.00495519 0.00611144 ) 0 
( -0.00868585 0.00648572 0.00737294 ) 0 
( -0.00540509 0.0122068 0.00242399 ) 0 
( -0.00459212 0.00193643 0.00189525 ) 0 
( -0.00494815 0.00980421 0.0005009 ) 0 
( -0.0107748 0.00436379 0.00550339 ) 0 
( -0.00152571 0.00274061 0.00461756 ) 0 
( -0.00311332 0.000986311 0.00187928 ) 0 
( -0.0073027 0.00625806 0.00136066 ) 0 
( -0.00681016 0.00890777 0.00186007 ) 0 
( -0.00894295 0.00991084 0.00340495 ) 0 
( -0.00959916 0.00110099 0.00722306 ) 0 
( -0.0124622 0.00132333 0.00477452 ) 0 
( -0.00439476 0.00481243 0.000499778 ) 0 
( -0.00637123 4.06081e-05 0.00431326 ) 0 
( -0.00497635 0.0115243 0.00491851 ) 0 
( -1.13285e-05 0.00927251 0.00654559 ) 0 
( -0.0039052 0.003944 0.00426171 ) 0 
( -0.00765328 0.00574036 0.00480615 ) 0 
( -0.011186 0.000965791 0.00742991 ) 0 
( -0.000775182 0.00345189 0.00444406 ) 0 
( -0.00123839 0.00578426 0.00693391 ) 0 
( -0.0124253 0.00138752 0.00241019 ) 0 
( -0.0091385 0.00322644 0.00465854 ) 0 
( -0.00527907 0.00197923 0.00638811 ) 0 
( -0.00597496 0.0109299 0.00147715 ) 0 
( -0.00862676 0.00208716 0.00481365 ) 0 
( -0.0106209 0.000575726 0.000499654 ) 0 
( -0.00478902 0.0111049 0.00580663 ) 0 
( -0.00734257 0.00836846 0.00253078 ) 0 
( -0.0102987 0.00437153 0.0040042 ) 0 
( -0.00333116 0.0105967 0.00479698 ) 0 
( -0.00242837 0.00253717 0.00413881 ) 0 
( -0.00808388 0.00131882 0.000499564 ) 0 
( -0.00288438 0.00742572 0.00372248 ) 0 
( -0.00287079 0.0107419 0.00567248 ) 0 
( -0.00106162 0.00229722 0.00654231 ) 0 
( -0.00672211 0.00690927 0.00357518 ) 0 
( -0.0105617 0.00816543 0.00252845 ) 0 
( -0.00796675 0.00158338 0.00200567 ) 0 
( -0.00979495 0.00359452 0.00291289 ) 0 
( -0.00623145 0.003392 0.00635477 ) 0 
( -0.0132852 0.000927825 0.00385684 ) 0 
( -0.00191007 0.00721543 0.00380427 ) 0 
( -0.00340366 0.0105006 0.00689739 ) 0 
( -0.00467006 0.000735093 0.00211634 ) 0 
( -0.00741487 0.00656485 0.00531871 ) 0 
( -0.00925457 0.0016842 0.00414682 ) 0 
( -0.0133481 0.000206538 0.00316693 ) 0 
( -0.00358227 0.000220659 0.00490824 ) 0 
( -0.00249695 0.00492885 0.00374639 ) 0 
( -0.00652803 0.0044503 0.0014738 ) 0 
( -0.00639504 0.00934709 0.00398265 ) 0 
( -6.41484e-05 0.00103366 0.00303989 ) 0 
( -0.0123305 0.00511717 0.000897627 ) 0 
( -0.00134895 0.00856412 0.00137904 ) 0 
( -0.00161137 0.00126036 0.00722164 ) 0 
( -0.00988938 0.00556035 0.00279551 ) 0 
( -0.00262761 0.000202516 0.000499661 ) 0 
( -0.0022409 0.00488892 0.00834078 ) 0 
( -0.0128628 0.00357411 0.00119762 ) 0 
( -0.0104742 0.00026933 0.00368705 ) 0 
( -0.00744004 0.00249257 0.0045578 ) 0 
( -0.0129293 0.00332443 0.00429392 ) 0 
( -0.0077666 0.0108574 0.00407418 ) 0 
( -0.00238674 0.000875119 0.00120125 ) 0 
( -0.000492825 0.0062013 0.00471611 ) 0 
( -0.00640384 0.00497165 0.00231804 ) 0 
( -0.00275891 0.00558944 0.00132108 ) 0 
( -0.00164436 0.00379485 0.00408773 ) 0 
( -0.00818605 0.00176288 0.00624438 ) 0 
( -0.00853756 0.0069929 0.000513669 ) 0 
( -0.00295161 0.00174251 0.00124462 ) 0 
( -0.00404523 0.00118997 0.00434145 ) 0 
( -0.00604359 0.00872388 0.00247527 ) 0 
( -0.0024971 0.00060837 0.00494089 ) 0 
( -0.00195748 0.00226449 0.00278466 ) 0 
( -0.00140702 0.0080924 0.000499541 ) 0 
( -0.00315482 0.0043355 0.00479424 ) 0 
( -0.000475796 0.00520223 0.00721474 ) 0 
( -0.00501566 0.0123722 0.00151751 ) 0 
( -0.00386556 0.00822875 0.00282437 ) 0 
( -0.00495489 0.00154524 0.00456242 ) 0 
( -0.00762861 0.000467571 0.00075976 ) 0 
( -0.00698955 0.0103933 0.00362551 ) 0 
( -0.00320821 0.00491982 0.00191996 ) 0 
( -0.0114136 0.0051351 0.000499642 ) 0 
( -0.000431027 0.013343 0.00211585 ) 0 
( -0.000665862 0.0128678 0.00126794 ) 0 
( -0.0104288 0.006788 0.00615826 ) 0 
( -0.00275382 0.00471108 0.00278703 ) 0 
( -0.00564394 0.00684339 0.00155298 ) 0 
( -0.011652 0.0046357 0.00260026 ) 0 
( -0.00943715 0.00278739 0.00132444 ) 0 
( -0.00617639 0.00670387 0.00257924 ) 0 
( -0.00394971 0.0097486 0.000499798 ) 0 
( -0.00356027 0.00368014 0.000499744 ) 0 
( -0.0105379 0.00508584 0.00188148 ) 0 
( -0.00737115 0.00913348 0.00394398 ) 0 
( -0.0102514 0.00855231 0.000500318 ) 0 
( -0.00435551 0.00676734 0.00186541 ) 0 
( -0.0028578 0.00427969 0.00717418 ) 0 
( -0.0076141 0.00473892 0.00597156 ) 0 
( -0.00528232 0.00794242 0.000499623 ) 0 
( -0.000147986 0.0109779 0.000499738 ) 0 
( -0.00387495 0.0117817 0.00344292 ) 0 
( -0.0126151 0.00436847 0.00263109 ) 0 
( -0.0029649 0.00777142 0.00706718 ) 0 
( -0.00190341 0.00780669 0.00173595 ) 0 
( -0.0062843 0.00956105 0.00619474 ) 0 
( -0.00493115 0.00527876 0.00519343 ) 0 
( -0.00340409 0.00250736 0.00755963 ) 0 
( -0.00708936 0.0113124 0.000499589 ) 0 
( -0.00115274 0.00287324 0.00559905 ) 0 
( -0.002105 0.0123856 0.000499719 ) 0 
( -0.0127526 0.000240343 0.00618741 ) 0 
( -0.00570928 0.0034859 0.00157575 ) 0 
( -0.00478459 0.00106063 0.00368086 ) 0 
( -0.00258928 0.00646925 0.0034639 ) 0 
( -0.00685558 0.0103403 0.000499767 ) 0 
( -0.0101898 0.00232375 0.00187388 ) 0 
( -0.00604308 0.00693006 0.00624742 ) 0 
( -0.00546647 0.000245863 0.00247183 ) 0 
( -0.0122783 0.00524092 0.00311717 ) 0 
( -0.0068052 0.00229005 0.00541575 ) 0 
( -0.0011007 9.4783e-05 0.00647348 ) 0 
( -0.00763662 0.0035072 0.00673366 ) 0 
( -0.00390421 0.00640996 0.0037825 ) 0 
( -0.00474153 0.0104181 0.0065456 ) 0 
( -0.000200207 0.00747502 0.00199819 ) 0 
( -0.00826282 0.00861288 0.00222415 ) 0 
( -0.00606713 0.0084148 0.00413499 ) 0 
( -0.00296659 0.00661887 0.000499628 ) 0 
( -0.00682758 0.0106722 0.00203194 ) 0 
( -0.00795295 0.00393641 0.00761849 ) 0 
( -0.00137285 0.00221462 0.000499709 ) 0 
( -0.00304947 0.00509941 0.00049957 ) 0 
( -0.006892 0.00397033 0.00587524 ) 0 
( -0.00886033 0.00509123 0.00647293 ) 0 
( -0.005196 0.00506886 0.002838 ) 0 
( -0.00379473 0.000251646 0.00211604 ) 0 
( -0.0020621 0.012314 0.00654645 ) 0 
( -0.00221308 0.00334437 0.0016072 ) 0 
( -0.0042996 0.0077594 0.000499463 ) 0 
( -0.00664931 0.0115763 0.00642843 ) 0 
( -0.00710706 0.00415928 0.00371365 ) 0 
( -0.00928053 0.00571983 0.00713017 ) 0 
( -0.00480612 0.00596888 0.00146676 ) 0 
( -0.00193898 0.0064368 0.00257551 ) 0 
( -0.00376287 0.00433939 0.00558842 ) 0 
( -0.000972563 0.00321805 0.000499539 ) 0 
( -0.00497158 0.00989014 0.00736276 ) 0 
( -0.00410122 0.000601132 0.00304518 ) 0 
( -0.00615093 0.00241329 0.00616183 ) 0 
( -0.00454472 0.00965735 0.00582444 ) 0 
( -0.00534197 0.000462844 0.0042906 ) 0 
( -0.0024908 0.0082882 0.00105946 ) 0 
( -0.00594885 0.000518289 0.00508336 ) 0 
( -0.00378903 0.0127923 0.00480446 ) 0 
( -0.00074578 0.00196039 0.00123586 ) 0 
( -0.0106986 0.00282045 0.00427361 ) 0 
( -0.00303815 0.00836865 0.00547981 ) 0 
( -0.0015642 0.000112084 0.00249381 ) 0 