FoamFile
{version 2.0; format ascii;class vectorField; location 0;object  v;}
2498
(
( 0.000282323 0.000336573 -0.000649491 )  
( -0.000505353 -0.00197538 0.00386527 )  
( -0.0011177 0.000285573 0.000264952 )  
( -3.74862e-05 0.000399757 -0.000173457 )  
( -0.000807275 -0.00142982 0.00499104 )  
( -0.000191201 -0.000131457 0.00435101 )  
( -0.000667881 -0.000295067 0.00593198 )  
( -6.33926e-05 -0.000524026 -6.33286e-05 )  
( 0.000186108 0.000328226 1.50328e-05 )  
( -0.000164873 -0.000108802 0.00554652 )  
( 0.000794209 -0.00125565 0.00234572 )  
( -0.00116377 8.41786e-05 0.00616429 )  
( -1.73888e-05 -9.00816e-06 -0.000209147 )  
( 0.000600258 0.00144795 0.00741324 )  
( -0.000161849 -0.000370946 -1.4392e-05 )  
( 0.00016826 1.55476e-05 -0.000740169 )  
( -1.10481e-06 -0.000355516 0.00684009 )  
( -0.000284826 -0.000169824 0.0056459 )  
( 0.000143483 0.000435993 0.00657182 )  
( -2.49233e-05 0.000343236 0.00665001 )  
( -0.000522808 0.00193599 0.0055915 )  
( -3.30896e-05 0.00071012 0.00552655 )  
( 0.000294538 4.33892e-05 0.00606278 )  
( -1.50519e-05 0.000564468 0.00703163 )  
( -0.000252515 -0.000473149 0.00701804 )  
( 0.000314885 0.000486184 0.00667958 )  
( -0.00122521 0.00030603 0.00511388 )  
( -0.000485213 0.000794835 0.0055748 )  
( 9.22858e-05 0.000443595 0.00659362 )  
( 0.000258756 0.000325592 0.00666022 )  
( -0.0005109 0.000150731 0.00660772 )  
( -0.000553862 -4.97046e-05 0.00647037 )  
( -8.25452e-05 0.000559441 -0.00074314 )  
( 4.85902e-05 -0.000507952 8.24544e-05 )  
( -0.00212203 -0.000787438 0.00712415 )  
( -0.000962047 -0.000774694 0.00616343 )  
( 0.00113793 -0.00197128 0.00271356 )  
( 0.00130011 -0.00121476 0.00420171 )  
( -6.66994e-05 -0.000654311 -0.00236528 )  
( -0.000773004 -0.000400216 -0.00119191 )  
( -0.00155544 -0.000489117 0.00619745 )  
( 0.000378922 -0.00184873 0.00460813 )  
( -0.00110292 -0.00257686 2.34907e-05 )  
( 0.00221463 0.00111733 0.00361815 )  
( 0.000182634 0.000181709 -7.48635e-06 )  
( -0.000469578 -0.000294591 4.57046e-05 )  
( -0.00176343 -0.00173346 0.00705769 )  
( -0.000480703 0.00173319 0.000663317 )  
( -0.00299593 -0.00124297 0.00601574 )  
( -0.000933556 -0.00190121 0.00320157 )  
( -0.00401818 0.00319386 2.90869e-05 )  
( 0.00100937 0.000426577 0.00739734 )  
( -0.00204995 5.80733e-06 0.00482773 )  
( -0.000273474 -6.19884e-05 0.00567251 )  
( 0.00236347 0.00108557 0.00374935 )  
( -0.000388596 -0.0018119 0.00539027 )  
( -0.000503764 0.000917411 -0.000434014 )  
( -0.000388882 -0.000118293 1.06865e-05 )  
( 0.000644902 -0.00189988 0.00678809 )  
( -2.03679e-05 6.55268e-05 -3.5697e-06 )  
( 0.000452712 -0.00258159 0.00557949 )  
( 0.00083375 -0.000757038 0.00523849 )  
( -3.13335e-05 -0.000560251 0.00427561 )  
( 0.000121349 4.45317e-05 -0.000778998 )  
( -0.000141949 -0.00104974 -0.000696255 )  
( -0.000639347 -0.000977355 0.00435639 )  
( 0.000686891 0.000613229 -0.000332558 )  
( 0.000784125 -0.00321765 0.00667027 )  
( -1.2627e-05 -1.45806e-05 2.19554e-05 )  
( -0.00135017 0.000206409 0.0111748 )  
( -0.00135922 -0.000291121 -0.000472059 )  
( -0.000659367 -0.00104026 0.00633094 )  
( 0.0024293 0.000407829 0.00425907 )  
( 0.000187178 -0.00204487 0.00518942 )  
( -0.00160029 0.000929863 -0.000792024 )  
( 0.000523122 -0.000411987 0.00478642 )  
( -0.00102803 -0.00315442 0.00593476 )  
( 0.00186377 -0.00273031 0.00358899 )  
( -0.00163973 -0.00124815 0.00204705 )  
( -0.000515517 0.000642071 -0.000206142 )  
( -0.00142309 -0.000842553 0.00471986 )  
( -0.000647104 3.42554e-05 -0.000381957 )  
( -0.00175306 0.000454766 0.00492619 )  
( -0.000465566 0.000117875 0.0052225 )  
( 0.00045219 0.0003481 -4.14684e-05 )  
( 0.000552588 0.000136274 -1.79927e-05 )  
( -0.000966284 -0.00104183 0.00703146 )  
( -0.000649415 0.000791496 0.00652655 )  
( -0.00083734 0.000712703 0.00388904 )  
( 7.22437e-05 -8.71466e-05 0.00696109 )  
( 0.00245115 0.000429808 0.00705878 )  
( -0.00059298 -0.00136935 0.0053931 )  
( -0.000186808 -0.00105068 0.00554676 )  
( -9.95308e-05 -0.000781472 0.00463171 )  
( -0.000639085 0.000124841 0.000241408 )  
( 0.000938561 7.1885e-05 -0.0010261 )  
( -0.00311837 0.00116634 0.00913785 )  
( 0.000621607 0.000941414 -0.000706698 )  
( -5.48105e-06 -0.000969657 0.00618121 )  
( -0.000937966 0.000603784 0.00634125 )  
( -0.000599195 -0.00203766 0.00224873 )  
( 0.00091226 0.00137796 0.00405714 )  
( -7.0422e-05 -3.97637e-05 1.76995e-05 )  
( -0.00211623 0.00025825 -0.00098549 )  
( -6.82529e-05 0.00184031 0.0045723 )  
( 0.00167066 0.000610606 0.00395266 )  
( -3.08284e-05 -0.00175698 0.00535725 )  
( 0.000248817 1.20644e-05 -0.000139766 )  
( 0.000519256 -0.00055054 0.00398038 )  
( -0.00107793 -0.000138374 0.00579815 )  
( -0.000146935 0.00025405 -0.000213915 )  
( -0.00120695 0.00133891 0.00585366 )  
( 0.000411194 -0.000774004 0.00485392 )  
( -0.000647055 -0.000279421 -0.000585907 )  
( 0.0013184 0.000871653 0.00476758 )  
( -0.00103281 0.000521243 -0.00211137 )  
( -5.59241e-05 -0.000697618 0.00663044 )  
( 0.000798755 -0.000213786 0.0016289 )  
( 0.00260249 -5.3145e-05 0.00354895 )  
( 0.00104612 -0.00098592 0.00398113 )  
( 0.000474885 -0.000347723 -0.000579995 )  
( 0.000789666 -0.00087089 -0.000866931 )  
( 0.000166628 -0.000581924 0.00695575 )  
( -0.000386023 0.000492278 -0.000418663 )  
( -0.000545478 -0.00138035 0.00562595 )  
( -0.00189207 -0.00177779 0.00674082 )  
( 9.56271e-05 -0.000445939 0.000396514 )  
( -0.00161098 -0.00159764 0.00485753 )  
( -0.00260609 0.000937994 0.00408235 )  
( 0.00139244 -0.00139646 0.00389699 )  
( -0.000160403 -7.12518e-05 0.00600801 )  
( -0.000350393 -0.000991874 -0.000322466 )  
( -0.00117982 0.000491155 -0.00106152 )  
( 0.00042023 0.00015317 0.00669855 )  
( 0.00213552 -0.00251866 0.00517707 )  
( -0.00048999 0.000310411 0.00560725 )  
( 0.00043504 0.00125537 0.00671274 )  
( 0.000242882 -0.000170443 0.00625209 )  
( 0.000344904 0.000823433 -0.000271218 )  
( -0.000312715 -0.00055744 0.00603769 )  
( -0.000539473 0.001323 0.00605587 )  
( -0.000339995 -0.000110101 0.00512392 )  
( 0.000363883 -0.000208542 -6.79422e-05 )  
( -0.000876509 -0.00164566 0.00321855 )  
( 0.000275044 0.000379701 0.00466088 )  
( 0.000583011 -0.000862731 0.00652909 )  
( 0.00073662 -0.00118982 0.00471782 )  
( 0.000335224 0.00198376 0.00984201 )  
( 0.00249179 -0.00159681 0.000266867 )  
( 0.00163393 0.00064593 0.0103312 )  
( -0.00040137 -0.000229249 0.00468581 )  
( -0.000866114 -0.000247959 0.0058192 )  
( -0.000831831 -0.000975968 -0.000579761 )  
( -0.000764859 -0.000579495 0.00556729 )  
( 0.00139929 -0.000198956 0.00600993 )  
( -0.000954423 -0.000281275 0.0033998 )  
( -0.00101773 -0.000920861 0.00589299 )  
( 0.000310974 -0.000441582 0.00463466 )  
( 8.62741e-05 0.000145889 4.59021e-05 )  
( 0.00211831 0.00048394 0.00790989 )  
( -7.24648e-05 -0.000136831 0.00554114 )  
( -0.00232796 -0.00388311 0.0123144 )  
( 0.00182114 -0.00165754 0.00731293 )  
( -0.000357591 -0.000672631 0.00582734 )  
( 0.00133399 -0.00105765 0.00318936 )  
( -0.00269676 0.000540128 0.00118394 )  
( 0.000137629 -0.000235552 0.0041508 )  
( -4.70285e-05 2.91259e-05 0.00656625 )  
( -0.000660044 -0.00227835 -0.000764853 )  
( 0.000972241 -0.00109999 0.00548154 )  
( 0.00067702 -0.000374663 0.0048026 )  
( -0.000227177 0.000164419 0.00599201 )  
( 0.000202291 0.000214729 2.69953e-05 )  
( -0.00174116 -0.00275415 0.0071855 )  
( 0.000191203 0.00055095 -0.0006669 )  
( -8.15062e-05 0.000751075 0.000126929 )  
( 0.00168259 0.00021596 0.00494622 )  
( -0.00112721 0.00149156 0.00142719 )  
( 0.00100136 -0.00359645 0.0056613 )  
( -0.000420514 -5.79946e-05 -0.000275344 )  
( 0.0004643 -0.000508166 0.00389065 )  
( -0.000634378 -0.00122763 0.000880445 )  
( -0.000319777 -0.000314825 0.000113311 )  
( 0.000647803 -2.63587e-05 -1.01441e-06 )  
( -3.0112e-05 -7.06708e-05 -0.000183896 )  
( 0.00185018 -0.000548914 0.0044438 )  
( -0.000309821 -0.000723692 -0.00105189 )  
( -0.000285735 -0.000511315 0.00818593 )  
( -0.00165133 -0.000327785 0.00520108 )  
( -0.000330818 -0.00116897 0.00330534 )  
( -0.000944866 0.00120076 -0.000903965 )  
( -0.000545594 0.000461747 0.000264483 )  
( -0.000562366 1.53798e-05 0.00501418 )  
( 0.000183489 0.000955283 -0.000211363 )  
( -0.000750248 -0.000371209 0.00436306 )  
( -0.000518712 0.0012307 0.00262766 )  
( -0.0004313 0.000711031 0.000206235 )  
( 0.000332587 0.00331117 0.00583714 )  
( 0.000837121 8.84822e-05 0.00547802 )  
( 0.00204941 0.0014991 0.0040646 )  
( -4.60406e-06 0.00159316 0.00201588 )  
( 0.00194283 0.00188192 -0.00812287 )  
( -9.85665e-05 0.000414129 1.46544e-05 )  
( -0.00055131 -0.000194161 -0.000483612 )  
( -0.000894289 0.000260601 0.0035857 )  
( -0.00380655 -0.0011009 0.00580989 )  
( 0.000381734 -0.000738214 0.00627425 )  
( -0.0030465 0.00187836 0.00502527 )  
( -3.66307e-05 -6.53772e-08 -6.18227e-05 )  
( -8.62352e-05 -0.000536746 -3.44545e-05 )  
( -0.00041016 -0.000177639 0.00569061 )  
( 0.000901503 -0.000522326 0.00553036 )  
( 7.07411e-05 -0.00242591 0.00458088 )  
( -0.000783039 -0.000540223 -0.00120367 )  
( 0.00174712 0.000513927 0.00690759 )  
( -0.000849429 -0.000320163 0.00571337 )  
( -0.000297503 0.000120165 0.00525923 )  
( -2.36233e-05 -0.000902491 0.00482556 )  
( -0.000134788 -0.000234996 7.77777e-05 )  
( 0.000450889 0.000273265 -0.00167428 )  
( 0.000599959 -0.000665639 0.00518051 )  
( 0.000779065 0.0011538 0.00662592 )  
( -0.000778507 -2.88422e-05 0.00519569 )  
( -0.0004379 -0.00162801 -0.000800832 )  
( 0.000526729 -0.000880414 0.00541178 )  
( 0.00115473 -0.000379378 0.000589845 )  
( -0.000519758 0.000434945 0.000381491 )  
( -0.000610548 -0.000437168 2.60233e-05 )  
( 0.000960066 -0.00118922 0.00606743 )  
( -0.000158233 -0.000377962 0.00615089 )  
( -0.000463266 -0.000783715 0.00649657 )  
( 0.00111107 0.00152025 -0.00249943 )  
( 0.000414847 0.00176001 -0.000242253 )  
( 0.000700816 0.00117103 0.00457329 )  
( 0.00101121 3.96392e-05 -2.01033e-07 )  
( 0.00039273 0.000254186 8.87604e-06 )  
( -1.09582e-05 -0.000148539 3.57415e-05 )  
( -0.000328427 -0.000184148 -0.000205381 )  
( -0.000858405 -0.000727692 0.00529419 )  
( -9.29321e-05 -0.00107836 4.43817e-05 )  
( 0.00108332 0.000501646 -0.00168998 )  
( 0.0015162 -0.00197717 0.00559484 )  
( -0.000564529 -0.000147034 0.00625816 )  
( 0.00120226 -0.000593604 0.00541336 )  
( -0.00063311 0.000590771 0.00559768 )  
( 0.000256059 -0.0025503 0.00728174 )  
( -0.00042214 0.000426048 0.00233334 )  
( -4.32197e-05 0.00028606 -0.000568652 )  
( 0.000109467 0.000170361 0.000329531 )  
( 0.000142321 -0.000405981 -3.32343e-05 )  
( -0.000929038 -0.000730063 0.00518733 )  
( -4.06736e-05 -0.00155357 0.00480405 )  
( 0.00107756 -0.000254413 0.00546464 )  
( -0.00100954 0.000780789 0.00448038 )  
( -0.00180262 0.000498868 -0.00117997 )  
( -0.0013247 -0.00168535 0.00594171 )  
( 0.000212415 -0.00257946 -0.000767011 )  
( 0.00125822 -9.06571e-05 0.00595556 )  
( 0.000580404 -0.00068551 -0.000299015 )  
( -0.000412498 0.000583906 0.00587859 )  
( 0.000719251 -0.000849265 4.94182e-05 )  
( -0.000220919 0.000365431 -8.22164e-05 )  
( -0.000365297 7.41374e-05 0.00370959 )  
( 0.000419275 0.000309998 -0.000606929 )  
( 0.00126127 -8.9483e-06 0.00503152 )  
( 0.0016837 0.00107417 0.00395454 )  
( -0.00171249 -0.0016124 0.00575201 )  
( 0.000153874 -0.000913063 -0.000749728 )  
( 0.000379215 -0.000266347 0.00469211 )  
( 0.000368394 0.000774414 0.00432647 )  
( -0.00135736 -0.00153676 0.00654603 )  
( 0.00243369 -0.00494151 0.00496338 )  
( -0.000622639 0.000654716 0.000496156 )  
( -0.0002639 -5.52174e-05 0.00645831 )  
( 0.0012497 0.00060798 0.00516561 )  
( 0.000293025 -0.00107228 0.00628954 )  
( 0.000261765 -0.000367672 -0.000135458 )  
( 0.000314871 -0.000870859 0.00536238 )  
( -0.000453318 7.15776e-06 0.00694329 )  
( -0.000200944 1.35215e-05 0.00523943 )  
( 0.000323009 -0.000111143 -3.38951e-05 )  
( -0.000156202 -0.000220841 0.00566959 )  
( 1.94179e-05 0.000609407 -0.00108198 )  
( 0.000322629 -0.00135554 -9.50862e-06 )  
( -4.75892e-07 -0.00158335 -0.000473295 )  
( -0.000529636 -0.00200826 0.00651152 )  
( -0.00113559 -0.00131183 0.00434819 )  
( 0.000527023 0.000596507 0.00800378 )  
( -6.33396e-05 0.000293267 0.00535545 )  
( -0.00032399 0.000746646 0.00397915 )  
( 0.00196673 -0.000201582 0.00224805 )  
( 0.000802472 0.000226766 0.00486255 )  
( 0.000162016 0.000613375 -0.000985601 )  
( 0.0012941 -0.00160294 0.00424847 )  
( -0.000132727 0.000853065 0.00949602 )  
( 0.000676175 -0.00108716 0.00464574 )  
( -0.000772614 -0.000852245 0.00552568 )  
( -0.00188023 -0.00219839 0.00692109 )  
( 0.000269403 0.00104637 0.00427485 )  
( 0.000114509 9.69788e-05 4.15764e-05 )  
( 7.81626e-05 0.000571845 -0.000529284 )  
( -0.000379269 0.000729618 0.00510838 )  
( -0.00153347 -0.00205096 -0.00513008 )  
( 0.000707725 -0.000121877 -0.00030088 )  
( -0.000141793 0.000919994 0.00487214 )  
( -0.00029759 0.00137309 -0.000590316 )  
( -0.000303914 0.000211612 0.00610835 )  
( 9.0022e-05 -0.000209404 0.00522932 )  
( -0.000104219 0.00128139 0.00329422 )  
( 0.00045352 0.000295369 0.00169311 )  
( -0.000138263 0.000163234 -0.000463348 )  
( 6.37567e-05 -0.00210232 0.00331899 )  
( 0.000494062 0.00163629 -0.00209589 )  
( 0.00121403 -0.000742471 0.00517689 )  
( -0.00226125 0.00148492 0.00381545 )  
( 0.000281787 -0.000785771 -4.01256e-05 )  
( 0.000899253 -4.36339e-05 0.00519312 )  
( -0.00031722 0.000508429 3.73584e-07 )  
( 0.00163187 0.000490937 -1.76152e-05 )  
( -0.000294861 0.000688467 0.00540272 )  
( 0.0024808 0.000328198 0.00267991 )  
( -0.000539322 0.00233436 0.00628956 )  
( 0.000152423 -9.86429e-06 -0.000103445 )  
( 0.00170045 -0.000938697 0.00393431 )  
( 0.00227098 0.00215177 0.00644166 )  
( 9.06806e-05 0.000675348 0.000132231 )  
( 0.000925992 0.000110001 0.00645025 )  
( -0.000806873 0.000112456 0.00421017 )  
( 0.00134063 -0.00162902 0.00250559 )  
( 3.62959e-05 0.000170979 0.00655228 )  
( -0.000688318 6.30355e-05 0.0049076 )  
( -0.00132172 -0.00118855 0.00690621 )  
( 0.00177852 -0.000623569 0.00498672 )  
( 0.000338054 0.0011237 0.00372037 )  
( 0.00136694 0.00130104 0.0042792 )  
( 0.00195382 0.00366756 -0.00108097 )  
( 0.00042436 0.000196075 -0.000844464 )  
( -0.00123158 -0.00157751 -1.04148e-05 )  
( -0.00203559 -0.00173072 0.00306851 )  
( 0.000341647 -0.000501671 -0.000406041 )  
( -0.000569511 -0.00108932 0.00817095 )  
( -0.000365352 0.00113766 0.00633948 )  
( 0.00101056 0.000508625 0.00606368 )  
( 0.000969326 -0.000933777 0.00029749 )  
( 0.000871574 0.00145455 0.00455259 )  
( 0.000674805 0.000825262 0.00207659 )  
( 0.00413171 -0.00164248 0.00751571 )  
( -0.00051654 -0.00130198 0.00479196 )  
( -0.000881809 0.000729309 0.00286892 )  
( -0.000439416 1.1852e-05 0.0057523 )  
( -0.00049686 2.07235e-05 0.00289612 )  
( 0.000122096 -2.68362e-05 -9.018e-05 )  
( 0.000123876 -0.000727264 0.00486736 )  
( -4.33009e-05 0.000454681 -0.000695074 )  
( -0.000690284 -0.00276883 0.00550827 )  
( -0.0012039 -0.000159569 -0.000448974 )  
( -0.00118825 -0.00061303 0.00417308 )  
( -5.05153e-05 -0.000517558 -0.00108682 )  
( 0.000433 0.0009685 0.00555306 )  
( -0.000229226 2.29525e-05 0.00602299 )  
( 0.000175559 0.00102611 0.00635706 )  
( -0.00150492 0.00170217 0.00621782 )  
( 0.000432236 -0.00149185 0.000134985 )  
( -0.000165878 0.000842965 0.0118844 )  
( -4.03022e-06 0.000425086 6.29578e-05 )  
( -0.00200195 0.00051417 0.00708477 )  
( -0.000886475 0.000228423 -6.19187e-05 )  
( 0.00211511 -0.00300812 0.00541536 )  
( 0.000890938 -0.0009414 0.00487593 )  
( -0.00160273 0.00219876 0.00753036 )  
( -4.73007e-05 -0.000288614 0.00403206 )  
( -0.000472976 -0.000293345 0.00572768 )  
( 0.000945524 0.000266721 0.00172035 )  
( -0.000819378 0.000220571 0.00573226 )  
( 0.000262166 -0.00022464 -4.99487e-05 )  
( 0.000327167 -0.000373823 -4.08215e-05 )  
( -0.000234813 5.48423e-05 0.00617935 )  
( 0.000982196 -0.000388465 0.00569612 )  
( -0.00105202 -0.000623272 -0.00138252 )  
( 0.00111379 0.000228431 0.00529351 )  
( 0.000797023 0.000717151 0.00477248 )  
( 0.000832472 -0.000956336 1.07681e-05 )  
( 0.000356513 -0.000621897 0.00507771 )  
( -0.000891619 -0.000556915 0.00495258 )  
( 0.00108541 -0.000329742 -0.000391333 )  
( 0.000925404 -0.000563012 0.00582239 )  
( 2.45261e-05 0.000156649 -0.000116446 )  
( -0.000447121 -0.000254068 0.00465854 )  
( -1.68693e-05 0.00060612 0.0053881 )  
( 0.000537306 0.000154763 0.00012939 )  
( 4.47701e-06 0.000210683 -6.61268e-05 )  
( -0.000936135 0.00156485 -0.000648653 )  
( -0.00290354 -0.000210939 0.00578845 )  
( -0.00241343 0.000518508 0.00452147 )  
( -0.0001136 -0.000120634 -0.00023823 )  
( 0.000278704 9.02311e-05 2.20183e-05 )  
( 0.00227139 0.0011255 0.00601454 )  
( 0.000358488 -0.000169074 -0.000384937 )  
( -0.00176147 0.00188049 0.006565 )  
( 0.000989848 -0.00149093 0.00629703 )  
( 0.000554827 -0.00034733 0.00390793 )  
( 0.000347005 0.000374349 -3.11739e-05 )  
( 3.67124e-05 -0.000125725 -6.82835e-06 )  
( 0.000762807 0.000136886 -0.000309958 )  
( -0.00161921 -0.000794887 5.06342e-05 )  
( -0.000332821 -0.00076096 0.00515334 )  
( -0.000847988 -0.000775249 0.00639262 )  
( 0.00287047 -0.00170368 0.00718169 )  
( 0.000197015 0.00352435 0.00459029 )  
( 0.000557808 0.000103293 -0.00162583 )  
( -0.00130432 0.00065337 5.20058e-05 )  
( 2.59442e-05 0.000360237 -0.000455895 )  
( -0.000722073 -0.000475308 0.00537705 )  
( -0.000129666 -0.000852142 0.00208277 )  
( 0.000533466 -0.000288634 -0.00246267 )  
( -0.000784047 0.000285826 -2.77284e-05 )  
( 0.00328166 -0.000654406 0.00416437 )  
( -0.00040741 0.000251406 0.00551837 )  
( 7.62009e-05 -0.000548813 -0.000335415 )  
( 0.000242392 -0.000449361 -0.000799832 )  
( -0.000146782 0.000179592 0.00631018 )  
( -0.000700002 -0.000587787 0.00555303 )  
( -0.00283044 0.00136357 0.00309875 )  
( -0.00029099 -0.00164116 0.00432788 )  
( -0.00062938 0.000840545 -0.00108858 )  
( 0.000434337 -0.00118934 0.00214029 )  
( 0.000687476 0.00475484 0.00851498 )  
( -0.00117178 0.000959973 0.000394553 )  
( 0.000651376 0.000560089 -0.000653784 )  
( 7.19377e-05 0.000289223 -0.00119715 )  
( -0.00112883 0.000660663 0.000205468 )  
( -0.00193293 -0.00129572 0.00742573 )  
( 0.000453038 6.95622e-05 -0.000102787 )  
( -0.000592861 0.000425239 0.00554989 )  
( -0.000789716 0.00100308 -0.000334767 )  
( 0.000500131 -0.000209128 0.00549049 )  
( -0.000253913 0.000346611 0.00622943 )  
( -0.00101443 -0.00293098 0.00644634 )  
( -0.00333798 0.000192663 0.00649027 )  
( -0.000481603 0.000384722 -9.86509e-05 )  
( -0.00214752 -0.000325092 0.00572623 )  
( -0.000238027 -0.000784007 -2.03868e-05 )  
( 6.55241e-05 0.000796687 -0.000314608 )  
( -0.00055435 -0.000683926 0.00406812 )  
( -0.000350792 0.000199831 0.00447705 )  
( -4.11086e-06 3.27197e-05 0.00643651 )  
( -0.000647629 0.00031405 -7.17715e-05 )  
( 0.00135401 -0.000107168 -0.000641996 )  
( 3.36857e-05 0.000259174 -0.00302606 )  
( 0.000750252 0.00134733 0.00650741 )  
( -0.000724666 0.000167743 0.000101272 )  
( -0.000102621 0.000488843 -1.02796e-05 )  
( -0.0017754 0.00072062 0.00251182 )  
( 0.000147348 0.000198948 -0.000161272 )  
( -9.5091e-05 -0.00010233 0.00168664 )  
( -0.00014856 -0.000915833 0.00299122 )  
( -0.000259451 0.000332635 0.00517559 )  
( -0.00032052 0.000489467 -0.000298099 )  
( 0.000287609 0.000508725 0.00262335 )  
( 0.000465319 -0.000398383 0.000565825 )  
( -1.00623e-05 -0.000323076 0.000227724 )  
( -3.73195e-05 6.24096e-05 0.00314013 )  
( 6.45717e-05 0.00169242 0.00490664 )  
( 8.47479e-05 0.000411082 0.00565398 )  
( -0.000710082 0.000707835 -0.000561563 )  
( -0.00167678 -0.00103496 0.00649068 )  
( 2.98784e-06 -6.28663e-05 0.0020769 )  
( 0.00203174 0.00070457 0.00368256 )  
( -0.00939984 0.00437602 0.0100738 )  
( 0.000601894 -0.000677837 0.00402788 )  
( 0.000183199 -0.000123922 -0.000105933 )  
( 2.49473e-05 -0.000386565 0.00449773 )  
( 0.00053877 0.000514638 0.00514195 )  
( -0.000276809 -0.000167863 0.00436743 )  
( -0.000974697 -0.00108709 -0.000701187 )  
( -0.000102297 0.000858519 0.00373683 )  
( 0.00154618 -0.00100542 0.00534129 )  
( 9.71881e-05 0.000925055 -0.00039798 )  
( 0.000216042 -0.000564908 0.000667777 )  
( 0.00032951 -0.000779497 0.000119162 )  
( 0.000424308 -0.000489334 2.78605e-05 )  
( 0.00128648 -0.000144508 0.000545782 )  
( 9.62985e-05 -0.00215336 0.00806773 )  
( 0.000426234 0.00058094 0.00512012 )  
( -0.000837175 -0.000190994 0.00602793 )  
( -0.00103231 -0.000924394 0.00743666 )  
( 0.00181219 -0.00132998 0.00859121 )  
( 0.000623862 -0.000472119 0.00630149 )  
( -0.000366492 -0.000167806 0.000155618 )  
( -0.00127753 0.00140342 0.00644165 )  
( 0.000813661 -0.00127673 0.00492999 )  
( -0.000798071 -0.00278518 0.0129402 )  
( -0.00297428 0.000142431 0.00523666 )  
( -0.00294109 0.000135667 0.00470439 )  
( 0.000368455 0.000647391 -7.35446e-06 )  
( -0.00126726 -0.00120813 0.00574198 )  
( -0.000138632 0.000279698 -0.000152134 )  
( 0.00181308 -0.00044645 0.00379597 )  
( -3.79206e-05 -0.000361825 2.25105e-05 )  
( 0.000354565 0.00124318 0.00432369 )  
( -0.000355119 -0.00180052 0.00696026 )  
( -0.000650085 -0.00251325 0.00384849 )  
( -0.000485738 0.000867628 3.439e-05 )  
( 0.000262363 -0.00219164 0.00987587 )  
( 0.000104045 -0.000528002 0.00846371 )  
( -0.000390348 -0.000445749 0.00613573 )  
( -0.000980474 -0.00112465 -0.00193686 )  
( 7.00001e-05 -0.000161558 0.0057244 )  
( 0.000580856 0.000344206 -0.000869901 )  
( -4.75004e-07 2.50346e-05 -3.98581e-06 )  
( -0.00174502 2.17122e-05 0.00609051 )  
( 5.31406e-05 5.53345e-05 4.79602e-05 )  
( -0.000616975 -0.000441106 0.00576246 )  
( 0.000754222 0.000263539 0.00575541 )  
( -0.000392848 0.000381 0.00559428 )  
( 0.00264109 -0.00353287 0.00614219 )  
( -0.00153931 0.00335754 -0.00573883 )  
( 0.00097637 -3.46475e-05 0.00535061 )  
( -0.000472854 -0.00017109 0.00542468 )  
( -0.0028159 0.00214019 0.00710778 )  
( 0.000415877 0.000611267 -0.000130341 )  
( -0.00206421 0.000705923 0.00338365 )  
( 0.00350827 -0.000286094 0.00371774 )  
( -0.00125772 -0.000593069 0.00421466 )  
( -0.000283612 0.000337424 -1.54793e-05 )  
( -0.000521632 4.61769e-05 -0.00063316 )  
( 0.000629068 0.00211364 -0.0045154 )  
( 4.43581e-05 2.9928e-06 0.00568015 )  
( 5.10108e-05 6.61168e-05 -1.86694e-05 )  
( -0.000279288 -0.00083302 0.00464339 )  
( -0.00047171 -0.000949262 0.00431364 )  
( 0.000889455 3.96435e-05 -0.000858594 )  
( 9.61903e-05 -9.95269e-05 3.77556e-05 )  
( -0.00205072 -0.00127321 -0.000256678 )  
( -0.00143989 -0.00110368 0.00655592 )  
( -0.000812037 -4.60737e-05 0.00133185 )  
( 0.000158846 0.000646894 0.00337758 )  
( -0.000989509 -0.000389986 0.000141145 )  
( -9.284e-05 -0.000141104 -0.000337071 )  
( 4.13363e-05 0.000246712 -3.51215e-05 )  
( -0.000915581 0.000831714 0.00369292 )  
( -0.000339991 -0.000754044 0.00479035 )  
( -0.000889268 0.00129238 0.00409897 )  
( -0.00154224 0.000194166 4.77428e-07 )  
( 5.61919e-05 -0.000590974 0.00569571 )  
( -0.00215918 2.39271e-05 -0.00069169 )  
( -0.000682779 -0.000413863 0.00691815 )  
( -0.000249625 0.000791373 0.00788787 )  
( 0.000746491 -0.00103857 -3.63841e-07 )  
( 1.29255e-05 0.000368813 -0.00114298 )  
( -0.00215766 -0.00223781 0.00667132 )  
( 0.000882948 0.000227697 0.00479244 )  
( -0.000297634 0.000360287 0.000180427 )  
( -0.000329198 8.84157e-05 -1.56167e-05 )  
( -0.00177775 -0.00132867 0.00677565 )  
( 0.000837649 -0.000998366 0.00586752 )  
( -0.000144342 0.000303564 0.0059649 )  
( -0.00110703 0.00059323 0.00224646 )  
( 0.000755634 -0.00029358 0.00415648 )  
( 0.000168948 -0.000199286 0.00603039 )  
( -0.000730141 0.000646394 -1.74942e-05 )  
( -0.000270143 0.000238296 -0.000119336 )  
( -0.000123427 9.42017e-05 1.08204e-07 )  
( -0.00015438 -0.000273713 0.0070487 )  
( 0.000247833 -0.000566677 0.00679647 )  
( -0.000626328 0.000338272 0.00655953 )  
( 2.2004e-05 0.000134264 5.58126e-06 )  
( 0.000554965 0.000774915 0.00514788 )  
( -1.71993e-05 -0.00131268 0.00543756 )  
( -0.00136914 0.00140776 0.000364513 )  
( 0.001494 0.00198379 0.00395114 )  
( -0.000379076 -0.0004895 0.00499456 )  
( 2.31066e-05 -0.000751364 0.00479697 )  
( -0.00164346 -0.000709193 -0.000650031 )  
( 0.000206622 5.67189e-05 2.57371e-05 )  
( -0.000381695 -0.000260402 3.03129e-06 )  
( -0.000690711 -0.0023146 0.004691 )  
( -0.000354749 -0.000419959 0.0086251 )  
( 0.000482196 -0.000198083 -0.000260239 )  
( -0.000873351 0.000148561 0.000305125 )  
( -0.000439182 -0.000228179 -0.000368788 )  
( -0.000434335 -0.000761845 0.0072249 )  
( 0.00122577 -0.000556059 0.00547468 )  
( -7.04583e-05 -0.000293508 0.00509102 )  
( -0.000499355 0.00095304 -8.37104e-05 )  
( -0.00058597 0.000880406 0.00652153 )  
( 0.0021199 0.000352557 0.00472571 )  
( -0.00227673 0.000221539 0.00596246 )  
( -0.00130974 -0.000526962 0.00647163 )  
( -0.00265326 -0.000431308 0.0039385 )  
( 0.000243787 -0.000720511 0.00520941 )  
( 9.14103e-05 -0.00172911 0.006561 )  
( 0.000767825 0.000683648 0.00489842 )  
( 0.00046996 0.000998449 -0.000608856 )  
( 0.0020545 -0.000484709 0.00519624 )  
( -0.00115057 -0.000598367 0.00545002 )  
( 3.17049e-05 -4.28721e-05 6.43859e-05 )  
( -0.00048333 -0.00117901 0.00410088 )  
( 9.08802e-05 -0.000118302 -4.7844e-05 )  
( 0.000472337 -1.78377e-05 0.00497522 )  
( -0.00106744 0.000518058 0.00145875 )  
( -0.00113903 0.000878344 0.00440162 )  
( 0.00178092 0.00132015 0.00495691 )  
( 0.000200408 -0.000160324 0.00669922 )  
( -7.9664e-05 4.64178e-05 2.45184e-05 )  
( 0.0012553 -0.000136571 0.00595924 )  
( -0.000305235 0.00319719 0.00575139 )  
( -0.000611552 0.000832915 0.00575519 )  
( -0.00328117 0.000376766 0.00532769 )  
( -9.57413e-05 3.57233e-06 0.0010465 )  
( -0.00127649 0.0017224 -0.00102911 )  
( -0.00369521 0.000832541 0.00503548 )  
( -0.00148875 3.80427e-05 0.00708392 )  
( -0.000558009 0.00230774 0.0033514 )  
( 0.0014148 -0.000361544 0.00417842 )  
( -0.000625002 5.92656e-06 0.00437216 )  
( 7.41061e-05 -5.8887e-05 -0.000247889 )  
( -0.00257708 -0.000264489 0.00409066 )  
( -0.00134431 0.000846283 0.00287667 )  
( 0.000209328 0.000974185 0.00475887 )  
( 0.000254887 -0.000515179 0.00798777 )  
( -5.49207e-05 -0.00210325 0.00121129 )  
( -0.000343641 -1.2774e-05 -0.000218622 )  
( 0.00108155 0.0014477 0.00440767 )  
( -0.00376422 -0.000863126 0.00508597 )  
( -2.42044e-05 5.04841e-05 6.95598e-06 )  
( 0.00143009 0.00119444 -0.00101684 )  
( -0.000405224 0.000480304 0.00582689 )  
( -0.0036886 0.00113814 0.000511981 )  
( -0.000160327 -0.000299485 -0.000119968 )  
( 0.000347205 0.000698793 0.00648432 )  
( -4.54914e-06 2.32457e-05 9.36082e-06 )  
( -0.00176909 0.000993083 0.00476277 )  
( -9.9102e-06 -0.000507261 0.00555056 )  
( -0.000481785 -0.00235546 0.0106297 )  
( 0.000574441 -0.000204698 0.00236141 )  
( 0.000160606 -0.000641558 -0.000274634 )  
( -0.000209653 -0.00114418 0.00388225 )  
( 0.00159672 0.000586424 -0.00118456 )  
( 0.000936592 -0.00120971 -0.000335155 )  
( 0.000592628 -0.000759998 0.00585635 )  
( -0.000158154 -0.000671774 0.00548626 )  
( -0.000263302 0.000228239 -0.000286918 )  
( -0.000426538 -0.000347655 -0.000179239 )  
( -0.000624974 -0.000397359 0.00618198 )  
( 6.56447e-05 -0.000522729 -0.000973912 )  
( -0.000502684 -0.000643599 0.00790265 )  
( 0.00112685 7.76733e-05 0.000473348 )  
( 0.00100454 -0.000991756 6.97894e-05 )  
( -0.000843075 -0.000484577 0.0056611 )  
( 0.000314558 0.000789787 0.00596322 )  
( -0.000452059 -0.00023758 -6.34054e-06 )  
( -0.000395024 -1.10599e-05 -0.000112511 )  
( -6.83455e-05 -0.000193569 0.00721598 )  
( -9.28697e-05 -9.20891e-05 -0.000149405 )  
( -0.00172764 0.000702195 0.0067599 )  
( -0.00184291 -0.000748662 -0.00184583 )  
( -3.19671e-05 -1.82215e-05 -1.40192e-05 )  
( -0.000298587 -7.04397e-06 -0.000497204 )  
( -0.000161382 -0.000276771 -0.000183289 )  
( -0.000338476 5.46168e-05 0.00765562 )  
( 0.000607105 0.000480087 -0.00195246 )  
( -0.00115751 8.1849e-05 -0.0027489 )  
( 0.000261739 0.00145228 0.00269069 )  
( -0.00049735 0.000937623 0.000253246 )  
( -0.000465446 0.000503929 6.60483e-05 )  
( -0.000133024 -0.000612693 9.07556e-06 )  
( -0.000586072 0.000297586 0.000130449 )  
( -0.00256759 0.00177955 -0.00214587 )  
( 0.00152057 -0.00126885 0.00579652 )  
( -0.000193667 -0.000195872 -2.02262e-05 )  
( -0.000571538 0.000719076 0.00110106 )  
( -0.00129071 -0.000689586 0.00549814 )  
( -0.000879781 0.000916999 0.00633463 )  
( -0.000458481 0.000122641 5.449e-05 )  
( -0.000226897 -0.000233587 6.55821e-05 )  
( -0.000702822 0.000748804 0.00613576 )  
( 0.000343832 0.000862527 0.00208323 )  
( 0.00085112 -0.000391717 0.00479737 )  
( 0.000723443 0.000992596 -0.00138697 )  
( 0.00364053 -0.000733558 0.00595066 )  
( 0.0008325 -0.00227015 0.00600288 )  
( -0.000376338 0.000851375 0.00623104 )  
( 4.62486e-05 -7.15489e-06 6.91747e-06 )  
( 0.000321485 0.00049114 0.00588362 )  
( -0.000324771 -0.000283942 -0.000242265 )  
( 0.00033339 -8.48881e-05 0.00552412 )  
( -6.09658e-05 0.000256703 -0.00057714 )  
( -0.0014614 -0.000635455 0.00758382 )  
( -0.000728991 -0.00444467 0.00754946 )  
( -5.01577e-05 -4.92755e-05 9.24643e-06 )  
( -0.000766916 -1.24729e-05 -0.000286579 )  
( -0.000334984 0.00186657 0.00417627 )  
( 0.00011916 -0.000452157 -0.000685828 )  
( -7.68795e-05 -0.000107022 0.0064696 )  
( 0.000359493 -0.00134149 0.00645452 )  
( -0.00111473 0.000340356 0.0065472 )  
( 0.00010135 -0.000537962 0.00602044 )  
( -0.00153248 0.000271395 0.00622394 )  
( 0.00208439 0.000599982 0.00522688 )  
( 0.000209307 -0.000429447 0.000223177 )  
( -0.00108278 -0.00117075 0.000573733 )  
( 0.00240396 0.00169102 0.00338672 )  
( -0.00142297 0.000446973 -2.22561e-08 )  
( -0.000644762 -0.000411858 -0.000262427 )  
( 0.00127627 -0.000701206 0.00787331 )  
( 0.000559805 -0.000407865 -0.00010162 )  
( 0.00155057 -0.0020148 -3.92055e-05 )  
( -0.00098378 -0.000381381 0.00485123 )  
( 0.00164688 -0.00112895 0.00495891 )  
( -0.000981944 0.000450457 -0.000396031 )  
( 0.000237728 0.000435162 -0.000127601 )  
( -0.00104189 -0.000523287 0.00519653 )  
( 0.00033627 -0.000395382 -0.0004226 )  
( -7.69502e-05 -0.000613975 0.000257367 )  