/*--------------------------------*- C++ -*----------------------------------*\
| =========                 |                                                 |
| \\      /  F ield         | OpenFOAM: The Open Source CFD Toolbox           |
|  \\    /   O peration     | Version:  2506                                  |
|   \\  /    A nd           | Website:  www.openfoam.com                      |
|    \\/     M anipulation  |                                                 |
\*---------------------------------------------------------------------------*/
FoamFile
{
    version     2.0;
    format      ascii;
    arch        "LSB;label=32;scalar=64";
    class       volVectorField;
    location    "0.08";
    object      Us;
}
// * * * * * * * * * * * * * * * * * * * * * * * * * * * * * * * * * * * * * //

dimensions      [0 1 -1 0 0 0 0];

internalField   nonuniform List<vector> 
1152
(
(0.00042298 0.000722958 -7.32314e-07)
(0.000278245 7.56276e-06 -0.000102801)
(-0.000913562 0.00119615 0.000104749)
(-0.000507622 -5.95273e-06 -0.000180417)
(0.000112367 0.000766766 0.000265302)
(0.000150691 8.79034e-05 0.000426566)
(-0.000184878 0.000110874 -0.000333929)
(0.000145188 0.000175124 0.00070822)
(0.000610837 0.000554469 0.000217596)
(0.00126587 0.000254614 0.000414337)
(0.000442416 -1.77396e-05 0.000219712)
(0.00024209 0.000103841 0.000723679)
(0.000780815 -0.000410433 -0.00046911)
(8.97234e-05 -0.000153171 -0.000165879)
(0.000210269 -0.000115857 2.49261e-06)
(-0.000186292 6.86748e-05 0.000588283)
(0.00087862 0.000333108 0.010086)
(0.00119568 -0.000365215 0.0104673)
(0.0028753 -0.000596871 0.00930302)
(0.000648265 -0.000431757 0.00967603)
(0.00113754 -0.000649718 0.0107966)
(0.00153184 -0.000716712 0.0118722)
(0.00175474 -0.000203956 0.010795)
(0.00113343 0.000241405 0.0125278)
(0.00101059 0.000229299 0.0102988)
(0.00130369 -0.000174114 0.0100394)
(0.00174645 -0.000263406 0.0117464)
(0.000550597 0.00199727 0.0107092)
(0.00170778 0.000677649 0.0115828)
(0.000936589 0.000350908 0.0102862)
(0.000418066 0.000172848 0.0105851)
(0.000943364 0.00173587 0.00957373)
(0.00023629 0.000114549 0.0108703)
(4.47876e-05 -0.000427683 0.0113634)
(0.00128984 -0.000132955 0.0114545)
(0.000230603 4.5389e-05 0.0115973)
(0.000892254 8.67465e-05 0.0108136)
(-8.94415e-05 -7.50602e-05 0.011406)
(0.000520887 -0.000138984 0.0112524)
(0.000294059 0.000407864 0.0107843)
(0.000545013 4.41792e-05 0.0105089)
(0.000412395 -0.000117063 0.0105442)
(0.000540271 0.000550708 0.0112115)
(0.000126095 0.000953365 0.0102568)
(0.000914034 0.00017033 0.0105884)
(0.000417875 -3.17026e-05 0.0107959)
(0.000166611 0.000396046 0.0112406)
(0.000166852 0.00080658 0.0105832)
(3.5708e-05 0.000194143 0.0111468)
(8.22837e-05 0.000521953 0.0113521)
(-1.09124e-05 0.000682662 0.0115193)
(-0.000297457 0.000542209 0.0116091)
(-0.000149372 7.74064e-05 0.0110723)
(9.3882e-05 1.10963e-05 0.0110735)
(-8.0719e-05 0.000442113 0.0111648)
(-0.000549401 4.37503e-05 0.012415)
(0.000128295 -0.000230427 0.0106782)
(6.69464e-05 -0.000192546 0.0108188)
(-0.000128199 -0.000148371 0.0112254)
(0.000130542 0.000246952 0.0110297)
(0.000266562 -0.000313891 0.0103655)
(0.000110402 -0.000446709 0.0106806)
(7.71922e-05 -0.000505681 0.0113348)
(0.000252374 -0.000276098 0.0104589)
(-0.000154522 0.000284677 0.0112814)
(-0.000169828 0.000300981 0.0114207)
(-0.000169181 0.000371352 0.0117074)
(-0.00031131 0.000400057 0.0119161)
(-0.000124699 0.000194195 0.0113231)
(-0.000298298 0.000300154 0.0116155)
(-0.000155353 0.000152799 0.0114328)
(-0.000242396 0.000176501 0.0115413)
(-0.000213559 -0.000180727 0.0111264)
(-0.000141805 0.00014289 0.0118317)
(-0.000589354 -0.000414724 0.0115247)
(-0.000384439 0.000112337 0.011863)
(0.000110818 -0.000598468 0.0109067)
(0.000161839 -0.000761911 0.0111758)
(-0.000265082 -0.00111174 0.0113675)
(2.70433e-05 -0.000262551 0.0109278)
(-9.85024e-05 0.000184585 0.0113024)
(-0.000182766 -0.000101975 0.0114108)
(-0.000342193 0.000240644 0.0116922)
(-0.000250257 0.000326996 0.0117471)
(-0.000278607 4.5184e-05 0.0114317)
(-0.000189426 -4.12778e-05 0.0116011)
(-0.000370509 0.000214007 0.0115983)
(-0.000346882 0.000175451 0.0117625)
(-8.44894e-05 -0.000492664 0.0115565)
(-0.000313318 7.16688e-05 0.0115206)
(-7.32189e-05 0.000150115 0.0116097)
(-1.0649e-05 7.83505e-06 0.0112825)
(-0.000412612 -0.00100834 0.0116007)
(2.2806e-05 -0.000549697 0.0116733)
(-0.000543122 -0.00089692 0.0119004)
(-0.000125268 -3.56324e-05 0.0110637)
(-0.0001126 -8.69025e-05 0.0112844)
(-0.000264303 -0.000203713 0.0112781)
(-0.000538233 0.000146148 0.0116276)
(-0.000410179 0.000755735 0.0112198)
(-0.000406661 0.000302789 0.0114978)
(-3.54072e-05 0.000109152 0.0113482)
(-0.000222306 0.000188348 0.0113919)
(-0.00024082 0.00023485 0.0114272)
(-0.000204946 -0.000463366 0.0119364)
(6.04718e-05 -0.000185429 0.0119064)
(8.668e-05 0.00092806 0.0120738)
(0.000253409 0.000232816 0.011515)
(-0.000404755 -0.000508279 0.0120652)
(-0.000166409 8.41242e-05 0.0118689)
(0.000393404 -0.000305631 0.0123924)
(0.000205882 -1.24672e-06 0.0108575)
(0 0 0)
(0 0 0)
(0 0 0)
(0 0 0)
(0 0 0)
(0 0 0)
(0 0 0)
(0 0 0)
(0 0 0)
(0 0 0)
(0 0 0)
(0 0 0)
(0 0 0)
(0 0 0)
(0 0 0)
(0 0 0)
(0 0 0)
(0 0 0)
(0 0 0)
(0 0 0)
(0 0 0)
(0 0 0)
(0 0 0)
(0 0 0)
(0 0 0)
(0 0 0)
(0 0 0)
(0 0 0)
(0 0 0)
(0 0 0)
(0 0 0)
(0 0 0)
(0 0 0)
(0 0 0)
(0 0 0)
(0 0 0)
(0 0 0)
(0 0 0)
(0 0 0)
(0 0 0)
(0 0 0)
(0 0 0)
(0 0 0)
(0 0 0)
(0 0 0)
(0 0 0)
(0 0 0)
(0 0 0)
(0 0 0)
(0 0 0)
(0 0 0)
(0 0 0)
(0 0 0)
(0 0 0)
(0 0 0)
(0 0 0)
(0 0 0)
(0 0 0)
(0 0 0)
(0 0 0)
(0 0 0)
(0 0 0)
(0 0 0)
(0 0 0)
(0 0 0)
(0 0 0)
(0 0 0)
(0 0 0)
(0 0 0)
(0 0 0)
(0 0 0)
(0 0 0)
(0 0 0)
(0 0 0)
(0 0 0)
(0 0 0)
(0 0 0)
(0 0 0)
(0 0 0)
(0 0 0)
(0 0 0)
(0 0 0)
(0 0 0)
(0 0 0)
(0 0 0)
(0 0 0)
(0 0 0)
(0 0 0)
(0 0 0)
(0 0 0)
(0 0 0)
(0 0 0)
(0 0 0)
(0 0 0)
(0 0 0)
(0 0 0)
(0 0 0)
(0 0 0)
(0 0 0)
(0 0 0)
(0 0 0)
(0 0 0)
(0 0 0)
(0 0 0)
(0 0 0)
(0 0 0)
(0 0 0)
(0 0 0)
(0 0 0)
(0 0 0)
(0 0 0)
(0 0 0)
(0 0 0)
(0 0 0)
(0 0 0)
(0 0 0)
(0 0 0)
(0 0 0)
(0 0 0)
(0 0 0)
(0 0 0)
(0 0 0)
(0 0 0)
(0 0 0)
(0 0 0)
(0 0 0)
(0 0 0)
(0 0 0)
(0 0 0)
(0 0 0)
(0 0 0)
(0 0 0)
(0 0 0)
(0 0 0)
(0 0 0)
(0 0 0)
(0 0 0)
(0 0 0)
(0 0 0)
(0 0 0)
(0 0 0)
(0 0 0)
(0 0 0)
(0 0 0)
(0 0 0)
(0 0 0)
(0 0 0)
(0 0 0)
(0 0 0)
(0 0 0)
(0 0 0)
(0 0 0)
(0 0 0)
(0 0 0)
(0 0 0)
(0 0 0)
(0 0 0)
(0 0 0)
(0 0 0)
(0 0 0)
(0 0 0)
(0 0 0)
(0 0 0)
(0 0 0)
(0 0 0)
(0 0 0)
(0 0 0)
(0 0 0)
(0 0 0)
(0 0 0)
(0 0 0)
(0 0 0)
(0 0 0)
(0 0 0)
(0 0 0)
(0 0 0)
(0 0 0)
(0 0 0)
(0 0 0)
(0 0 0)
(0 0 0)
(0 0 0)
(0 0 0)
(0 0 0)
(0 0 0)
(0 0 0)
(0 0 0)
(0 0 0)
(0 0 0)
(0 0 0)
(0 0 0)
(0 0 0)
(0 0 0)
(0 0 0)
(0 0 0)
(0 0 0)
(0 0 0)
(0 0 0)
(0 0 0)
(0 0 0)
(0 0 0)
(0 0 0)
(0 0 0)
(0 0 0)
(0 0 0)
(0 0 0)
(0 0 0)
(0 0 0)
(0 0 0)
(0 0 0)
(0 0 0)
(0 0 0)
(0 0 0)
(0 0 0)
(0 0 0)
(0 0 0)
(0 0 0)
(0 0 0)
(0 0 0)
(0 0 0)
(0 0 0)
(0 0 0)
(0 0 0)
(0 0 0)
(0 0 0)
(0 0 0)
(0 0 0)
(0 0 0)
(0 0 0)
(0 0 0)
(0 0 0)
(0 0 0)
(0 0 0)
(0 0 0)
(0 0 0)
(0 0 0)
(0 0 0)
(0 0 0)
(0 0 0)
(0 0 0)
(0 0 0)
(0 0 0)
(0 0 0)
(0 0 0)
(0 0 0)
(0 0 0)
(0 0 0)
(0 0 0)
(0 0 0)
(0 0 0)
(0 0 0)
(0 0 0)
(0 0 0)
(0 0 0)
(0 0 0)
(0 0 0)
(0 0 0)
(0 0 0)
(0 0 0)
(0 0 0)
(0 0 0)
(0 0 0)
(0 0 0)
(0 0 0)
(0 0 0)
(0 0 0)
(0 0 0)
(0 0 0)
(0 0 0)
(0 0 0)
(0 0 0)
(0 0 0)
(-3.0236e-05 -4.73654e-05 3.46887e-05)
(-1.23203e-05 -2.57112e-05 -0.000134275)
(0.000621202 -0.000102247 0.000291719)
(0.00160785 1.98179e-05 -0.000248784)
(0.000774812 -0.000515606 -0.000561537)
(0.00021037 -0.000283291 -0.000306755)
(0.000549261 -0.000318511 -0.00054229)
(0.000389882 0.000159896 -0.000198109)
(-0.000377621 -0.00044701 0.00035515)
(8.43121e-05 -0.000141235 4.29194e-05)
(0.000195085 0.000422856 -0.000320021)
(0.00013803 0.000355254 -0.000129952)
(8.49931e-05 -0.00047006 0.000449639)
(0.000228171 -0.000277855 0.000254808)
(0.000352307 0.00039618 -0.00108491)
(0.000371163 -0.000231253 0.000542907)
(-0.000164578 -0.000395944 0.0107347)
(0.00122396 0.00120257 0.00956692)
(0.00139123 0.000576674 0.00899669)
(0.000721118 0.000858001 0.00768736)
(0.000788469 -0.000721154 0.00903684)
(0.000175628 0.000301198 0.00799605)
(0.000299931 -0.000163077 0.00775391)
(0.000610331 -0.000383601 0.00838183)
(0.00108134 -0.00030052 0.00986158)
(-0.000569533 -0.000852867 0.00838375)
(8.21465e-05 -0.00126759 0.00707616)
(-6.45843e-05 -0.000890858 0.00755821)
(0.00139196 -0.000125159 0.00868404)
(0.00109567 -0.000726407 0.00823423)
(0.00105321 -0.000617532 0.00824898)
(-0.000217978 -0.000112395 0.00817526)
(0.000290524 -0.000495864 0.0106809)
(0.000479045 -0.000649326 0.00999563)
(-0.000150335 0.000328841 0.0101007)
(-2.62007e-05 0.00141838 0.00947865)
(-0.000130197 -0.00148021 0.00997653)
(0.00079953 -0.000733114 0.00963391)
(-6.7468e-05 0.000282612 0.00968775)
(0.000302631 0.000977882 0.00923371)
(0.000739587 0.000203433 0.0105228)
(0.000667869 -0.000817557 0.00859986)
(4.49302e-05 -0.000212841 0.00842122)
(-0.00046061 0.000608138 0.00829458)
(0.000805801 5.371e-05 0.010289)
(0.000496994 -0.000675108 0.00811345)
(0.000654513 -0.0006148 0.00725136)
(-0.000564618 0.000353031 0.00741266)
(0.000811933 -0.000183813 0.0111565)
(0.000423652 -0.00136555 0.0105661)
(0.00043174 -0.000244039 0.0108093)
(-0.000292636 -0.000270048 0.00984822)
(0.00113402 -0.000632513 0.0101418)
(0.00122001 -0.00188 0.00972591)
(0.000328494 -0.000153577 0.00982864)
(0.000289384 0.000942207 0.00959488)
(0.000791991 -0.000805027 0.00982128)
(0.000355632 -0.000519108 0.00897145)
(0.000778145 0.000120171 0.00938437)
(-0.000187013 0.000889424 0.00971013)
(0.00110715 0.000120753 0.0107414)
(0.000785656 -0.000317999 0.00821499)
(-0.000468475 -0.000187974 0.00795752)
(-0.000206235 0.000873103 0.00782391)
(0.000450303 -0.000653995 0.0111851)
(-0.000142359 -0.000730425 0.0119355)
(-0.000109292 -0.000729466 0.0106785)
(-0.000517114 -0.000800063 0.010336)
(0.00054048 -0.000553903 0.00993281)
(0.000227036 -0.00060786 0.0105136)
(0.000262205 -0.000519342 0.00949414)
(-0.000131578 -0.000143572 0.0105861)
(0.00136578 -0.00076299 0.0105318)
(0.000232065 -0.00104685 0.00945211)
(8.53413e-05 -0.000521679 0.00868949)
(-0.000145168 0.00107383 0.00967371)
(-0.000738988 -0.00161537 0.00732026)
(-0.000733502 -0.0015899 0.00793783)
(-0.00142234 0.000375277 0.00753877)
(-0.00083901 0.00121039 0.00686953)
(-0.000382321 -0.00119013 0.0113884)
(-0.000448369 -0.00117012 0.0106343)
(-0.000776649 -0.00106985 0.0102453)
(0.000157646 -0.000327666 0.010198)
(-0.000272803 -0.00134215 0.00993024)
(-0.000246135 -0.00146041 0.00988839)
(0.000736428 -0.00120897 0.00898061)
(0.000541319 -0.00118059 0.00982838)
(-0.000165247 -0.00128103 0.00937195)
(4.33064e-05 -0.00228024 0.0104696)
(5.01946e-05 -0.00203454 0.00699517)
(-0.000104642 -0.00159059 0.00892771)
(-6.52638e-05 -0.000189643 0.0065998)
(0.000292633 -0.00119739 0.00705659)
(-0.00113876 -0.000301328 0.0065415)
(-6.96457e-05 -0.000223074 0.00557778)
(-0.000934558 0.000189655 0.0110577)
(-0.000956458 -0.00022998 0.0109502)
(-0.000121177 -0.00145721 0.00952129)
(-0.000617191 0.000299045 0.00976529)
(-0.000618575 -0.00140023 0.0100615)
(-0.00021366 -0.0012569 0.010239)
(-0.000296049 -0.00199267 0.00884699)
(-0.00159504 0.000267905 0.00880786)
(0.000657039 -0.00169857 0.00871174)
(-0.000349604 -0.00126545 0.0103796)
(0.00130232 -0.00322107 0.00837259)
(-0.00165029 0.000346085 0.00804694)
(0.00100943 -0.000146647 0.00723324)
(0.00348843 -0.000321506 0.00562176)
(0.00214122 -0.00146055 0.00703936)
(-0.000481541 0.0001923 0.0042435)
(0 0 0)
(0 0 0)
(0 0 0)
(0 0 0)
(0 0 0)
(0 0 0)
(0 0 0)
(0 0 0)
(0 0 0)
(0 0 0)
(0 0 0)
(0 0 0)
(0 0 0)
(0 0 0)
(0 0 0)
(0 0 0)
(0 0 0)
(0 0 0)
(0 0 0)
(0 0 0)
(0 0 0)
(0 0 0)
(0 0 0)
(0 0 0)
(0 0 0)
(0 0 0)
(0 0 0)
(0 0 0)
(0 0 0)
(0 0 0)
(0 0 0)
(0 0 0)
(0 0 0)
(0 0 0)
(0 0 0)
(0 0 0)
(0 0 0)
(0 0 0)
(0 0 0)
(0 0 0)
(0 0 0)
(0 0 0)
(0 0 0)
(0 0 0)
(0 0 0)
(0 0 0)
(0 0 0)
(0 0 0)
(0 0 0)
(0 0 0)
(0 0 0)
(0 0 0)
(0 0 0)
(0 0 0)
(0 0 0)
(0 0 0)
(0 0 0)
(0 0 0)
(0 0 0)
(0 0 0)
(0 0 0)
(0 0 0)
(0 0 0)
(0 0 0)
(0 0 0)
(0 0 0)
(0 0 0)
(0 0 0)
(0 0 0)
(0 0 0)
(0 0 0)
(0 0 0)
(0 0 0)
(0 0 0)
(0 0 0)
(0 0 0)
(0 0 0)
(0 0 0)
(0 0 0)
(0 0 0)
(0 0 0)
(0 0 0)
(0 0 0)
(0 0 0)
(0 0 0)
(0 0 0)
(0 0 0)
(0 0 0)
(0 0 0)
(0 0 0)
(0 0 0)
(0 0 0)
(0 0 0)
(0 0 0)
(0 0 0)
(0 0 0)
(0 0 0)
(0 0 0)
(0 0 0)
(0 0 0)
(0 0 0)
(0 0 0)
(0 0 0)
(0 0 0)
(0 0 0)
(0 0 0)
(0 0 0)
(0 0 0)
(0 0 0)
(0 0 0)
(0 0 0)
(0 0 0)
(0 0 0)
(0 0 0)
(0 0 0)
(0 0 0)
(0 0 0)
(0 0 0)
(0 0 0)
(0 0 0)
(0 0 0)
(0 0 0)
(0 0 0)
(0 0 0)
(0 0 0)
(0 0 0)
(0 0 0)
(0 0 0)
(0 0 0)
(0 0 0)
(0 0 0)
(0 0 0)
(0 0 0)
(0 0 0)
(0 0 0)
(0 0 0)
(0 0 0)
(0 0 0)
(0 0 0)
(0 0 0)
(0 0 0)
(0 0 0)
(0 0 0)
(0 0 0)
(0 0 0)
(0 0 0)
(0 0 0)
(0 0 0)
(0 0 0)
(0 0 0)
(0 0 0)
(0 0 0)
(0 0 0)
(0 0 0)
(0 0 0)
(0 0 0)
(0 0 0)
(0 0 0)
(0 0 0)
(0 0 0)
(0 0 0)
(0 0 0)
(0 0 0)
(0 0 0)
(0 0 0)
(0 0 0)
(0 0 0)
(0 0 0)
(0 0 0)
(0 0 0)
(0 0 0)
(0 0 0)
(0 0 0)
(0 0 0)
(0 0 0)
(0 0 0)
(0 0 0)
(0 0 0)
(0 0 0)
(0 0 0)
(0 0 0)
(0 0 0)
(0 0 0)
(0 0 0)
(0 0 0)
(0 0 0)
(0 0 0)
(0 0 0)
(0 0 0)
(0 0 0)
(0 0 0)
(0 0 0)
(0 0 0)
(0 0 0)
(0 0 0)
(0 0 0)
(0 0 0)
(0 0 0)
(0 0 0)
(0 0 0)
(0 0 0)
(0 0 0)
(0 0 0)
(0 0 0)
(0 0 0)
(0 0 0)
(0 0 0)
(0 0 0)
(0 0 0)
(0 0 0)
(0 0 0)
(0 0 0)
(0 0 0)
(0 0 0)
(0 0 0)
(0 0 0)
(0 0 0)
(0 0 0)
(0 0 0)
(0 0 0)
(0 0 0)
(0 0 0)
(0 0 0)
(0 0 0)
(0 0 0)
(0 0 0)
(0 0 0)
(0 0 0)
(0 0 0)
(0 0 0)
(0 0 0)
(0 0 0)
(0 0 0)
(0 0 0)
(0 0 0)
(0 0 0)
(0 0 0)
(0 0 0)
(0 0 0)
(0 0 0)
(0 0 0)
(0 0 0)
(0 0 0)
(0 0 0)
(0 0 0)
(0 0 0)
(0 0 0)
(0 0 0)
(0 0 0)
(0 0 0)
(0 0 0)
(0 0 0)
(0 0 0)
(0 0 0)
(0 0 0)
(0 0 0)
(0 0 0)
(0 0 0)
(0 0 0)
(0 0 0)
(0 0 0)
(0 0 0)
(0 0 0)
(0 0 0)
(0 0 0)
(0 0 0)
(0 0 0)
(0 0 0)
(0 0 0)
(0 0 0)
(0 0 0)
(0 0 0)
(6.69463e-05 -6.41237e-05 4.24677e-05)
(0.00025438 -0.000631614 -0.000151738)
(-6.13425e-05 -0.000167444 0.000300928)
(-0.000131398 -0.000114014 -4.82884e-05)
(0.000121434 -0.000145165 -9.34225e-05)
(0.00141254 -0.000241199 -0.000423993)
(0.00050139 -0.000382717 -0.000268319)
(-8.19504e-05 -0.000324924 0.000199021)
(0.00034864 -0.000974761 0.000167516)
(0.000818323 -0.000974543 0.000189349)
(0.000402004 -0.000260681 0.000448894)
(0.000156864 -7.03721e-06 0.000119064)
(0.00136256 -0.00107221 -0.000770607)
(0.00186441 -0.00146175 -0.00107895)
(-1.66031e-05 3.9629e-05 0.000335292)
(-7.23648e-05 0.000102086 -6.26383e-05)
(-0.000198539 0.000634577 0.00985511)
(-7.32649e-07 0.000915488 0.00917679)
(0.00105236 0.0031263 0.00966992)
(0.000323395 0.00286084 0.00783291)
(0.00025586 0.000607541 0.00951435)
(6.2729e-05 0.00155113 0.00881278)
(-0.00103699 0.000642659 0.00918043)
(-0.00110777 0.00157477 0.00889473)
(-0.000272359 0.00145062 0.00769617)
(4.63216e-06 0.000432354 0.00836744)
(-0.000764376 0.000183763 0.0089773)
(-0.000751461 0.000721385 0.00761369)
(0.000334956 0.00126706 0.00903549)
(-1.42027e-05 0.000463933 0.00803121)
(4.82829e-05 0.000520323 0.00764018)
(2.3366e-05 0.000329843 0.00662455)
(-7.39891e-06 0.00108884 0.00994304)
(0.000160542 0.00113688 0.00987487)
(-0.000402449 0.00110152 0.00986608)
(-0.000822744 0.0012971 0.00727272)
(0.000269572 0.00111914 0.0101621)
(-0.000318618 0.00161555 0.0104328)
(-0.00127702 0.00178576 0.0104917)
(-0.000365917 0.00178995 0.00929573)
(-0.000422506 0.000753662 0.0097291)
(-0.00106171 0.000930622 0.00993053)
(-0.00112433 0.00104515 0.0100804)
(-0.00124585 0.00184128 0.00792214)
(-0.0001592 0.000970157 0.0106968)
(0.00110939 0.000976363 0.0116963)
(0.000550478 0.000380327 0.007821)
(-0.000139218 0.00040804 0.00721662)
(-0.000885071 0.00028427 0.0108188)
(-0.000939908 0.000648498 0.0102811)
(-0.00182128 -0.00016964 0.0106291)
(-0.000164744 -0.000388567 0.00728676)
(-0.000416456 0.000181815 0.0102823)
(-0.000313226 0.000141509 0.010565)
(-0.00100399 -7.21044e-05 0.0101071)
(-0.000563529 -0.000483376 0.0103112)
(0.000685924 -0.000261827 0.0110835)
(-0.000483489 0.000799936 0.00976427)
(-0.000364174 1.21723e-05 0.00934376)
(-0.00043243 0.000339732 0.00842269)
(-0.000214993 0.000574882 0.00969558)
(-0.00150577 0.00113542 0.00943734)
(-0.000142556 0.000934251 0.0086849)
(9.85531e-05 0.00106278 0.00880429)
(-0.000498697 8.9193e-05 0.0111681)
(-0.000878034 0.000404272 0.011576)
(-0.000262292 1.34855e-05 0.00968391)
(0.000262855 -1.78925e-05 0.00871087)
(-0.000745904 2.0981e-05 0.011501)
(-0.00108643 0.000400367 0.0103106)
(-0.00026231 -0.000503189 0.0100288)
(-9.53647e-05 7.8846e-05 0.00909183)
(-0.000327034 0.000171731 0.0110962)
(-0.000708725 0.00054094 0.00967274)
(-0.000524913 -0.000125914 0.00849652)
(-0.00068366 0.000923467 0.00870106)
(-0.000133592 0.00016901 0.0109743)
(-0.000398393 0.000134898 0.00977184)
(-0.000765093 0.000624325 0.00863613)
(-0.000172096 0.000304699 0.00744514)
(-0.000426606 7.27248e-05 0.0120775)
(-0.000961003 0.00113192 0.0107123)
(-0.00146352 0.00115632 0.0101179)
(-0.000503852 0.00114307 0.00831154)
(-0.000475969 0.000333284 0.0114356)
(-0.000314343 0.00106661 0.0107896)
(-0.000640434 0.000631869 0.00923342)
(-0.000479338 0.000943204 0.00695917)
(-0.000139793 0.000322964 0.0112027)
(9.81121e-06 1.42459e-05 0.0101113)
(-0.000173451 -0.000291268 0.00859479)
(-4.40744e-05 -0.000639612 0.00619182)
(9.82156e-05 -0.000492929 0.0107545)
(0.000118135 -0.00031595 0.0100644)
(-0.000450689 -0.000724461 0.00855687)
(-8.00498e-05 -0.00053685 0.00550554)
(-0.000506319 -0.000137111 0.0117469)
(0.000393425 0.000306634 0.0102494)
(-0.000651635 0.00127943 0.0101178)
(-0.000592205 0.00231474 0.00836553)
(-0.000356735 0.000338842 0.0114197)
(0.000447676 0.000813076 0.0107876)
(0.00117908 -0.000419193 0.00910669)
(0.00489042 0.000940773 0.00495603)
(-0.000112564 -0.000295928 0.0118231)
(0.000957226 9.04645e-05 0.0102992)
(0.0020307 -0.000169949 0.00805781)
(-0.000215727 0.00035257 0.00667354)
(-0.000855518 0.000302538 0.0109901)
(0.0008637 0.0006672 0.00955867)
(0.000743839 0.000446076 0.0084354)
(0.000155842 0.000432445 0.00514785)
(0 0 0)
(0 0 0)
(0 0 0)
(0 0 0)
(0 0 0)
(0 0 0)
(0 0 0)
(0 0 0)
(0 0 0)
(0 0 0)
(0 0 0)
(0 0 0)
(0 0 0)
(0 0 0)
(0 0 0)
(0 0 0)
(0 0 0)
(0 0 0)
(0 0 0)
(0 0 0)
(0 0 0)
(0 0 0)
(0 0 0)
(0 0 0)
(0 0 0)
(0 0 0)
(0 0 0)
(0 0 0)
(0 0 0)
(0 0 0)
(0 0 0)
(0 0 0)
(0 0 0)
(0 0 0)
(0 0 0)
(0 0 0)
(0 0 0)
(0 0 0)
(0 0 0)
(0 0 0)
(0 0 0)
(0 0 0)
(0 0 0)
(0 0 0)
(0 0 0)
(0 0 0)
(0 0 0)
(0 0 0)
(0 0 0)
(0 0 0)
(0 0 0)
(0 0 0)
(0 0 0)
(0 0 0)
(0 0 0)
(0 0 0)
(0 0 0)
(0 0 0)
(0 0 0)
(0 0 0)
(0 0 0)
(0 0 0)
(0 0 0)
(0 0 0)
(0 0 0)
(0 0 0)
(0 0 0)
(0 0 0)
(0 0 0)
(0 0 0)
(0 0 0)
(0 0 0)
(0 0 0)
(0 0 0)
(0 0 0)
(0 0 0)
(0 0 0)
(0 0 0)
(0 0 0)
(0 0 0)
(0 0 0)
(0 0 0)
(0 0 0)
(0 0 0)
(0 0 0)
(0 0 0)
(0 0 0)
(0 0 0)
(0 0 0)
(0 0 0)
(0 0 0)
(0 0 0)
(0 0 0)
(0 0 0)
(0 0 0)
(0 0 0)
(0 0 0)
(0 0 0)
(0 0 0)
(0 0 0)
(0 0 0)
(0 0 0)
(0 0 0)
(0 0 0)
(0 0 0)
(0 0 0)
(0 0 0)
(0 0 0)
(0 0 0)
(0 0 0)
(0 0 0)
(0 0 0)
(0 0 0)
(0 0 0)
(0 0 0)
(0 0 0)
(0 0 0)
(0 0 0)
(0 0 0)
(0 0 0)
(0 0 0)
(0 0 0)
(0 0 0)
(0 0 0)
(0 0 0)
(0 0 0)
(0 0 0)
(0 0 0)
(0 0 0)
(0 0 0)
(0 0 0)
(0 0 0)
(0 0 0)
(0 0 0)
(0 0 0)
(0 0 0)
(0 0 0)
(0 0 0)
(0 0 0)
(0 0 0)
(0 0 0)
(0 0 0)
(0 0 0)
(0 0 0)
(0 0 0)
(0 0 0)
(0 0 0)
(0 0 0)
(0 0 0)
(0 0 0)
(0 0 0)
(0 0 0)
(0 0 0)
(0 0 0)
(0 0 0)
(0 0 0)
(0 0 0)
(0 0 0)
(0 0 0)
(0 0 0)
(0 0 0)
(0 0 0)
(0 0 0)
(0 0 0)
(0 0 0)
(0 0 0)
(0 0 0)
(0 0 0)
(0 0 0)
(0 0 0)
(0 0 0)
(0 0 0)
(0 0 0)
(0 0 0)
(0 0 0)
(0 0 0)
(0 0 0)
(0 0 0)
(0 0 0)
(0 0 0)
(0 0 0)
(0 0 0)
(0 0 0)
(0 0 0)
(0 0 0)
(0 0 0)
(0 0 0)
(0 0 0)
(0 0 0)
(0 0 0)
(0 0 0)
(0 0 0)
(0 0 0)
(0 0 0)
(0 0 0)
(0 0 0)
(0 0 0)
(0 0 0)
(0 0 0)
(0 0 0)
(0 0 0)
(0 0 0)
(0 0 0)
(0 0 0)
(0 0 0)
(0 0 0)
(0 0 0)
(0 0 0)
(0 0 0)
(0 0 0)
(0 0 0)
(0 0 0)
(0 0 0)
(0 0 0)
(0 0 0)
(0 0 0)
(0 0 0)
(0 0 0)
(0 0 0)
(0 0 0)
(0 0 0)
(0 0 0)
(0 0 0)
(0 0 0)
(0 0 0)
(0 0 0)
(0 0 0)
(0 0 0)
(0 0 0)
(0 0 0)
(0 0 0)
(0 0 0)
(0 0 0)
(0 0 0)
(0 0 0)
(0 0 0)
(0 0 0)
(0 0 0)
(0 0 0)
(0 0 0)
(0 0 0)
(0 0 0)
(0 0 0)
(0 0 0)
(0 0 0)
(0 0 0)
(0 0 0)
(0 0 0)
(0 0 0)
(0 0 0)
(0 0 0)
(0 0 0)
(0 0 0)
(0 0 0)
(0 0 0)
(0 0 0)
(0 0 0)
(0 0 0)
(0 0 0)
(0 0 0)
(0 0 0)
(0 0 0)
(0 0 0)
(0 0 0)
(0 0 0)
(0 0 0)
(0 0 0)
(0 0 0)
(0 0 0)
(0 0 0)
(0 0 0)
(0 0 0)
)
;

boundaryField
{
    inlet
    {
        type            zeroGradient;
    }
    outlet
    {
        type            zeroGradient;
    }
    wall
    {
        type            zeroGradient;
    }
    procBoundary3to1
    {
        type            processor;
        value           nonuniform List<vector> 
192
(
(-0.000289934 0.000212872 -5.90765e-05)
(0.000517197 0.000626435 -0.00079589)
(0.00116655 0.00165195 -8.79633e-05)
(0.00110803 0.00070795 0.000135973)
(0.000523864 0.000743643 0.010357)
(0.00176143 0.000407992 0.0100639)
(0.00228958 8.71311e-05 0.0111095)
(-0.000347508 0.00151896 0.0110458)
(0.000537359 0.000562751 0.0104786)
(0.000755444 -1.14628e-06 0.0104599)
(-0.00030049 0.000313347 0.0113306)
(0.000141737 0.000778687 0.0119248)
(0.000374165 3.8502e-05 0.0111865)
(0.000269115 0.000429099 0.0115751)
(-1.28389e-05 0.000381581 0.0114507)
(9.17718e-05 0.00075251 0.0120917)
(-4.84897e-05 0.000199575 0.0112153)
(-0.000134018 0.000336868 0.0112856)
(-0.0002553 0.000487794 0.0114963)
(-0.000367351 0.000626465 0.0119464)
(-0.000102632 0.00011946 0.0110921)
(-7.76383e-05 6.30079e-06 0.011383)
(-0.000143751 0.00035638 0.0114598)
(-0.000195435 0.000458393 0.0117782)
(-0.000224332 -6.66831e-05 0.0111054)
(-0.000275404 -0.000154404 0.0114803)
(-0.000416884 0.000282426 0.0115826)
(-0.00076309 0.000711167 0.0120793)
(0 0 0)
(-0.000396901 -8.55682e-05 0.0115007)
(-0.00119924 -0.000257627 0.0116175)
(0 0 0)
(0 0 0)
(0 0 0)
(0 0 0)
(0 0 0)
(0 0 0)
(0 0 0)
(0 0 0)
(0 0 0)
(0 0 0)
(0 0 0)
(0 0 0)
(0 0 0)
(0 0 0)
(0 0 0)
(0 0 0)
(0 0 0)
(0 0 0)
(0 0 0)
(0 0 0)
(0 0 0)
(0 0 0)
(0 0 0)
(0 0 0)
(0 0 0)
(0 0 0)
(0 0 0)
(0 0 0)
(0 0 0)
(0 0 0)
(0 0 0)
(0 0 0)
(0 0 0)
(0 0 0)
(0 0 0)
(0 0 0)
(0 0 0)
(0 0 0)
(0 0 0)
(0 0 0)
(0 0 0)
(0 0 0)
(0 0 0)
(0 0 0)
(0 0 0)
(0 0 0)
(0 0 0)
(0 0 0)
(0 0 0)
(0 0 0)
(0 0 0)
(0 0 0)
(0 0 0)
(0 0 0)
(0 0 0)
(0 0 0)
(0 0 0)
(0 0 0)
(0 0 0)
(0 0 0)
(0 0 0)
(0 0 0)
(0 0 0)
(0 0 0)
(0 0 0)
(0.000370227 -0.000323688 -0.000221451)
(-0.000245469 -0.000583903 0.000197751)
(-5.71194e-05 -0.000463481 -8.63034e-05)
(7.85424e-05 0.000140948 0.000605781)
(0.000491881 0.000559197 0.00995516)
(-0.000178079 0.00092625 0.0105094)
(-0.000859 0.00179666 0.00905898)
(-4.90676e-05 0.00290372 0.00941549)
(-0.000609461 0.000941436 0.0117341)
(6.19423e-05 0.00132152 0.0116373)
(-0.000103176 -0.000332985 0.0105248)
(-0.000297382 0.000587755 0.00771386)
(0.000241227 0.00194668 0.0114948)
(-0.00127635 0.00140154 0.0103883)
(-0.000954584 0.000751193 0.00981935)
(-0.000643118 0.000815576 0.00775884)
(-0.000151944 0.000716921 0.0115574)
(-0.000961746 0.000917633 0.0107065)
(-0.000690993 0.000911616 0.00984851)
(-0.000292836 0.00100655 0.00769912)
(-0.000430246 0.000143945 0.0116133)
(-0.000813819 0.000368686 0.0099011)
(0.000243532 0.000925821 0.00896068)
(0.000236912 0.00100989 0.00710664)
(0.00045068 -3.31817e-05 0.0118718)
(0.00198168 -0.00132732 0.00939933)
(0.000663785 0.000589099 0.00861312)
(0.000261136 0.000826304 0.00626915)
(0 0 0)
(0 0 0)
(0 0 0)
(0 0 0)
(0 0 0)
(0 0 0)
(0 0 0)
(0 0 0)
(0 0 0)
(0 0 0)
(0 0 0)
(0 0 0)
(0 0 0)
(0 0 0)
(0 0 0)
(0 0 0)
(0 0 0)
(0 0 0)
(0 0 0)
(0 0 0)
(0 0 0)
(0 0 0)
(0 0 0)
(0 0 0)
(0 0 0)
(0 0 0)
(0 0 0)
(0 0 0)
(0 0 0)
(0 0 0)
(0 0 0)
(0 0 0)
(0 0 0)
(0 0 0)
(0 0 0)
(0 0 0)
(0 0 0)
(0 0 0)
(0 0 0)
(0 0 0)
(0 0 0)
(0 0 0)
(0 0 0)
(0 0 0)
(0 0 0)
(0 0 0)
(0 0 0)
(0 0 0)
(0 0 0)
(0 0 0)
(0 0 0)
(0 0 0)
(0 0 0)
(0 0 0)
(0 0 0)
(0 0 0)
(0 0 0)
(0 0 0)
(0 0 0)
(0 0 0)
(0 0 0)
(0 0 0)
(0 0 0)
(0 0 0)
(0 0 0)
(0 0 0)
(0 0 0)
(0 0 0)
)
;
    }
    procBoundary3to2
    {
        type            processor;
        value           nonuniform List<vector> 
192
(
(-0.000105664 0.000307318 -0.000262319)
(-0.00028519 0.00103235 -0.000193784)
(-0.00075097 0.00090829 -0.00112054)
(-6.83933e-05 8.45091e-05 -0.000469294)
(0.000298134 -0.000835835 0.0101966)
(0.00102521 0.00029828 0.0106022)
(-0.000686138 0.00060186 0.0110834)
(0.000692517 0.00174468 0.00859312)
(5.04637e-05 -7.99103e-05 0.0107486)
(0.000986142 0.000136956 0.010336)
(0.000956323 -4.92131e-05 0.00996964)
(0.000793123 -6.95172e-05 0.0101518)
(0.000182373 -9.16474e-05 0.0109779)
(0.000390136 0.00016319 0.0114432)
(0.000205818 -0.000108592 0.01089)
(0.000374358 -0.000538586 0.0103361)
(-5.76542e-05 2.93747e-05 0.0111611)
(-0.00015207 0.00027319 0.0116016)
(-7.03591e-05 0.0001357 0.0113094)
(0.000266549 -0.000831538 0.0109035)
(-7.87031e-05 6.88359e-05 0.0111337)
(-4.30502e-05 -9.34567e-05 0.0114942)
(5.13609e-06 -0.000286499 0.0115143)
(4.91479e-05 -0.000475672 0.0112912)
(-0.000288522 4.88913e-06 0.0113405)
(-0.000661452 -0.000184904 0.0114467)
(-4.12128e-05 1.72219e-05 0.0116037)
(2.50997e-05 0.000223606 0.0107912)
(0 0 0)
(0 0 0)
(0 0 0)
(0 0 0)
(0 0 0)
(0 0 0)
(0 0 0)
(0 0 0)
(0 0 0)
(0 0 0)
(0 0 0)
(0 0 0)
(0 0 0)
(0 0 0)
(0 0 0)
(0 0 0)
(0 0 0)
(0 0 0)
(0 0 0)
(0 0 0)
(0 0 0)
(0 0 0)
(0 0 0)
(0 0 0)
(0 0 0)
(0 0 0)
(0 0 0)
(0 0 0)
(0 0 0)
(0 0 0)
(0 0 0)
(0 0 0)
(0 0 0)
(0 0 0)
(0 0 0)
(0 0 0)
(0 0 0)
(0 0 0)
(0 0 0)
(0 0 0)
(0 0 0)
(0 0 0)
(0 0 0)
(0 0 0)
(0 0 0)
(0 0 0)
(0 0 0)
(0 0 0)
(0 0 0)
(0 0 0)
(0 0 0)
(0 0 0)
(0 0 0)
(0 0 0)
(0 0 0)
(0 0 0)
(0 0 0)
(0 0 0)
(0 0 0)
(0 0 0)
(0 0 0)
(0 0 0)
(0 0 0)
(0 0 0)
(0 0 0)
(0 0 0)
(0 0 0)
(0 0 0)
(0.000208685 0.000114389 0.000124506)
(-0.00042906 0.000163179 -4.77178e-05)
(-0.000271739 -0.000322321 0.000565956)
(0.000408739 0.0001934 -1.36816e-05)
(0.000106126 0.00185883 0.0101265)
(0.000279783 1.52467e-05 0.0100575)
(-0.000312778 -0.000266927 0.0107811)
(-3.46152e-05 -0.000394512 0.00940797)
(0.000765875 -0.000718578 0.0113328)
(0.000825189 -0.000623508 0.0111635)
(0.000494675 -0.000723339 0.00967211)
(0.00150017 -0.000197526 0.0102875)
(0.000724611 -0.000897188 0.0104307)
(0.00085989 -2.43119e-05 0.0103279)
(0.000593563 0.00024736 0.00902856)
(0.00123205 -0.000178563 0.0074324)
(0.000207372 -0.0011298 0.0105996)
(0.00030284 -0.00108469 0.0100346)
(0.00067744 -0.0016224 0.0086065)
(-0.0021916 -0.000627225 0.00980408)
(6.6735e-05 -0.000605224 0.0107044)
(4.55046e-05 -5.38447e-05 0.010098)
(0.000286896 -0.000907329 0.0087116)
(0.00103318 -0.000989514 0.00795463)
(-0.000375218 0.000261369 0.0104427)
(-0.000322866 -0.000177196 0.00999304)
(-0.000118548 4.38785e-05 0.00870809)
(0.00106638 0.000258126 0.00588482)
(0 0 0)
(0 0 0)
(0 0 0)
(0 0 0)
(0 0 0)
(0 0 0)
(0 0 0)
(0 0 0)
(0 0 0)
(0 0 0)
(0 0 0)
(0 0 0)
(0 0 0)
(0 0 0)
(0 0 0)
(0 0 0)
(0 0 0)
(0 0 0)
(0 0 0)
(0 0 0)
(0 0 0)
(0 0 0)
(0 0 0)
(0 0 0)
(0 0 0)
(0 0 0)
(0 0 0)
(0 0 0)
(0 0 0)
(0 0 0)
(0 0 0)
(0 0 0)
(0 0 0)
(0 0 0)
(0 0 0)
(0 0 0)
(0 0 0)
(0 0 0)
(0 0 0)
(0 0 0)
(0 0 0)
(0 0 0)
(0 0 0)
(0 0 0)
(0 0 0)
(0 0 0)
(0 0 0)
(0 0 0)
(0 0 0)
(0 0 0)
(0 0 0)
(0 0 0)
(0 0 0)
(0 0 0)
(0 0 0)
(0 0 0)
(0 0 0)
(0 0 0)
(0 0 0)
(0 0 0)
(0 0 0)
(0 0 0)
(0 0 0)
(0 0 0)
(0 0 0)
(0 0 0)
(0 0 0)
(0 0 0)
)
;
    }
}


// ************************************************************************* //
