/*--------------------------------*- C++ -*----------------------------------*\
| =========                 |                                                 |
| \\      /  F ield         | OpenFOAM: The Open Source CFD Toolbox           |
|  \\    /   O peration     | Version:  2506                                  |
|   \\  /    A nd           | Website:  www.openfoam.com                      |
|    \\/     M anipulation  |                                                 |
\*---------------------------------------------------------------------------*/
FoamFile
{
    version     2.0;
    format      ascii;
    arch        "LSB;label=32;scalar=64";
    class       volScalarField;
    location    "0.08";
    object      voidfraction;
}
// * * * * * * * * * * * * * * * * * * * * * * * * * * * * * * * * * * * * * //

dimensions      [0 0 0 0 0 0 0];

internalField   nonuniform List<scalar> 
1152
(
0.420663
0.470697
0.560231
0.41013
0.518097
0.412763
0.420663
0.483863
0.507564
0.470697
0.43383
0.48123
0.40223
0.428563
0.470697
0.51283
0.44963
0.491764
0.43383
0.367996
0.41803
0.44173
0.452263
0.44173
0.39433
0.423296
0.475963
0.396963
0.470697
0.50493
0.45753
0.40223
0.370629
0.354829
0.428563
0.475963
0.44173
0.389063
0.42593
0.38643
0.381163
0.404863
0.360096
0.420663
0.423296
0.452263
0.362729
0.407496
0.41803
0.38643
0.378529
0.454897
0.42593
0.396963
0.349563
0.381163
0.339029
0.415396
0.41013
0.383796
0.475963
0.420663
0.439097
0.423296
0.468063
0.270562
0.431196
0.370629
0.44173
0.339029
0.412763
0.399596
0.39433
0.41803
0.336396
0.415396
0.389063
0.391696
0.454897
0.407496
0.412763
0.46543
0.41803
0.360096
0.439097
0.404863
0.439097
0.45753
0.40223
0.381163
0.40223
0.43383
0.48913
0.42593
0.373263
0.370629
0.644498
0.573397
0.602364
0.768265
0.604998
0.562864
0.676098
0.794599
0.647131
0.681365
0.702431
0.752465
0.678731
0.715598
0.781432
0.683998
1
1
1
1
1
1
1
1
1
1
1
1
1
1
1
1
1
1
1
1
1
1
1
1
1
1
1
1
1
1
1
1
1
1
1
1
1
1
1
1
1
1
1
1
1
1
1
1
1
1
1
1
1
1
1
1
1
1
1
1
1
1
1
1
1
1
1
1
1
1
1
1
1
1
1
1
1
1
1
1
1
1
1
1
1
1
1
1
1
1
1
1
1
1
1
1
1
1
1
1
1
1
1
1
1
1
1
1
1
1
1
1
1
1
1
1
1
1
1
1
1
1
1
1
1
1
1
1
1
1
1
1
1
1
1
1
1
1
1
1
1
1
1
1
1
1
1
1
1
1
1
1
1
1
1
1
1
1
1
1
1
1
1
1
1
1
1
1
1
1
1
1
1
1
1
1
1
1
1
1
1
1
1
1
1
1
1
1
1
1
1
1
1
1
1
1
1
1
1
1
1
1
1
1
1
1
1
1
1
1
1
1
1
1
1
1
1
1
1
1
1
1
1
1
1
1
1
1
1
1
1
1
1
1
1
1
1
1
1
1
1
1
1
1
1
1
1
1
1
1
1
1
1
1
1
1
1
1
1
1
1
1
1
1
1
1
1
1
1
1
1
1
0.481286
0.472155
0.460792
0.408562
0.451688
0.408828
0.446022
0.448733
0.450082
0.418565
0.485971
0.424505
0.436254
0.441626
0.486889
0.441554
0.426158
0.439672
0.435116
0.334084
0.442844
0.470557
0.426633
0.401586
0.45206
0.427022
0.456737
0.430693
0.416568
0.414946
0.406444
0.487417
0.30337
0.385534
0.422277
0.539993
0.347774
0.389834
0.362926
0.361691
0.368979
0.462965
0.420195
0.347154
0.423727
0.42638
0.434709
0.444252
0.396087
0.374707
0.39981
0.364752
0.343352
0.456311
0.387855
0.368945
0.359088
0.410107
0.439684
0.399753
0.40583
0.395889
0.482541
0.473928
0.456228
0.390948
0.470421
0.360371
0.418524
0.382712
0.412784
0.387079
0.434257
0.450279
0.41045
0.430693
0.395092
0.430192
0.434709
0.506302
0.411122
0.412603
0.457583
0.369133
0.352196
0.382712
0.446022
0.455987
0.499535
0.380507
0.446992
0.375
0.337823
0.403512
0.421663
0.452346
0.749414
0.734724
0.682253
0.684566
0.62193
0.779201
0.75071
0.73162
0.754713
0.608853
0.680863
0.650372
0.704705
0.660783
0.560812
0.654681
1
1
1
1
1
1
1
1
1
1
1
1
1
1
1
1
1
1
1
1
1
1
1
1
1
1
1
1
1
1
1
1
1
1
1
1
1
1
1
1
1
1
1
1
1
1
1
1
1
1
1
1
1
1
1
1
1
1
1
1
1
1
1
1
1
1
1
1
1
1
1
1
1
1
1
1
1
1
1
1
1
1
1
1
1
1
1
1
1
1
1
1
1
1
1
1
1
1
1
1
1
1
1
1
1
1
1
1
1
1
1
1
1
1
1
1
1
1
1
1
1
1
1
1
1
1
1
1
1
1
1
1
1
1
1
1
1
1
1
1
1
1
1
1
1
1
1
1
1
1
1
1
1
1
1
1
1
1
1
1
1
1
1
1
1
1
1
1
1
1
1
1
1
1
1
1
1
1
1
1
1
1
1
1
1
1
1
1
1
1
1
1
1
1
1
1
1
1
1
1
1
1
1
1
1
1
1
1
1
1
1
1
1
1
1
1
1
1
1
1
1
1
1
1
1
1
1
1
1
1
1
1
1
1
1
1
1
1
1
1
1
1
1
1
1
1
1
1
1
1
1
1
1
1
1
1
1
1
1
1
1
1
1
1
1
1
1
1
1
1
1
1
0.416134
0.471586
0.418432
0.411199
0.477569
0.430195
0.437593
0.489269
0.483259
0.437713
0.454301
0.399921
0.395419
0.44148
0.405941
0.44695
0.413628
0.411891
0.525251
0.411199
0.431552
0.43257
0.473537
0.4664
0.390182
0.454332
0.483535
0.402096
0.412943
0.437853
0.455446
0.441554
0.378546
0.376516
0.355132
0.443413
0.404483
0.375589
0.407993
0.414946
0.470421
0.382315
0.503024
0.417315
0.386657
0.423346
0.362624
0.417274
0.350982
0.403047
0.408541
0.436254
0.385534
0.404079
0.429136
0.443532
0.451164
0.404474
0.41045
0.462973
0.382276
0.434226
0.421411
0.460439
0.368523
0.414102
0.394694
0.414778
0.382827
0.38746
0.374164
0.390172
0.428697
0.304758
0.461609
0.439057
0.461134
0.401586
0.32859
0.417274
0.483792
0.442844
0.448104
0.46131
0.431552
0.392208
0.47988
0.43972
0.470421
0.390625
0.415322
0.365134
0.35599
0.361691
0.381189
0.47123
0.726861
0.747953
0.647894
0.693967
0.750965
0.743588
0.777997
0.74654
0.736815
0.76179
0.74664
0.695612
0.811616
0.673592
0.65656
0.681659
1
1
1
1
1
1
1
1
1
1
1
1
1
1
1
1
1
1
1
1
1
1
1
1
1
1
1
1
1
1
1
1
1
1
1
1
1
1
1
1
1
1
1
1
1
1
1
1
1
1
1
1
1
1
1
1
1
1
1
1
1
1
1
1
1
1
1
1
1
1
1
1
1
1
1
1
1
1
1
1
1
1
1
1
1
1
1
1
1
1
1
1
1
1
1
1
1
1
1
1
1
1
1
1
1
1
1
1
1
1
1
1
1
1
1
1
1
1
1
1
1
1
1
1
1
1
1
1
1
1
1
1
1
1
1
1
1
1
1
1
1
1
1
1
1
1
1
1
1
1
1
1
1
1
1
1
1
1
1
1
1
1
1
1
1
1
1
1
1
1
1
1
1
1
1
1
1
1
1
1
1
1
1
1
1
1
1
1
1
1
1
1
1
1
1
1
1
1
1
1
1
1
1
1
1
1
1
1
1
1
1
1
1
1
1
1
1
1
1
1
1
1
1
1
1
1
1
1
1
1
1
1
1
1
1
1
1
1
1
1
1
1
1
1
1
1
1
1
1
1
1
1
1
1
1
1
1
1
1
1
1
1
1
1
1
1
1
1
1
1
1
1
)
;

boundaryField
{
    inlet
    {
        type            fixedValue;
        value           uniform 1;
    }
    outlet
    {
        type            fixedValue;
        value           uniform 1;
    }
    wall
    {
        type            zeroGradient;
    }
    procBoundary3to1
    {
        type            processor;
        value           nonuniform List<scalar> 
192
(
0.494397
0.420663
0.38643
0.38643
0.391696
0.362729
0.462797
0.470697
0.42593
0.344296
0.420663
0.383796
0.423296
0.44963
0.439097
0.362729
0.354829
0.46543
0.336396
0.47333
0.354829
0.404863
0.360096
0.46543
0.44173
0.560231
0.507564
0.657665
1
0.9842
0.989467
1
1
1
1
1
1
1
1
1
1
1
1
1
1
1
1
1
1
1
1
1
1
1
1
1
1
1
1
1
1
1
1
1
1
1
1
1
1
1
1
1
1
1
1
1
1
1
1
1
1
1
1
1
1
1
1
1
1
1
1
1
1
1
1
1
0.486298
0.389782
0.519316
0.51142
0.466251
0.493696
0.418432
0.477417
0.426158
0.434
0.424366
0.375406
0.411122
0.361039
0.463929
0.370037
0.436181
0.418524
0.444148
0.389723
0.353487
0.38536
0.355132
0.371826
0.604074
0.743531
0.643938
0.636697
1
1
1
1
1
1
1
1
1
1
1
1
1
1
1
1
1
1
1
1
1
1
1
1
1
1
1
1
1
1
1
1
1
1
1
1
1
1
1
1
1
1
1
1
1
1
1
1
1
1
1
1
1
1
1
1
1
1
1
1
1
1
1
1
1
1
1
1
)
;
    }
    procBoundary3to2
    {
        type            processor;
        value           nonuniform List<scalar> 
192
(
0.470697
0.436463
0.378529
0.478597
0.462797
0.44173
0.462797
0.40223
0.38643
0.328496
0.323229
0.357463
0.452263
0.310062
0.44963
0.283729
0.378529
0.383796
0.41013
0.412763
0.415396
0.357463
0.415396
0.299529
0.583931
0.576031
0.660298
0.770899
1
1
1
1
1
1
1
1
1
1
1
1
1
1
1
1
1
1
1
1
1
1
1
1
1
1
1
1
1
1
1
1
1
1
1
1
1
1
1
1
1
1
1
1
1
1
1
1
1
1
1
1
1
1
1
1
1
1
1
1
1
1
1
1
1
1
1
1
0.496322
0.436211
0.442169
0.489944
0.391075
0.387571
0.456016
0.463099
0.483792
0.445055
0.367001
0.380775
0.41864
0.40968
0.519316
0.468468
0.328429
0.347774
0.396673
0.470258
0.333441
0.427367
0.341285
0.445203
0.639156
0.635195
0.618222
0.531107
1
1
1
1
1
1
1
1
1
1
1
1
1
1
1
1
1
1
1
1
1
1
1
1
1
1
1
1
1
1
1
1
1
1
1
1
1
1
1
1
1
1
1
1
1
1
1
1
1
1
1
1
1
1
1
1
1
1
1
1
1
1
1
1
1
1
1
1
)
;
    }
}


// ************************************************************************* //
