/*--------------------------------*- C++ -*----------------------------------*\
| =========                 |                                                 |
| \\      /  F ield         | OpenFOAM: The Open Source CFD Toolbox           |
|  \\    /   O peration     | Version:  2506                                  |
|   \\  /    A nd           | Website:  www.openfoam.com                      |
|    \\/     M anipulation  |                                                 |
\*---------------------------------------------------------------------------*/
FoamFile
{
    version     2.0;
    format      ascii;
    arch        "LSB;label=32;scalar=64";
    class       volScalarField;
    location    "0.08";
    object      Ksl;
}
// * * * * * * * * * * * * * * * * * * * * * * * * * * * * * * * * * * * * * //

dimensions      [1 -3 -1 0 0 0 0];

internalField   nonuniform List<scalar> 
1152
(
57032.7
151529
113550
2.62976e+06
43648.3
149807
119173
154883
478796
107371
130562
107064
149198
163954
147596
96262.5
107389
267089
132521
189490
167834
192921
277509
215973
2.84981e+06
126917
272250
173580
135628
259436
96423.3
2.63734e+06
709097
289177
263969
152531
3.40105e+06
212458
270180
357659
222395
280118
268700
285232
238301
223917
251239
183732
2.62547e+06
279767
184457
261173
161910
258424
247804
247223
378669
182931
250593
193008
139974
299847
165686
152447
9.81931e+06
109749
3.05089e+07
850864
333944
294877
133392
216196
270507
235544
263877
138916
218972
309437
396108
177045
111574
187068
193503
141279
115610
231178
241904
260750
490224
222209
282503
291999
131461
3.15299e+06
133531
110637
109574
132905
61328.5
67832.3
89155.6
59973.1
41406.9
34285.2
106337
120710
70174.2
35582.7
167253
156757
127288
65712.8
0
308.35
0
0
0
0
0
0
0
0
0
0
0
0
0
0
0
0
0
0
0
0
0
0
0
0
0
0
0
0
0
0
0
0
0
0
0
0
0
0
0
0
0
0
0
0
0
0
0
0
0
0
0
0
0
0
0
0
0
0
0
0
0
0
0
0
0
0
0
0
0
0
0
0
0
0
0
0
0
0
0
0
0
0
0
0
0
0
0
0
0
0
0
0
0
0
0
0
0
0
0
0
0
0
0
0
0
0
0
0
0
0
0
0
0
0
0
0
0
0
0
0
0
0
0
0
0
0
0
0
0
0
0
0
0
0
0
0
0
0
0
0
0
0
0
0
0
0
0
0
0
0
0
0
0
0
0
0
0
0
0
0
0
0
0
0
0
0
0
0
0
0
0
0
0
0
0
0
0
0
0
0
0
0
0
0
0
0
0
0
0
0
0
0
0
0
0
0
0
0
0
0
0
0
0
0
0
0
0
0
0
0
0
0
0
0
0
0
0
0
0
0
0
0
0
0
0
0
0
0
0
0
0
0
0
0
0
0
0
0
0
0
0
0
0
0
0
0
0
0
0
0
0
0
0
0
0
0
0
0
0
0
0
0
0
0
0
0
0
0
0
0
65310.5
142051
77297.3
168225
154933
226859
90406.9
148529
81687.4
107108
115792
88581.9
3.2304e+06
216005
118918
124749
528111
274514
202720
130871
153975
205869
755490
256032
204279
155354
128248
117414
111722
144682
329263
129515
296827
211165
210878
6.23375e+06
183946
179857
303294
135105
211776
1.16475e+06
135258
350866
334248
140025
234641
127226
534833
210201
644075
217784
324457
239522
194546
169194
197884
193607
210597
361180
234649
322232
247432
152367
290077
114051
252053
304566
123720
521239
201108
209434
1.83986e+06
134711
136790
424250
241906
272994
364531
164936
103442
551934
200440
1.01302e+06
2.53794e+06
152572
411341
181279
154370
196822
236602
251482
300408
185425
152175
228536
245069
52257
57707.6
82803.9
54199.9
92381.4
59807.2
60153.4
25080
34955
45114.6
54843.4
46949.2
52623.6
56047.4
56186.1
0
0
0
0
0
0
0
0
0
0
0
0
0
0
0
0
0
0
0
0
0
0
0
0
0
0
0
0
0
0
0
0
0
0
0
0
0
0
0
0
0
0
0
0
0
0
0
0
0
0
0
0
0
0
0
0
0
0
0
0
0
0
0
0
0
0
0
0
0
0
0
0
0
0
0
0
0
0
0
0
0
0
0
0
0
0
0
0
0
0
0
0
0
0
0
0
0
0
0
0
0
0
0
0
0
0
0
0
0
0
0
0
0
0
0
0
0
0
0
0
0
0
0
0
0
0
0
0
0
0
0
0
0
0
0
0
0
0
0
0
0
0
0
0
0
0
0
0
0
0
0
0
0
0
0
0
0
0
0
0
0
0
0
0
0
0
0
0
0
0
0
0
0
0
0
0
0
0
0
0
0
0
0
0
0
0
0
0
0
0
0
0
0
0
0
0
0
0
0
0
0
0
0
0
0
0
0
0
0
0
0
0
0
0
0
0
0
0
0
0
0
0
0
0
0
0
0
0
0
0
0
0
0
0
0
0
0
0
0
0
0
0
0
0
0
0
0
0
0
0
0
0
0
0
0
0
0
0
0
0
0
0
0
0
0
0
0
0
0
0
0
0
96061.3
57812.9
263912
183089
127883
120826
265826
135793
1.28811e+06
109938
102060
107708
66187
188879
86896.9
111709
127411
655679
123703
138927
261801
185487
124092
172024
165829
307583
561973
147556
235248
745537
224452
149250
258424
393142
221283
231345
200104
219382
220496
312399
223532
169220
290894
212181
112204
433759
159804
190681
206410
231431
145628
251835
281537
208640
208065
156288
336802
151430
285111
151716
335137
613221
331471
319996
176744
310957
409169
240701
325725
192391
173604
405982
400229
188108
474910
162877
169494
142066
194222
241398
156693
181108
111477
204826
270155
258298
210041
154614
303382
101112
363944
174024
5.70408e+06
3.78459e+06
251899
217862
60591.9
53745.1
55917.3
98242.6
62625.3
70100.4
21830.6
55951.7
61656.6
68977.6
83923.1
77261.8
109590
143480
75324.5
121326
0
0
0
0
0
0
0
0
0
0
0
0
0
0
0
0
0
0
0
0
0
0
0
0
0
0
0
0
0
0
0
0
0
0
0
0
0
0
0
0
0
0
0
0
0
0
0
0
0
0
0
0
0
0
0
0
0
0
0
0
0
0
0
0
0
0
0
0
0
0
0
0
0
0
0
0
0
0
0
0
0
0
0
0
0
0
0
0
0
0
0
0
0
0
0
0
0
0
0
0
0
0
0
0
0
0
0
0
0
0
0
0
0
0
0
0
0
0
0
0
0
0
0
0
0
0
0
0
0
0
0
0
0
0
0
0
0
0
0
0
0
0
0
0
0
0
0
0
0
0
0
0
0
0
0
0
0
0
0
0
0
0
0
0
0
0
0
0
0
0
0
0
0
0
0
0
0
0
0
0
0
0
0
0
0
0
0
0
0
0
0
0
0
0
0
0
0
0
0
0
0
0
0
0
0
0
0
0
0
0
0
0
0
0
0
0
0
0
0
0
0
0
0
0
0
0
0
0
0
0
0
0
0
0
0
0
0
0
0
0
0
0
0
0
0
0
0
0
0
0
0
0
0
0
0
0
0
0
0
0
0
0
0
0
0
0
0
0
0
0
0
0
)
;

boundaryField
{
    inlet
    {
        type            zeroGradient;
    }
    outlet
    {
        type            zeroGradient;
    }
    wall
    {
        type            zeroGradient;
    }
    procBoundary3to1
    {
        type            processor;
        value           nonuniform List<scalar> 
192
(
169880
101766
73582.4
60543.3
422053
343133
3.56557e+06
251243
154242
150655
127485
194462
6.74879e+06
270868
185675
804559
105685
7.65258e+06
114995
136061
361999
604824
208438
252153
547883
90177.1
20853.8
34774.7
47.7552
0
0
0
0
0
0
0
0
0
0
0
0
0
0
0
0
0
0
0
0
0
0
0
0
0
0
0
0
0
0
0
0
0
0
0
0
0
0
0
0
0
0
0
0
0
0
0
0
0
0
0
0
0
0
0
0
0
0
0
0
0
0
0
0
0
0
0
424592
191763
95777.1
93718.8
322808
473452
148141
481032
173082
232951
357089
106498
201524
235546
2.38204e+06
2.02927e+06
275555
173449
177664
97368.6
281117
195179
297053
382961
75517.1
49678.6
23211.3
18265.6
0
0
0
0
0
0
0
0
0
0
0
0
0
0
0
0
0
0
0
0
0
0
0
0
0
0
0
0
0
0
0
0
0
0
0
0
0
0
0
0
0
0
0
0
0
0
0
0
0
0
0
0
0
0
0
0
0
0
0
0
0
0
0
0
0
0
0
0
)
;
    }
    procBoundary3to2
    {
        type            processor;
        value           nonuniform List<scalar> 
192
(
251933
2.63814e+06
65671.3
96741.1
5.27707e+06
139949
156742
414933
139134
163317
266758
311455
101648
216358
149773
2.7126e+06
185069
301942
118424
840263
4.95772e+06
205713
301064
2.71497e+06
180992
134391
65783.7
262017
0
0
0
0
0
0
0
0
0
0
0
0
0
0
0
0
0
0
0
0
0
0
0
0
0
0
0
0
0
0
0
0
0
0
0
0
0
0
0
0
0
0
0
0
0
0
0
0
0
0
0
0
0
0
0
0
0
0
0
0
0
0
0
0
0
0
0
0
273073
141212
120781
116353
154613
303410
191562
267758
138416
260040
317483
249690
140345
199793
290542
168021
229813
803128
193686
226412
564494
106436
1.31272e+06
89472.5
51628.4
71092.6
2930.43
21632.1
0
0
0
0
0
0
0
0
0
0
0
0
0
0
0
0
0
0
0
0
0
0
0
0
0
0
0
0
0
0
0
0
0
0
0
0
0
0
0
0
0
0
0
0
0
0
0
0
0
0
0
0
0
0
0
0
0
0
0
0
0
0
0
0
0
0
0
0
)
;
    }
}


// ************************************************************************* //
