/*--------------------------------*- C++ -*----------------------------------*\
| =========                 |                                                 |
| \\      /  F ield         | OpenFOAM: The Open Source CFD Toolbox           |
|  \\    /   O peration     | Version:  2506                                  |
|   \\  /    A nd           | Website:  www.openfoam.com                      |
|    \\/     M anipulation  |                                                 |
\*---------------------------------------------------------------------------*/
FoamFile
{
    version     2.0;
    format      ascii;
    arch        "LSB;label=32;scalar=64";
    class       volScalarField;
    location    "0.08";
    object      p;
}
// * * * * * * * * * * * * * * * * * * * * * * * * * * * * * * * * * * * * * //

dimensions      [0 2 -2 0 0 0 0];

internalField   nonuniform List<scalar> 
1152
(
18.7178
18.9741
18.9525
19.2229
18.7277
18.932
19.0796
19.1532
19.0379
18.9068
19.0377
18.9952
18.9109
19.0116
18.7741
18.9082
16.5134
16.289
16.1248
16.0728
16.7625
16.3419
16.3298
16.299
16.1952
16.3165
16.3117
16.3617
16.1759
16.2019
16.2317
16.2219
13.3236
12.2483
12.0516
12.4415
12.7783
12.6429
12.275
12.5364
12.7466
12.8682
12.6498
12.7304
12.7007
12.8268
13.0945
12.8539
8.51055
6.60985
4.7982
7.87014
8.93657
8.27659
7.25087
8.16989
8.93544
8.74113
8.52701
8.54851
8.99966
8.99261
9.04769
9.0421
2.59924
4.36638
4.98636
4.565
4.92524
4.7633
4.83996
4.9278
5.34802
5.29212
5.12197
5.1633
5.2767
5.20696
5.12752
5.17189
3.45418
2.99118
4.08811
2.03977
2.49752
2.03321
1.93426
1.44748
2.12109
1.96654
1.71545
1.56945
2.12502
1.54197
1.91405
1.86517
1.06546
1.01921
1.09912
1.04245
1.0386
1.03452
1.05073
1.03268
1.01532
1.00947
1.02358
1.0274
1.00448
1.01544
1.01084
1.01729
1.00722
1.01112
1.01323
1.00924
1.00678
1.00859
1.00996
1.00797
1.00523
1.00553
1.00625
1.00531
1.00394
1.00399
1.00397
1.00237
1.01055
1.01243
1.01405
1.01236
1.01033
1.01175
1.01284
1.01175
1.00929
1.00979
1.01058
1.01038
1.00787
1.0089
1.00932
1.00944
1.00796
1.00841
1.00867
1.00809
1.00757
1.008
1.00823
1.00784
1.0071
1.00729
1.00744
1.00724
1.00658
1.00683
1.00688
1.00672
1.0074
1.00756
1.00757
1.00736
1.00725
1.00738
1.00742
1.00727
1.00706
1.00713
1.00714
1.00703
1.00686
1.00692
1.00692
1.00686
1.00667
1.0067
1.00667
1.00657
1.00659
1.00662
1.0066
1.00651
1.00648
1.00649
1.00647
1.0064
1.00638
1.00638
1.00636
1.0063
1.00608
1.00607
1.00603
1.00597
1.00602
1.00602
1.00599
1.00594
1.00596
1.00595
1.00592
1.00588
1.0059
1.00589
1.00586
1.00583
1.00552
1.0055
1.00547
1.00544
1.00549
1.00547
1.00544
1.00541
1.00545
1.00543
1.00541
1.00538
1.00541
1.00539
1.00537
1.00535
1.00498
1.00496
1.00494
1.00492
1.00496
1.00494
1.00492
1.0049
1.00493
1.00492
1.0049
1.00488
1.00491
1.00489
1.00488
1.00486
1.00445
1.00444
1.00442
1.00441
1.00443
1.00442
1.00441
1.00439
1.00442
1.00441
1.00439
1.00438
1.0044
1.00439
1.00438
1.00437
1.00393
1.00392
1.0039
1.00389
1.00391
1.0039
1.00389
1.00388
1.0039
1.00389
1.00388
1.00388
1.00389
1.00388
1.00387
1.00387
1.0034
1.00339
1.00339
1.00338
1.00339
1.00339
1.00338
1.00337
1.00339
1.00338
1.00337
1.00337
1.00338
1.00337
1.00336
1.00336
1.00288
1.00287
1.00287
1.00286
1.00287
1.00287
1.00286
1.00286
1.00287
1.00286
1.00286
1.00285
1.00286
1.00286
1.00285
1.00285
1.00236
1.00235
1.00235
1.00234
1.00235
1.00235
1.00234
1.00234
1.00235
1.00234
1.00234
1.00234
1.00234
1.00234
1.00234
1.00233
1.00183
1.00183
1.00183
1.00182
1.00183
1.00183
1.00182
1.00182
1.00183
1.00182
1.00182
1.00182
1.00182
1.00182
1.00182
1.00182
1.00131
1.00131
1.0013
1.0013
1.00131
1.0013
1.0013
1.0013
1.0013
1.0013
1.0013
1.0013
1.0013
1.0013
1.0013
1.0013
1.00078
1.00078
1.00078
1.00078
1.00078
1.00078
1.00078
1.00078
1.00078
1.00078
1.00078
1.00078
1.00078
1.00078
1.00078
1.00078
1.00026
1.00026
1.00026
1.00026
1.00026
1.00026
1.00026
1.00026
1.00026
1.00026
1.00026
1.00026
1.00026
1.00026
1.00026
1.00026
18.9046
19.0057
18.7886
18.849
18.9012
19.0533
18.8446
18.7998
18.7092
18.7997
18.7025
18.5879
18.6812
18.8519
18.7858
18.5496
16.5938
16.1762
16.3499
15.9797
16.2234
16.0632
16.3636
15.9817
16.4312
16.2352
16.1723
16.1757
16.222
15.9888
16.2552
16.0772
12.7943
12.6997
12.9697
13.1478
13.0168
12.8623
12.7458
12.7852
13.1119
13.1158
13.0332
13.2077
13.5611
13.3153
13.0091
13.1519
8.93853
8.61933
9.12075
9.45965
8.63063
9.08237
9.1416
9.50723
9.06754
8.86281
9.28337
9.62854
9.13521
9.75175
9.5274
9.7494
4.65886
5.10207
5.1233
5.45914
4.65007
4.98068
5.45546
5.56441
4.74957
5.11014
5.39091
5.62022
5.0975
4.98722
5.19999
5.86064
1.95647
1.8733
1.71765
1.55841
1.41187
1.74065
1.61277
1.70445
1.3188
1.59676
1.71245
1.63229
1.32091
1.52918
1.6724
1.82647
1.00152
1.03157
1.02074
1.01087
1.02546
1.01067
1.02005
1.01248
1.00207
1.02421
1.02607
1.01608
1.00242
1.02106
1.02142
1.01969
1.00265
1.0029
1.00328
1.00138
1.00183
1.00295
1.0032
1.00111
1.00095
1.00383
1.00333
1.00155
1.00192
1.00413
1.00332
1.00185
1.0077
1.0091
1.00924
1.00897
1.00848
1.00868
1.00924
1.00868
1.00829
1.00901
1.00947
1.00856
1.00803
1.00895
1.0094
1.00879
1.00636
1.00657
1.00664
1.00637
1.00639
1.00637
1.00654
1.00616
1.00624
1.00639
1.00652
1.00607
1.00603
1.00626
1.00637
1.00597
1.00673
1.00676
1.00681
1.00677
1.00667
1.00666
1.00673
1.00668
1.00661
1.00662
1.0067
1.0066
1.00656
1.00661
1.0067
1.0066
1.0063
1.00628
1.00628
1.00623
1.00625
1.00622
1.00622
1.00618
1.00622
1.00618
1.00619
1.00614
1.00617
1.00615
1.00617
1.00611
1.00585
1.00583
1.00582
1.0058
1.00582
1.00579
1.00579
1.00577
1.00579
1.00577
1.00577
1.00575
1.00577
1.00575
1.00576
1.00575
1.00538
1.00536
1.00535
1.00533
1.00535
1.00534
1.00533
1.00532
1.00534
1.00532
1.00531
1.00531
1.00532
1.00531
1.0053
1.0053
1.00489
1.00487
1.00486
1.00485
1.00487
1.00486
1.00485
1.00484
1.00486
1.00485
1.00484
1.00484
1.00485
1.00484
1.00484
1.00483
1.00439
1.00438
1.00437
1.00436
1.00438
1.00437
1.00436
1.00435
1.00437
1.00436
1.00435
1.00435
1.00436
1.00436
1.00435
1.00435
1.00388
1.00387
1.00387
1.00386
1.00387
1.00387
1.00386
1.00386
1.00387
1.00386
1.00386
1.00385
1.00387
1.00386
1.00385
1.00385
1.00337
1.00336
1.00336
1.00336
1.00337
1.00336
1.00336
1.00335
1.00336
1.00336
1.00335
1.00335
1.00336
1.00335
1.00335
1.00335
1.00286
1.00285
1.00285
1.00285
1.00285
1.00285
1.00285
1.00284
1.00285
1.00285
1.00284
1.00284
1.00285
1.00285
1.00284
1.00284
1.00234
1.00234
1.00233
1.00233
1.00234
1.00233
1.00233
1.00233
1.00234
1.00233
1.00233
1.00233
1.00233
1.00233
1.00233
1.00233
1.00182
1.00182
1.00182
1.00182
1.00182
1.00182
1.00182
1.00182
1.00182
1.00182
1.00182
1.00181
1.00182
1.00182
1.00181
1.00181
1.0013
1.0013
1.0013
1.0013
1.0013
1.0013
1.0013
1.0013
1.0013
1.0013
1.0013
1.0013
1.0013
1.0013
1.0013
1.0013
1.00078
1.00078
1.00078
1.00078
1.00078
1.00078
1.00078
1.00078
1.00078
1.00078
1.00078
1.00078
1.00078
1.00078
1.00078
1.00078
1.00026
1.00026
1.00026
1.00026
1.00026
1.00026
1.00026
1.00026
1.00026
1.00026
1.00026
1.00026
1.00026
1.00026
1.00026
1.00026
19.0098
19.0423
19.0923
19.1007
19.1571
19.0981
19.0669
19.0538
19.1764
19.1341
19.0682
18.9165
18.9071
19.002
18.8245
18.7492
16.4291
17.0627
16.4876
16.4249
16.3222
16.4009
16.3435
16.4324
16.1268
16.2693
16.5618
16.4806
16.2314
16.3022
16.3651
16.3611
12.7872
12.5648
13.1522
13.337
12.761
12.8163
13.1418
12.9287
12.8742
12.6243
12.7724
12.8731
13.0335
13.0123
13.1895
13.3143
8.50237
8.74781
9.05281
9.24955
8.90118
8.96407
9.09283
9.23522
9.11483
9.07365
9.20494
9.17996
9.33893
8.86191
9.43844
9.58794
4.86968
4.93954
5.02504
5.27374
5.08846
5.26029
5.32435
5.47691
5.16571
5.17659
5.51004
5.68509
5.12448
5.22789
5.38253
5.48109
1.76737
1.58833
1.6339
1.74528
1.47712
1.66669
1.39111
1.63931
1.59613
1.92501
1.79838
2.1108
1.75798
2.21883
2.04289
2.16632
1.02183
1.01062
1.00552
0.992325
1.01407
1.01061
1.01937
1.0146
1.01223
1.01692
1.01018
1.02092
1.0186
0.979096
1.00093
1.00481
1.00515
1.00179
0.999274
0.997947
1.00496
1.0028
1.00295
1.00185
1.00294
1.00153
1.00139
1.00156
0.999501
0.99779
0.999409
1.00038
1.01037
1.00885
1.00779
1.00687
1.01015
1.0093
1.00917
1.00888
1.00937
1.00921
1.00858
1.00888
1.00935
1.00928
1.00873
1.00849
1.00728
1.00655
1.006
1.00548
1.00717
1.00672
1.00652
1.00619
1.00673
1.00646
1.00622
1.0061
1.00646
1.00629
1.00611
1.00594
1.00701
1.00665
1.00639
1.00623
1.00699
1.00675
1.0066
1.00653
1.00684
1.00669
1.00657
1.00655
1.0068
1.00672
1.00663
1.00663
1.0064
1.00623
1.0061
1.00601
1.00638
1.00626
1.00617
1.00612
1.0063
1.00621
1.00614
1.0061
1.00623
1.00618
1.00614
1.00611
1.00589
1.0058
1.00574
1.0057
1.00587
1.00581
1.00576
1.00573
1.00583
1.00578
1.00575
1.00573
1.0058
1.00577
1.00575
1.00575
1.00539
1.00534
1.00531
1.00529
1.00538
1.00534
1.00531
1.0053
1.00535
1.00532
1.0053
1.00529
1.00533
1.00532
1.0053
1.0053
1.00489
1.00487
1.00485
1.00484
1.00488
1.00486
1.00485
1.00484
1.00486
1.00485
1.00484
1.00483
1.00485
1.00484
1.00484
1.00483
1.00439
1.00438
1.00437
1.00436
1.00438
1.00437
1.00436
1.00435
1.00437
1.00436
1.00435
1.00435
1.00436
1.00435
1.00435
1.00435
1.00388
1.00387
1.00387
1.00386
1.00387
1.00387
1.00386
1.00386
1.00387
1.00386
1.00386
1.00385
1.00386
1.00386
1.00385
1.00385
1.00337
1.00337
1.00336
1.00336
1.00337
1.00336
1.00336
1.00335
1.00336
1.00336
1.00335
1.00335
1.00336
1.00335
1.00335
1.00335
1.00286
1.00285
1.00285
1.00285
1.00285
1.00285
1.00285
1.00285
1.00285
1.00285
1.00284
1.00284
1.00285
1.00284
1.00284
1.00284
1.00234
1.00234
1.00234
1.00234
1.00234
1.00233
1.00233
1.00233
1.00233
1.00233
1.00233
1.00233
1.00233
1.00233
1.00233
1.00233
1.00182
1.00182
1.00182
1.00182
1.00182
1.00182
1.00182
1.00182
1.00182
1.00182
1.00182
1.00181
1.00182
1.00182
1.00181
1.00181
1.0013
1.0013
1.0013
1.0013
1.0013
1.0013
1.0013
1.0013
1.0013
1.0013
1.0013
1.0013
1.0013
1.0013
1.0013
1.0013
1.00078
1.00078
1.00078
1.00078
1.00078
1.00078
1.00078
1.00078
1.00078
1.00078
1.00078
1.00078
1.00078
1.00078
1.00078
1.00078
1.00026
1.00026
1.00026
1.00026
1.00026
1.00026
1.00026
1.00026
1.00026
1.00026
1.00026
1.00026
1.00026
1.00026
1.00026
1.00026
)
;

boundaryField
{
    inlet
    {
        type            zeroGradient;
    }
    outlet
    {
        type            fixedValue;
        value           uniform 1;
    }
    wall
    {
        type            zeroGradient;
    }
    procBoundary3to1
    {
        type            processor;
        value           nonuniform List<scalar> 
192
(
18.9979
19.0359
18.9815
19.0343
16.088
16.0979
16.2197
16.6785
11.3215
11.9019
12.0522
12.4336
6.81241
7.46136
7.48369
7.85693
5.47395
5.21882
4.93224
4.84961
3.34514
1.97509
1.67329
1.57535
0.9822
1.03652
1.05877
1.03666
1.01056
1.00975
1.01238
1.00864
1.00487
1.0109
1.01301
1.01197
1.00702
1.00822
1.00852
1.00805
1.00723
1.00752
1.00756
1.00737
1.00665
1.00672
1.0067
1.00659
1.0061
1.00609
1.00606
1.006
1.00554
1.00553
1.0055
1.00546
1.005
1.00498
1.00496
1.00494
1.00447
1.00445
1.00444
1.00442
1.00394
1.00393
1.00391
1.0039
1.00341
1.0034
1.00339
1.00339
1.00288
1.00288
1.00287
1.00287
1.00236
1.00236
1.00235
1.00235
1.00183
1.00183
1.00183
1.00183
1.00131
1.00131
1.00131
1.0013
1.00079
1.00078
1.00078
1.00078
1.00026
1.00026
1.00026
1.00026
19.402
19.3482
19.0978
19.1423
16.0523
16.4226
16.7191
16.3495
12.4597
12.5686
13.319
12.9416
8.68095
8.51316
8.06507
8.68376
5.08769
5.04549
5.10497
5.26582
1.57609
1.50945
1.21531
1.34519
1.01125
1.00339
0.997286
0.993719
1.0045
1.0006
0.997249
0.994588
1.00989
1.0086
1.00766
1.00717
1.00723
1.00657
1.00608
1.00574
1.00703
1.00671
1.00647
1.00636
1.00643
1.00629
1.00617
1.0061
1.00592
1.00584
1.00578
1.00575
1.00541
1.00537
1.00534
1.00533
1.00491
1.00489
1.00487
1.00486
1.0044
1.00439
1.00438
1.00437
1.00389
1.00388
1.00388
1.00387
1.00338
1.00337
1.00337
1.00337
1.00286
1.00286
1.00286
1.00285
1.00234
1.00234
1.00234
1.00234
1.00182
1.00182
1.00182
1.00182
1.0013
1.0013
1.0013
1.0013
1.00078
1.00078
1.00078
1.00078
1.00026
1.00026
1.00026
1.00026
)
;
    }
    procBoundary3to2
    {
        type            processor;
        value           nonuniform List<scalar> 
192
(
19.1415
18.8939
18.7554
18.8821
15.9396
16.0821
16.5266
16.4197
12.4707
12.7809
12.7198
12.7563
8.63141
8.98004
8.83101
9.2656
5.10169
5.35442
5.46935
5.38974
2.61104
2.37754
2.18601
1.65377
0.949337
0.990658
1.02292
0.983679
0.99776
1.00178
1.00418
1.00433
1.01181
1.00908
1.00934
1.00803
1.00818
1.00725
1.00711
1.00655
1.00749
1.00718
1.00706
1.00687
1.00672
1.00658
1.00649
1.0064
1.0061
1.00603
1.00598
1.00592
1.00554
1.0055
1.00546
1.00543
1.005
1.00497
1.00495
1.00492
1.00446
1.00445
1.00443
1.00441
1.00393
1.00392
1.00391
1.0039
1.00341
1.0034
1.00339
1.00338
1.00288
1.00288
1.00287
1.00287
1.00236
1.00236
1.00235
1.00235
1.00183
1.00183
1.00183
1.00183
1.00131
1.00131
1.00131
1.0013
1.00079
1.00078
1.00078
1.00078
1.00026
1.00026
1.00026
1.00026
18.9532
19.0354
18.8745
18.9007
16.037
16.2896
16.3975
16.3492
12.6853
12.6704
12.839
12.4806
9.28959
9.0618
8.77871
8.73241
5.58825
4.56614
4.84888
4.43112
1.45957
1.5573
0.888897
1.34019
1.02015
1.01024
1.01873
1.01359
1.0037
1.00316
1.00388
1.00422
1.00849
1.00871
1.00952
1.00933
1.0065
1.00644
1.00655
1.00645
1.00678
1.00673
1.00674
1.00673
1.00633
1.00629
1.00627
1.00624
1.00587
1.00584
1.00583
1.00581
1.0054
1.00538
1.00536
1.00535
1.0049
1.00489
1.00488
1.00487
1.0044
1.00439
1.00438
1.00438
1.00389
1.00388
1.00388
1.00388
1.00338
1.00337
1.00337
1.00337
1.00286
1.00286
1.00286
1.00285
1.00234
1.00234
1.00234
1.00234
1.00182
1.00182
1.00182
1.00182
1.0013
1.0013
1.0013
1.0013
1.00078
1.00078
1.00078
1.00078
1.00026
1.00026
1.00026
1.00026
)
;
    }
}


// ************************************************************************* //
