/*--------------------------------*- C++ -*----------------------------------*\
| =========                 |                                                 |
| \\      /  F ield         | OpenFOAM: The Open Source CFD Toolbox           |
|  \\    /   O peration     | Version:  2506                                  |
|   \\  /    A nd           | Website:  www.openfoam.com                      |
|    \\/     M anipulation  |                                                 |
\*---------------------------------------------------------------------------*/
FoamFile
{
    version     2.0;
    format      ascii;
    arch        "LSB;label=32;scalar=64";
    class       volVectorField;
    location    "0.08";
    object      stored_U;
}
// * * * * * * * * * * * * * * * * * * * * * * * * * * * * * * * * * * * * * //

dimensions      [0 1 -1 0 0 0 0];

internalField   nonuniform List<vector> 
1152
(
(0.00413007 0.0106092 0.0479987)
(-0.0021035 0.00125754 0.0161591)
(-0.00221763 -0.00175781 0.0231111)
(-0.000126296 -0.000544089 0.000510979)
(0.000690635 -0.0128997 0.0587025)
(-0.00309042 0.000153832 0.0165209)
(-0.00202335 -0.00156028 0.021949)
(0.000175459 0.00101992 0.0167924)
(-5.58658e-05 -0.0011072 0.00487629)
(-0.000156355 -0.0024367 0.0236077)
(-0.00103237 0.00218535 0.0180661)
(-0.00112439 0.00213699 0.0249291)
(-0.000415265 -0.000502298 0.0181737)
(0.00154964 -0.00202094 0.0155194)
(0.00108262 0.0016602 0.0166929)
(-0.00108923 0.00161904 0.0276297)
(-0.00636101 -0.0051875 0.0531726)
(1.48651e-05 -0.000931598 0.024333)
(0.00275893 -0.0010497 0.0529114)
(-0.00147147 0.00219008 0.0372903)
(-0.00321873 0.00127175 0.0370663)
(0.000852605 -0.000612947 0.0324311)
(0.00024945 -0.00148405 0.0230818)
(0.00166254 -0.00195591 0.0308895)
(-0.00018345 -0.00085474 0.00367827)
(-0.00173619 0.000877913 0.0501961)
(-0.000128651 -0.000193516 0.0235723)
(0.00315869 0.000531096 0.035325)
(0.0026896 -0.00645208 0.0472155)
(-0.000956934 -0.000297952 0.0264062)
(0.00039297 -0.00162477 0.0671718)
(-0.000215852 0.000690507 0.00358533)
(0.000776826 -0.00112055 0.0142191)
(0.00464672 -0.00249425 0.0289969)
(-0.00115966 -0.000839823 0.0367331)
(-0.0031605 -0.000155651 0.0555674)
(-0.000146312 -0.000399448 0.00671045)
(0.00332569 -0.00216339 0.0350375)
(0.000827094 -0.000921499 0.0303756)
(-0.00047035 -9.43618e-05 0.0228406)
(-0.000806796 0.00110184 0.0320198)
(0.000897916 -0.00039305 0.0274196)
(0.00212254 -0.00263317 0.0289635)
(0.000591439 -0.00067296 0.027313)
(-0.00114456 0.00111992 0.0320907)
(-0.00207121 0.00056501 0.0330121)
(0.000512401 -0.00181339 0.0308617)
(0.00137615 -0.004237 0.0405209)
(6.28196e-05 -0.000490536 0.00804294)
(0.00904337 -0.00211609 0.0265181)
(-0.0072176 0.00123605 0.0435385)
(-0.0086319 -0.000946506 0.0300581)
(0.00511159 -0.00074777 0.0502655)
(0.00747968 -0.00629019 0.0296091)
(0.00136122 -0.00948643 0.0307163)
(-0.00551937 -0.000166609 0.0315724)
(0.000249666 0.00155501 0.0223507)
(0.00356122 -0.00159953 0.0435553)
(0.0017165 -0.00551085 0.031638)
(-0.00243143 -0.00374195 0.0412664)
(0.00252757 0.00369033 0.0578786)
(0.000232837 0.00136676 0.0281942)
(0.000829155 -0.00288675 0.0499669)
(-2.72405e-05 -0.00746448 0.0557584)
(-9.56729e-05 0.000518668 0.00680089)
(-0.0106631 0.00413647 0.0547211)
(6.99106e-05 -0.000148311 0.00600033)
(0.00013537 0.000125207 0.0116444)
(0.00144261 -0.00367267 0.0230713)
(0.000859169 -0.00156005 0.0245093)
(0.000437945 -0.00203992 0.0510557)
(-0.00096718 -0.00255141 0.0331462)
(0.000945277 -0.000188922 0.0282323)
(0.00144808 -0.000180117 0.0306868)
(0.00106112 -0.000671424 0.0278052)
(0.00132399 -0.000538983 0.0551355)
(0.0018301 0.00508822 0.0335327)
(0.000801372 0.0014426 0.0245428)
(0.000342845 0.000425055 0.0195025)
(0.00398297 -0.00117166 0.0423051)
(-0.0141047 0.0078393 0.0343223)
(-0.00341377 -0.000478899 0.0254685)
(0.00562769 -0.00127973 0.0248634)
(0.0115433 0.00162533 0.0283333)
(0.00450371 0.0069339 0.0423152)
(0.00234077 0.00438489 0.0214566)
(0.00262771 0.00677583 0.0187765)
(0.00189974 0.00136842 0.0177668)
(0.000692953 0.00115784 0.012558)
(0.0016854 0.003397 0.0213377)
(0.00166612 -0.000337361 0.0173033)
(0.000682768 -0.0022008 0.016717)
(0.00481081 0.000701789 0.0369408)
(-4.51339e-06 0.000498852 0.00576803)
(-0.00670497 0.000185309 0.03363)
(-0.0173884 0.00192445 0.0386345)
(0.00223167 -0.00114538 0.0213134)
(0.000285581 0.000627069 0.0190924)
(0.000451992 0.000894158 0.0425998)
(0.00139919 0.000202741 0.0233212)
(0.000227758 0.00138923 0.0235736)
(0.000260201 0.000478067 0.0269753)
(0.000422298 0.00202987 0.0342876)
(0.00182164 0.000289381 0.0239162)
(0.000749841 0.00100397 0.0173868)
(0.000777966 0.000356235 0.0145432)
(8.88525e-06 0.000668715 0.0184833)
(0.00126947 0.000628658 0.0292214)
(-0.000716035 0.00039836 0.0116955)
(0.000637442 0.000110536 0.00794316)
(-0.000825933 0.000197565 0.0129208)
(0.00123665 0.000643949 0.0231631)
(0.00208281 0.0061617 0.0380505)
(0.0013321 0.00137171 0.0294141)
(0.00022559 0.00161923 0.0434236)
(0.00108385 0.000791071 0.0325633)
(-0.000113263 0.00189242 0.0369651)
(-4.45776e-06 0.000406508 0.0357693)
(8.52868e-06 0.000946524 0.0409785)
(0.00104018 0.000519502 0.0327728)
(-0.000330704 0.000869191 0.0221846)
(0.000245509 -0.000181292 0.0180011)
(0.000271704 0.00103194 0.0259065)
(0.000953998 0.00126369 0.0342677)
(-0.00173565 0.000310969 0.0129723)
(4.38576e-05 0.000671963 0.0227484)
(0.00113383 0.000689684 0.0200865)
(-0.000131542 0.00108942 0.0323902)
(0.00267377 -0.00514605 0.0122771)
(-0.00108737 -0.00157702 0.0101871)
(-0.000319045 -0.000310305 0.011591)
(0.000580914 -0.000173739 0.0100606)
(-0.000520039 0.000759081 0.0109114)
(-0.00136655 0.000976741 0.0105618)
(-0.00048943 0.000973315 0.011531)
(0.000499071 -9.50406e-05 0.0103102)
(0.000594941 0.000726019 0.00741258)
(-0.000952948 0.000807058 0.00708508)
(-0.00149885 0.00130828 0.00839397)
(-0.000973011 -1.32074e-05 0.00992493)
(0.000137443 -0.000960015 0.00609041)
(-0.000818507 -0.000845097 0.00716791)
(-0.00147873 -0.000324339 0.00718149)
(-0.0031017 1.55884e-05 0.00934231)
(0.00083417 -0.00118165 0.0183842)
(-0.000394228 -0.000311084 0.0185759)
(-0.000159791 -7.11004e-05 0.0190864)
(1.226e-06 -6.7459e-05 0.0186398)
(-0.000257873 0.000627382 0.0181619)
(-0.000716176 0.000626826 0.0186125)
(-0.000409353 0.000483049 0.0191321)
(-9.79652e-05 0.000123921 0.0188326)
(3.61008e-05 0.000373547 0.0169989)
(-0.000585166 0.000529015 0.017167)
(-0.000725761 0.000653102 0.0178491)
(-0.000507672 0.000332753 0.0185753)
(-2.24003e-05 -0.000619019 0.0167445)
(-0.000439137 -0.000310847 0.0172417)
(-0.000647491 -4.02945e-05 0.0174963)
(-0.000874265 0.00026997 0.0186063)
(0.000163936 -0.000325979 0.015847)
(-0.000256863 -0.000150474 0.0159524)
(-0.000183028 -0.000121191 0.0160181)
(-0.00017459 -0.000120429 0.0158935)
(-0.000164051 0.000145604 0.0155634)
(-0.000393878 0.000159549 0.0158019)
(-0.000318921 8.54995e-05 0.0159759)
(-0.000256013 -3.16994e-05 0.0159299)
(-6.97417e-05 -8.44634e-06 0.0151139)
(-0.000344579 9.33569e-05 0.0152548)
(-0.000414847 0.000121353 0.015475)
(-0.000390334 2.47725e-05 0.0156842)
(-4.74273e-05 -0.000437724 0.0150061)
(-0.000262984 -0.000265705 0.0151515)
(-0.000399048 -0.000180145 0.0152633)
(-0.000504408 -0.00012063 0.0155109)
(3.35833e-08 -0.000119228 0.0162296)
(-0.000145602 -8.60183e-05 0.0163081)
(-0.000129996 -8.84785e-05 0.0163246)
(-0.000148594 -8.11526e-05 0.0163038)
(-9.98042e-05 2.23776e-06 0.0161294)
(-0.000196774 1.45118e-05 0.0162468)
(-0.000180258 -5.13832e-06 0.0163167)
(-0.000174965 -2.2805e-05 0.0163298)
(-6.33145e-05 -8.12557e-05 0.0160033)
(-0.000167493 -2.19604e-05 0.0160788)
(-0.000188603 1.03644e-05 0.0161576)
(-0.000183451 1.96347e-05 0.0162317)
(-3.27858e-05 -0.000270267 0.0159964)
(-0.000104934 -0.000177361 0.0160408)
(-0.000141996 -0.000108882 0.0160895)
(-0.00015891 -3.88822e-05 0.0161724)
(-2.51758e-05 -6.66186e-05 0.0162116)
(-7.98316e-05 -6.3137e-05 0.0162502)
(-8.21286e-05 -6.68181e-05 0.0162538)
(-9.64805e-05 -6.06038e-05 0.0162466)
(-5.47805e-05 -4.16439e-05 0.0161766)
(-9.55118e-05 -3.49152e-05 0.0162257)
(-9.74163e-05 -3.71251e-05 0.0162473)
(-0.000103876 -3.50546e-05 0.0162478)
(-4.06594e-05 -8.24121e-05 0.0161396)
(-8.03228e-05 -5.40517e-05 0.0161689)
(-9.05651e-05 -3.41139e-05 0.0161837)
(-9.4305e-05 -1.82096e-05 0.0161855)
(-2.03676e-05 -0.000159734 0.0161407)
(-4.58799e-05 -0.000118574 0.0161453)
(-6.06963e-05 -8.43749e-05 0.0161363)
(-7.3978e-05 -5.41298e-05 0.0161187)
(-2.0475e-05 -4.83478e-05 0.0162236)
(-4.19673e-05 -4.96034e-05 0.0162395)
(-4.73759e-05 -5.06332e-05 0.0162378)
(-5.55139e-05 -4.55162e-05 0.0162272)
(-2.86629e-05 -4.67811e-05 0.0162134)
(-4.58793e-05 -4.26229e-05 0.016232)
(-4.96629e-05 -3.96925e-05 0.0162344)
(-5.47742e-05 -3.35148e-05 0.0162236)
(-2.18976e-05 -6.55751e-05 0.0162005)
(-3.64493e-05 -5.15619e-05 0.0162098)
(-4.13306e-05 -3.85223e-05 0.0162056)
(-4.39806e-05 -2.47771e-05 0.0161879)
(-1.03247e-05 -9.56926e-05 0.0161964)
(-1.75636e-05 -7.73264e-05 0.0161916)
(-2.18536e-05 -5.88258e-05 0.016172)
(-2.79318e-05 -4.13029e-05 0.016138)
(-1.3262e-05 -3.79343e-05 0.0162397)
(-2.24579e-05 -3.87106e-05 0.0162441)
(-2.71079e-05 -3.84019e-05 0.016238)
(-3.15778e-05 -3.46773e-05 0.0162217)
(-1.51732e-05 -3.99092e-05 0.0162372)
(-2.26058e-05 -3.75504e-05 0.0162417)
(-2.59213e-05 -3.43596e-05 0.016235)
(-2.90663e-05 -2.91466e-05 0.016216)
(-1.17941e-05 -4.80195e-05 0.0162297)
(-1.7205e-05 -4.13754e-05 0.0162289)
(-1.96762e-05 -3.35744e-05 0.0162161)
(-2.11146e-05 -2.48669e-05 0.016189)
(-5.50611e-06 -5.92687e-05 0.0162184)
(-7.20205e-06 -5.09628e-05 0.0162093)
(-8.50226e-06 -4.11533e-05 0.0161854)
(-1.0892e-05 -3.13309e-05 0.0161441)
(-7.90088e-06 -2.93448e-05 0.0162501)
(-1.2479e-05 -2.96656e-05 0.016249)
(-1.56256e-05 -2.9008e-05 0.0162396)
(-1.80673e-05 -2.64491e-05 0.016219)
(-8.35794e-06 -3.10331e-05 0.0162491)
(-1.18615e-05 -2.96568e-05 0.0162472)
(-1.40135e-05 -2.72957e-05 0.016236)
(-1.56879e-05 -2.37581e-05 0.0162122)
(-6.55922e-06 -3.42753e-05 0.0162413)
(-8.71721e-06 -3.10059e-05 0.0162361)
(-1.00269e-05 -2.65603e-05 0.0162196)
(-1.0602e-05 -2.13368e-05 0.0161883)
(-3.29186e-06 -3.79498e-05 0.0162246)
(-3.51754e-06 -3.40956e-05 0.016214)
(-3.71178e-06 -2.89554e-05 0.016189)
(-4.48736e-06 -2.33881e-05 0.0161459)
(-4.76437e-06 -2.22898e-05 0.0162559)
(-7.18755e-06 -2.23408e-05 0.0162523)
(-9.08819e-06 -2.173e-05 0.0162408)
(-1.03873e-05 -2.00288e-05 0.0162174)
(-4.833e-06 -2.31831e-05 0.0162544)
(-6.59667e-06 -2.23975e-05 0.0162498)
(-7.82871e-06 -2.08681e-05 0.0162362)
(-8.61331e-06 -1.8628e-05 0.0162096)
(-3.88492e-06 -2.42688e-05 0.0162453)
(-4.81042e-06 -2.2599e-05 0.0162381)
(-5.43013e-06 -2.01011e-05 0.0162198)
(-5.51118e-06 -1.70355e-05 0.0161866)
(-2.19179e-06 -2.49919e-05 0.016225)
(-2.04389e-06 -2.31283e-05 0.0162139)
(-1.87332e-06 -2.04223e-05 0.0161885)
(-2.07994e-06 -1.72763e-05 0.0161446)
(-2.98224e-06 -1.66607e-05 0.0162592)
(-4.27286e-06 -1.65957e-05 0.0162544)
(-5.35645e-06 -1.60935e-05 0.0162415)
(-6.0049e-06 -1.49755e-05 0.0162165)
(-2.94514e-06 -1.69926e-05 0.0162568)
(-3.82787e-06 -1.65347e-05 0.0162509)
(-4.47875e-06 -1.55874e-05 0.0162361)
(-4.79363e-06 -1.41224e-05 0.0162079)
(-2.43703e-06 -1.71444e-05 0.0162463)
(-2.82496e-06 -1.6261e-05 0.0162382)
(-3.00397e-06 -1.48561e-05 0.0162191)
(-2.88181e-06 -1.30414e-05 0.0161848)
(-1.5412e-06 -1.68026e-05 0.0162236)
(-1.3071e-06 -1.58695e-05 0.0162123)
(-1.02245e-06 -1.44088e-05 0.0161868)
(-9.61093e-07 -1.26592e-05 0.0161425)
(-1.92323e-06 -1.22389e-05 0.016261)
(-2.63069e-06 -1.21525e-05 0.0162555)
(-3.19834e-06 -1.17837e-05 0.0162419)
(-3.49957e-06 -1.10136e-05 0.0162158)
(-1.87247e-06 -1.23029e-05 0.0162577)
(-2.31911e-06 -1.20169e-05 0.0162513)
(-2.59464e-06 -1.14208e-05 0.0162356)
(-2.68369e-06 -1.04762e-05 0.0162066)
(-1.58974e-06 -1.20867e-05 0.0162461)
(-1.72501e-06 -1.15958e-05 0.0162376)
(-1.69876e-06 -1.0779e-05 0.016218)
(-1.50903e-06 -9.72084e-06 0.016183)
(-1.1008e-06 -1.14496e-05 0.0162219)
(-8.68804e-07 -1.09643e-05 0.0162105)
(-5.74811e-07 -1.01585e-05 0.0161849)
(-4.08134e-07 -9.16972e-06 0.0161404)
(-1.24074e-06 -8.79471e-06 0.0162619)
(-1.6435e-06 -8.72707e-06 0.0162561)
(-1.92569e-06 -8.47514e-06 0.016242)
(-2.05688e-06 -7.94791e-06 0.0162154)
(-1.2067e-06 -8.76094e-06 0.0162579)
(-1.43199e-06 -8.58187e-06 0.0162512)
(-1.52224e-06 -8.20747e-06 0.0162351)
(-1.51255e-06 -7.60301e-06 0.0162056)
(-1.05168e-06 -8.44719e-06 0.0162455)
(-1.07775e-06 -8.1694e-06 0.0162368)
(-9.7681e-07 -7.68809e-06 0.0162169)
(-7.83832e-07 -7.06222e-06 0.0161816)
(-7.78224e-07 -7.82237e-06 0.0162204)
(-5.83425e-07 -7.56355e-06 0.0162088)
(-3.23688e-07 -7.10853e-06 0.0161831)
(-1.38713e-07 -6.53646e-06 0.0161385)
(-7.68281e-07 -6.10756e-06 0.0162623)
(-1.00416e-06 -6.0698e-06 0.0162563)
(-1.14393e-06 -5.90618e-06 0.016242)
(-1.19692e-06 -5.55716e-06 0.016215)
(-7.57643e-07 -6.05248e-06 0.0162578)
(-8.71359e-07 -5.94916e-06 0.0162509)
(-8.82004e-07 -5.71849e-06 0.0162347)
(-8.37253e-07 -5.33435e-06 0.0162048)
(-6.77358e-07 -5.76619e-06 0.0162448)
(-6.63774e-07 -5.61074e-06 0.016236)
(-5.50352e-07 -5.32765e-06 0.0162159)
(-3.8215e-07 -4.95557e-06 0.0161804)
(-5.23208e-07 -5.26392e-06 0.0162191)
(-3.7588e-07 -5.12475e-06 0.0162075)
(-1.6794e-07 -4.86505e-06 0.0161817)
(-7.88712e-09 -4.53175e-06 0.0161371)
(-4.09306e-07 -3.98346e-06 0.0162625)
(-5.51953e-07 -3.96928e-06 0.0162564)
(-6.23532e-07 -3.86905e-06 0.0162419)
(-6.45563e-07 -3.64652e-06 0.0162148)
(-4.13605e-07 -3.94207e-06 0.0162576)
(-4.74195e-07 -3.88616e-06 0.0162506)
(-4.60765e-07 -3.74929e-06 0.0162343)
(-4.16995e-07 -3.51222e-06 0.0162043)
(-3.74756e-07 -3.72944e-06 0.0162443)
(-3.55712e-07 -3.64487e-06 0.0162354)
(-2.63672e-07 -3.48208e-06 0.0162152)
(-1.40353e-07 -3.26533e-06 0.0161796)
(-2.89928e-07 -3.37547e-06 0.0162181)
(-1.90935e-07 -3.30289e-06 0.0162065)
(-4.3573e-08 -3.15745e-06 0.0161807)
(7.01319e-08 -2.96808e-06 0.016136)
(-8.10915e-08 -2.27523e-06 0.0162625)
(-1.67398e-07 -2.27041e-06 0.0162564)
(-2.10638e-07 -2.21437e-06 0.0162419)
(-2.30703e-07 -2.08564e-06 0.0162146)
(-8.76956e-08 -2.25684e-06 0.0162575)
(-1.24171e-07 -2.2278e-06 0.0162504)
(-1.18679e-07 -2.15307e-06 0.016234)
(-1.01091e-07 -2.02044e-06 0.016204)
(-7.10953e-08 -2.12887e-06 0.0162438)
(-6.15534e-08 -2.08763e-06 0.0162349)
(-1.14984e-08 -2.00296e-06 0.0162147)
(5.26719e-08 -1.88837e-06 0.0161791)
(-2.98634e-08 -1.91932e-06 0.0162175)
(2.35117e-08 -1.88728e-06 0.0162058)
(1.03521e-07 -1.81458e-06 0.01618)
(1.61276e-07 -1.71796e-06 0.0161353)
(2.69665e-07 -1.03619e-06 0.0162626)
(2.24275e-07 -1.03176e-06 0.0162565)
(1.84488e-07 -1.00507e-06 0.0162419)
(1.43545e-07 -9.48624e-07 0.0162146)
(2.66387e-07 -1.03593e-06 0.0162574)
(2.43497e-07 -1.02572e-06 0.0162503)
(2.22991e-07 -9.95313e-07 0.0162339)
(1.96514e-07 -9.41362e-07 0.0162039)
(2.68213e-07 -9.84218e-07 0.0162436)
(2.66608e-07 -9.748e-07 0.0162347)
(2.64973e-07 -9.45754e-07 0.0162145)
(2.56312e-07 -9.03242e-07 0.0161789)
(2.77017e-07 -8.91949e-07 0.0162171)
(2.95107e-07 -8.90365e-07 0.0162055)
(3.07942e-07 -8.69544e-07 0.0161797)
(3.05394e-07 -8.36445e-07 0.016135)
(0.00110388 -0.000963035 0.0350383)
(0.00170238 -0.0012716 0.0161159)
(0.00572046 -0.00302101 0.0323002)
(0.000207584 0.00137162 0.0154369)
(0.000692069 0.00122507 0.0151757)
(0.0010911 0.00136411 0.010987)
(0.00472304 7.18595e-05 0.0254324)
(0.00139193 0.00324925 0.0164991)
(0.00299614 0.0040164 0.0306552)
(0.00155874 0.0019071 0.0224968)
(0.00324587 -6.37096e-05 0.0218656)
(0.00334031 0.00554694 0.0270278)
(-0.000344788 -6.68766e-05 -0.000387305)
(6.43748e-05 -0.000288796 0.0116016)
(0.002968 -0.0024548 0.0211284)
(0.00278375 -0.000602997 0.0201722)
(0.000485532 -0.000692097 0.0115645)
(0.00196226 0.000358229 0.0222854)
(0.0017904 -0.00153569 0.0312583)
(0.00304421 0.00318429 0.046349)
(0.00314469 0.00133331 0.0421612)
(-0.000587894 4.93837e-05 0.0307401)
(0.000340328 0.00183362 0.0081142)
(0.000780508 -0.000323564 0.0240921)
(0.00276602 -0.000165347 0.031754)
(0.00277884 1.11074e-05 0.0402618)
(0.00169284 0.00201321 0.0489058)
(-0.000609088 0.00020883 0.052323)
(0.00558635 0.00301018 0.0533195)
(0.00160462 0.00272313 0.0429133)
(0.000107682 0.000442849 0.0179052)
(0.00175998 0.00136696 0.0476727)
(0.000320635 -0.00126835 0.0257486)
(-0.00110628 -0.000748264 0.0363881)
(-0.00163081 0.00286831 0.0341177)
(0.000260786 -0.00130761 0.0058258)
(-0.00126991 -0.00252311 0.0446488)
(0.00119515 -0.00434222 0.0412061)
(-0.000307345 -0.000871307 0.0258787)
(-0.00154855 -0.000714608 0.0535447)
(-0.0020716 -0.00450493 0.0360081)
(0.000101994 -0.00138327 0.0105683)
(-0.00180092 -0.00354608 0.0553652)
(-0.000360037 -0.00216455 0.0213987)
(-0.00266689 -0.00274436 0.0234543)
(0.00324145 -0.00289841 0.050619)
(0.00108282 -9.64028e-05 0.032101)
(-0.000670408 0.00169004 0.056381)
(0.00116359 0.00197324 0.0179062)
(-0.00116658 0.000340496 0.0378822)
(-0.00132981 -0.000107549 0.0144312)
(-0.000984144 -0.0034098 0.0361545)
(0.000192331 -3.65255e-05 0.0265691)
(-0.00270876 -0.000611229 0.0337115)
(-0.0022245 -0.00123055 0.0392112)
(0.000609011 -0.00494754 0.0467489)
(-0.00116767 -0.0031431 0.0432849)
(-0.00252075 -0.00459268 0.0423697)
(-0.00404844 -0.00250815 0.0378896)
(-0.00140701 -0.00209581 0.0222529)
(-0.00423177 -0.000839571 0.0359454)
(-0.00321279 -0.00283023 0.0243678)
(-0.000288416 -0.00195375 0.030461)
(-0.00107248 -0.00219384 0.0534561)
(0.00236545 0.00376897 0.0260261)
(-0.0052522 0.00435178 0.0667213)
(-0.00162278 -0.000682618 0.0293302)
(0.000176877 -0.00303338 0.0244434)
(-0.00314245 -0.000314155 0.0655058)
(-0.00148583 0.000945242 0.0166574)
(-0.00298791 -0.00106167 0.0374538)
(0.00141826 -0.00420647 0.036388)
(-0.000316631 -0.000536287 0.00773865)
(-0.00430554 0.00114112 0.0573934)
(-0.00132377 0.00242183 0.0581207)
(-0.000354443 -0.00208717 0.0182022)
(-0.00235099 -0.00168333 0.030354)
(-0.000871207 0.000581505 0.0273933)
(-0.00130683 0.0010768 0.0200238)
(-0.00307417 -0.00238338 0.0476448)
(-0.00399463 0.00800565 0.0435742)
(0.000747665 -0.000987373 0.0107066)
(0.00202648 0.00152284 0.0221637)
(-0.000651109 0.000982397 0.00704689)
(-0.000142286 0.000214991 0.00647162)
(0.000538185 0.00234291 0.0283832)
(0.000277404 -0.000179791 0.0126043)
(-0.000623817 -0.000196962 0.0246108)
(-0.00319511 0.00277139 0.0262707)
(-0.00155279 0.00211306 0.0238036)
(5.52245e-05 -0.000753523 0.0198088)
(-0.00121465 -0.000575502 0.0181358)
(-0.000485376 -0.000331343 0.0147959)
(-0.00112748 0.000306042 0.0225517)
(-0.00179706 0.00105765 0.0285898)
(-0.00229146 -0.000440216 0.0205852)
(-0.000144523 0.000185091 0.00939627)
(-0.000147884 0.00158939 0.0262603)
(0.00131908 -0.000206224 0.0209394)
(0.00146266 -0.000408426 0.0133034)
(0.000109269 -0.000338743 0.0164846)
(-6.7656e-05 0.00031354 0.0150201)
(0.000792682 1.26129e-05 0.0186666)
(0.000550894 -0.00025949 0.0185071)
(0.00135996 0.00298377 0.0273376)
(-0.00103011 1.47074e-05 0.02932)
(0.00105071 -0.000838443 0.0257309)
(0.000282035 -0.000493338 0.0188123)
(0.00131204 0.000129095 0.0141114)
(6.40368e-05 0.00044914 0.0179317)
(-2.28028e-05 -0.00015169 0.0196548)
(0.00025913 -0.000106681 0.0218617)
(-0.00103762 0.00262172 0.0115967)
(0.000655154 0.00295022 0.0302917)
(0.000527997 0.00100927 0.0255635)
(3.26565e-05 0.00124769 0.0282451)
(-0.000931182 0.00281383 0.0549348)
(-0.000805842 0.00194418 0.0258846)
(-0.000437313 0.000664976 0.0265327)
(0.000119222 0.00101355 0.0280628)
(-0.00161499 0.00166292 0.0479205)
(-0.000997262 0.000620705 0.0331887)
(-0.000238233 0.000565645 0.0313045)
(0.00043562 0.000428167 0.0273674)
(-0.000219726 0.000611527 0.0266834)
(-0.000626293 0.000407869 0.0241072)
(-0.000275657 0.000527293 0.0280985)
(0.000239385 0.000135397 0.0279448)
(-5.77613e-05 -0.00421763 0.00763864)
(-0.000276368 -0.00104756 0.00783057)
(-0.000960966 -0.000654482 0.00767384)
(-0.00202932 0.00100082 0.00847723)
(0.000711016 -0.00411225 0.0149906)
(0.00204242 -0.00146525 0.00847842)
(-0.000527299 -0.00066809 0.00799999)
(-0.00115312 0.00110096 0.00811657)
(0.00183396 0.00118247 0.0147761)
(0.00236652 -0.000149994 0.00957606)
(5.50977e-05 -0.000170441 0.00882165)
(-0.000299848 0.000570923 0.00775218)
(0.0017964 0.00158664 0.00918588)
(0.00115894 0.000442842 0.00749786)
(-0.000276649 0.00030794 0.00815859)
(-0.000168889 0.000166872 0.00758492)
(1.40466e-05 -0.00208662 0.0178437)
(3.26461e-05 -0.00078073 0.0178104)
(-0.000259051 -0.000380137 0.0178676)
(-0.000501053 0.000349621 0.0184276)
(0.000373835 -0.00204326 0.0214176)
(0.00101649 -0.000894977 0.0185571)
(5.70753e-05 -0.000443039 0.0182088)
(-0.000172531 0.000347295 0.0183244)
(0.00085148 0.000270174 0.0219064)
(0.00130722 -0.000114026 0.0189519)
(0.000366556 -0.000100398 0.018467)
(0.000153851 0.000284991 0.0180798)
(0.000957682 0.000598232 0.0195896)
(0.000861844 0.000130411 0.0179796)
(0.000262336 3.59863e-05 0.0181362)
(0.000150512 8.16133e-05 0.0179104)
(1.09068e-05 -0.00095338 0.0154995)
(-5.44316e-05 -0.000474985 0.0153532)
(-0.000264826 -0.000266125 0.0153237)
(-0.00033439 -4.32275e-05 0.0153539)
(0.000182719 -0.000919012 0.0166737)
(0.000310464 -0.000468804 0.0156338)
(-0.000111488 -0.000238984 0.0153952)
(-0.000195632 2.74245e-05 0.0152216)
(0.000388951 -0.000165082 0.0169206)
(0.000471681 -0.000200014 0.0157088)
(1.25258e-05 -0.000135442 0.0153885)
(-9.42179e-05 1.80677e-05 0.0150283)
(0.000473755 7.33537e-05 0.0160591)
(0.000371764 -6.0269e-05 0.015245)
(3.04665e-05 -5.23472e-05 0.0151188)
(-4.34168e-05 -5.1539e-07 0.0148075)
(1.67136e-05 -0.000461347 0.0162028)
(1.05011e-05 -0.000279732 0.0161276)
(-4.66716e-05 -0.000161601 0.0161203)
(-7.89052e-05 -3.9766e-05 0.016141)
(0.000101834 -0.000424049 0.0165677)
(0.000163293 -0.000261638 0.0162162)
(3.84693e-05 -0.000147933 0.016123)
(-1.92944e-05 -2.15765e-05 0.0160756)
(0.000197361 -0.00013899 0.0166496)
(0.000257981 -0.000123289 0.0161988)
(0.000112973 -8.25121e-05 0.0160672)
(3.33999e-05 7.49113e-07 0.0159662)
(0.000254026 -7.63591e-06 0.0163752)
(0.000256035 -5.6764e-05 0.0160234)
(0.000135757 -6.25788e-05 0.0159431)
(5.07596e-05 -1.91166e-05 0.0158542)
(8.07266e-06 -0.000223786 0.0162122)
(5.80021e-06 -0.000156028 0.0161637)
(-1.73764e-05 -9.92054e-05 0.0161154)
(-3.29725e-05 -5.0666e-05 0.0160586)
(4.96087e-05 -0.000204047 0.0163101)
(6.9021e-05 -0.000143805 0.0161666)
(2.55002e-05 -8.94948e-05 0.0160695)
(-5.26975e-06 -3.81948e-05 0.0159822)
(9.34439e-05 -0.000101772 0.0162982)
(0.000116128 -8.95898e-05 0.0161063)
(6.15418e-05 -6.44312e-05 0.0159807)
(1.50343e-05 -2.91889e-05 0.0158728)
(0.000123867 -2.88006e-05 0.0161324)
(0.00013211 -4.89474e-05 0.015956)
(8.13238e-05 -5.10227e-05 0.0158401)
(3.02603e-05 -2.99632e-05 0.0157401)
(4.78585e-06 -0.000115708 0.0162071)
(6.55803e-06 -8.91687e-05 0.0161792)
(3.50507e-07 -6.10898e-05 0.0161385)
(-6.56416e-06 -3.79154e-05 0.0160862)
(2.4683e-05 -0.000103665 0.0162064)
(3.44522e-05 -8.04976e-05 0.0161441)
(2.25971e-05 -5.45046e-05 0.0160792)
(7.98642e-06 -3.08442e-05 0.0160151)
(4.50772e-05 -6.21197e-05 0.0161484)
(5.7422e-05 -5.55499e-05 0.0160658)
(4.18078e-05 -4.22213e-05 0.0159859)
(1.87485e-05 -2.49172e-05 0.0159174)
(6.06454e-05 -2.20671e-05 0.0160168)
(7.13868e-05 -3.21046e-05 0.0159371)
(5.57353e-05 -3.52129e-05 0.0158599)
(2.78803e-05 -2.51939e-05 0.0158007)
(2.30762e-06 -6.43034e-05 0.0162007)
(4.45647e-06 -5.30647e-05 0.0161803)
(3.25236e-06 -3.92142e-05 0.016143)
(2.44173e-07 -2.76767e-05 0.0160899)
(1.19271e-05 -5.60887e-05 0.0161618)
(1.74632e-05 -4.68147e-05 0.0161273)
(1.4607e-05 -3.44932e-05 0.0160766)
(7.91507e-06 -2.38421e-05 0.0160188)
(2.17059e-05 -3.59909e-05 0.0160822)
(2.88979e-05 -3.35247e-05 0.0160388)
(2.46921e-05 -2.71116e-05 0.0159803)
(1.34464e-05 -1.97424e-05 0.0159228)
(2.97474e-05 -1.35037e-05 0.0159542)
(3.77146e-05 -1.92466e-05 0.0159114)
(3.30557e-05 -2.19038e-05 0.0158547)
(1.90245e-05 -1.84201e-05 0.015807)
(6.9441e-07 -3.79664e-05 0.0161936)
(2.36842e-06 -3.28481e-05 0.0161763)
(2.60987e-06 -2.59033e-05 0.0161418)
(1.51518e-06 -1.99685e-05 0.0160897)
(5.45655e-06 -3.21641e-05 0.0161391)
(8.80951e-06 -2.82611e-05 0.0161148)
(8.63904e-06 -2.24126e-05 0.0160724)
(5.93473e-06 -1.74341e-05 0.0160189)
(1.03664e-05 -2.10757e-05 0.0160492)
(1.47735e-05 -2.02971e-05 0.0160209)
(1.41768e-05 -1.74867e-05 0.0159748)
(9.20264e-06 -1.42372e-05 0.0159241)
(1.4721e-05 -7.96511e-06 0.0159188)
(2.00466e-05 -1.13202e-05 0.0158918)
(1.92826e-05 -1.35301e-05 0.0158491)
(1.27924e-05 -1.26669e-05 0.0158094)
(-1.61325e-07 -2.35336e-05 0.0161874)
(1.03294e-06 -2.10585e-05 0.0161714)
(1.59243e-06 -1.75189e-05 0.0161385)
(1.3344e-06 -1.43706e-05 0.0160871)
(2.27095e-06 -1.93844e-05 0.0161258)
(4.39947e-06 -1.76586e-05 0.0161055)
(4.94005e-06 -1.48842e-05 0.0160675)
(4.0568e-06 -1.25462e-05 0.0160162)
(4.8462e-06 -1.27033e-05 0.0160308)
(7.67027e-06 -1.25366e-05 0.0160087)
(8.11871e-06 -1.1365e-05 0.015969)
(6.12071e-06 -1.01112e-05 0.0159216)
(7.31085e-06 -4.7492e-06 0.0158982)
(1.08616e-05 -6.75412e-06 0.0158781)
(1.12987e-05 -8.37711e-06 0.0158431)
(8.4831e-06 -8.62456e-06 0.0158072)
(-4.84826e-07 -1.51315e-05 0.0161826)
(3.70447e-07 -1.38765e-05 0.0161672)
(9.42873e-07 -1.20321e-05 0.0161351)
(1.04589e-06 -1.03343e-05 0.0160841)
(7.89918e-07 -1.2155e-05 0.0161174)
(2.2187e-06 -1.13661e-05 0.016099)
(2.8775e-06 -1.00674e-05 0.016063)
(2.77832e-06 -8.99055e-06 0.016013)
(2.20869e-06 -7.89506e-06 0.0160199)
(4.09934e-06 -7.9116e-06 0.0160004)
(4.77296e-06 -7.51892e-06 0.0159641)
(4.12131e-06 -7.16361e-06 0.0159185)
(3.67566e-06 -2.90282e-06 0.0158859)
(6.07442e-06 -4.11125e-06 0.0158688)
(6.78217e-06 -5.29429e-06 0.0158378)
(5.69429e-06 -5.91567e-06 0.0158041)
(-5.30934e-07 -9.98618e-06 0.016179)
(8.52383e-08 -9.31637e-06 0.0161639)
(5.7667e-07 -8.33286e-06 0.0161321)
(8.04436e-07 -7.41083e-06 0.0160813)
(1.66795e-07 -7.85336e-06 0.0161119)
(1.14786e-06 -7.48731e-06 0.0160942)
(1.73308e-06 -6.89025e-06 0.0160594)
(1.92554e-06 -6.42029e-06 0.01601)
(9.80749e-07 -5.03745e-06 0.016013)
(2.26905e-06 -5.11076e-06 0.0159947)
(2.90133e-06 -5.05443e-06 0.01596)
(2.82061e-06 -5.07457e-06 0.0159155)
(1.88517e-06 -1.82097e-06 0.0158783)
(3.51655e-06 -2.56791e-06 0.0158625)
(4.19513e-06 -3.4257e-06 0.0158336)
(3.88085e-06 -4.09543e-06 0.0158011)
(-4.60432e-07 -6.67451e-06 0.0161763)
(-2.13626e-08 -6.30267e-06 0.0161613)
(3.72183e-07 -5.76417e-06 0.0161297)
(6.13774e-07 -5.25629e-06 0.016079)
(-6.35676e-08 -5.16483e-06 0.0161082)
(6.13802e-07 -4.99289e-06 0.0160909)
(1.08415e-06 -4.7264e-06 0.0160565)
(1.34608e-06 -4.53932e-06 0.0160076)
(4.22905e-07 -3.27341e-06 0.0160085)
(1.30298e-06 -3.35199e-06 0.0159908)
(1.82024e-06 -3.42157e-06 0.015957)
(1.94656e-06 -3.5697e-06 0.015913)
(9.95971e-07 -1.16564e-06 0.0158733)
(2.10238e-06 -1.63827e-06 0.0158582)
(2.66285e-06 -2.25273e-06 0.0158304)
(2.66114e-06 -2.83621e-06 0.0157986)
(-3.42695e-07 -4.42852e-06 0.0161743)
(-3.88014e-08 -4.21799e-06 0.0161593)
(2.5866e-07 -3.91801e-06 0.0161279)
(4.62869e-07 -3.63701e-06 0.0160772)
(-1.12316e-07 -3.38983e-06 0.0161056)
(3.48183e-07 -3.31024e-06 0.0160885)
(7.01366e-07 -3.19717e-06 0.0160544)
(9.3589e-07 -3.13569e-06 0.0160057)
(1.85036e-07 -2.12925e-06 0.0160055)
(7.76362e-07 -2.19721e-06 0.015988)
(1.16616e-06 -2.29627e-06 0.0159547)
(1.33337e-06 -2.46012e-06 0.015911)
(5.50714e-07 -7.49866e-07 0.0158701)
(1.28779e-06 -1.05348e-06 0.0158553)
(1.71188e-06 -1.48271e-06 0.015828)
(1.80793e-06 -1.93636e-06 0.0157967)
(-1.90302e-07 -2.81639e-06 0.0161729)
(6.98806e-09 -2.70087e-06 0.016158)
(2.11468e-07 -2.53696e-06 0.0161266)
(3.55024e-07 -2.38523e-06 0.016076)
(-5.99732e-08 -2.14352e-06 0.0161039)
(2.3697e-07 -2.11184e-06 0.0160868)
(4.77589e-07 -2.07035e-06 0.0160529)
(6.45495e-07 -2.05939e-06 0.0160043)
(1.16809e-07 -1.34159e-06 0.0160035)
(4.94543e-07 -1.39611e-06 0.0159862)
(7.59341e-07 -1.48698e-06 0.0159531)
(8.94e-07 -1.62049e-06 0.0159097)
(3.43421e-07 -4.71835e-07 0.0158679)
(8.09762e-07 -6.6614e-07 0.0158534)
(1.0968e-06 -9.53748e-07 0.0158264)
(1.19288e-06 -1.27388e-06 0.0157953)
(1.79689e-08 -1.59755e-06 0.0161721)
(1.27608e-07 -1.54563e-06 0.0161571)
(2.39984e-07 -1.46781e-06 0.0161257)
(3.1097e-07 -1.39456e-06 0.0160752)
(8.1653e-08 -1.21673e-06 0.0161028)
(2.47454e-07 -1.21665e-06 0.0160858)
(3.79025e-07 -1.21166e-06 0.016052)
(4.61412e-07 -1.21797e-06 0.0160035)
(1.73485e-07 -7.67641e-07 0.0160023)
(3.82408e-07 -8.16366e-07 0.0159851)
(5.25618e-07 -8.87871e-07 0.0159521)
(5.90394e-07 -9.74992e-07 0.0159088)
(2.97253e-07 -2.77485e-07 0.0158667)
(5.53068e-07 -4.0439e-07 0.0158522)
(7.06445e-07 -5.84495e-07 0.0158254)
(7.49934e-07 -7.78754e-07 0.0157944)
(2.88748e-07 -7.5002e-07 0.0161716)
(3.31441e-07 -7.46508e-07 0.0161567)
(3.60038e-07 -7.3107e-07 0.0161253)
(3.60296e-07 -7.11177e-07 0.0160748)
(3.06945e-07 -5.79722e-07 0.0161022)
(3.73126e-07 -6.06522e-07 0.0160853)
(4.07206e-07 -6.29018e-07 0.0160515)
(4.05154e-07 -6.45637e-07 0.0160031)
(3.37333e-07 -3.75338e-07 0.0160017)
(4.19732e-07 -4.33606e-07 0.0159845)
(4.53789e-07 -4.95083e-07 0.0159516)
(4.38886e-07 -5.47677e-07 0.0159084)
(3.82728e-07 -1.49561e-07 0.015866)
(4.8224e-07 -2.48166e-07 0.0158516)
(5.15575e-07 -3.59847e-07 0.0158249)
(4.86038e-07 -4.60219e-07 0.015794)
(0.00511763 0.00264519 0.0265841)
(0.00265378 0.00287671 0.037253)
(0.00151617 9.56291e-05 0.00850873)
(0.00099209 -0.000684073 0.0137837)
(0.00258969 -0.00292784 0.0203411)
(0.00312127 -0.00145296 0.0208587)
(0.000881712 -0.00146133 0.00853738)
(8.32282e-05 -0.000288146 0.0177925)
(-0.00038764 -0.000379741 0.0015305)
(0.00210216 -0.000668925 0.0231728)
(0.00318743 0.00083857 0.0227501)
(0.00194467 0.00146743 0.0235554)
(-0.00507033 0.00374789 0.0402208)
(0.000293003 0.00116991 0.0122956)
(0.00331463 0.00530216 0.0274329)
(0.000259277 0.00223713 0.0221847)
(-0.00853434 -0.00455234 0.0505097)
(0.00222894 -0.00108502 0.00969187)
(0.0115507 0.00148093 0.0547576)
(0.00172593 -0.00435068 0.0499822)
(0.00125992 0.000869547 0.0247488)
(0.00163905 0.00425862 0.0355698)
(0.00242923 -0.00247169 0.0528124)
(0.00032837 -0.00295524 0.038351)
(0.00207656 0.000256385 0.0404426)
(-0.0010256 -0.000707475 0.0201382)
(0.000490258 -0.00142005 0.0103955)
(0.0013449 -0.00121868 0.0429657)