/*--------------------------------*- C++ -*----------------------------------*\
| =========                 |                                                 |
| \\      /  F ield         | OpenFOAM: The Open Source CFD Toolbox           |
|  \\    /   O peration     | Version:  2506                                  |
|   \\  /    A nd           | Website:  www.openfoam.com                      |
|    \\/     M anipulation  |                                                 |
\*---------------------------------------------------------------------------*/
FoamFile
{
    version     2.0;
    format      ascii;
    arch        "LSB;label=32;scalar=64";
    class       volScalarField;
    location    "0.08";
    object      voidfraction;
}
// * * * * * * * * * * * * * * * * * * * * * * * * * * * * * * * * * * * * * //

dimensions      [0 0 0 0 0 0 0];

internalField   nonuniform List<scalar> 
1152
(
0.560231
0.428563
0.415396
0.341663
0.560231
0.42593
0.436463
0.431196
0.341663
0.446997
0.41013
0.47333
0.44963
0.423296
0.46543
0.470697
0.518097
0.41803
0.475963
0.439097
0.452263
0.43383
0.404863
0.404863
0.404863
0.462797
0.412763
0.439097
0.44173
0.41803
0.48913
0.378529
0.378529
0.360096
0.381163
0.454897
0.346929
0.396963
0.357463
0.378529
0.396963
0.39433
0.378529
0.383796
0.40223
0.412763
0.41803
0.43383
0.241595
0.357463
0.431196
0.375896
0.423296
0.365363
0.396963
0.389063
0.375896
0.42593
0.407496
0.436463
0.454897
0.389063
0.43383
0.45753
0.331129
0.499664
0.391696
0.344296
0.346929
0.39433
0.462797
0.40223
0.40223
0.38643
0.40223
0.46543
0.412763
0.365363
0.362729
0.444363
0.499664
0.446997
0.40223
0.446997
0.478597
0.399596
0.396963
0.396963
0.370629
0.370629
0.381163
0.391696
0.446997
0.310062
0.444363
0.46543
0.494397
0.49703
0.562864
0.657665
0.578664
0.649764
0.702431
0.786699
0.554964
0.560231
0.662931
0.728765
0.478597
0.710332
0.581297
0.620798
1
0.997367
1
1
1
1
1
1
1
1
1
1
1
1
1
1
1
1
1
1
1
1
1
1
1
1
1
1
1
1
1
1
1
1
1
1
1
1
1
1
1
1
1
1
1
1
1
1
1
1
1
1
1
1
1
1
1
1
1
1
1
1
1
1
1
1
1
1
1
1
1
1
1
1
1
1
1
1
1
1
1
1
1
1
1
1
1
1
1
1
1
1
1
1
1
1
1
1
1
1
1
1
1
1
1
1
1
1
1
1
1
1
1
1
1
1
1
1
1
1
1
1
1
1
1
1
1
1
1
1
1
1
1
1
1
1
1
1
1
1
1
1
1
1
1
1
1
1
1
1
1
1
1
1
1
1
1
1
1
1
1
1
1
1
1
1
1
1
1
1
1
1
1
1
1
1
1
1
1
1
1
1
1
1
1
1
1
1
1
1
1
1
1
1
1
1
1
1
1
1
1
1
1
1
1
1
1
1
1
1
1
1
1
1
1
1
1
1
1
1
1
1
1
1
1
1
1
1
1
1
1
1
1
1
1
1
1
1
1
1
1
1
1
1
1
1
1
1
1
1
1
1
1
1
1
1
1
1
1
1
1
1
1
1
1
1
1
1
1
1
1
1
0.471263
0.401776
0.489678
0.421705
0.394203
0.392208
0.437713
0.401586
0.505469
0.437593
0.459173
0.480198
0.380775
0.3997
0.465147
0.479324
0.381052
0.390948
0.444744
0.452372
0.449477
0.420699
0.379545
0.412466
0.444148
0.452394
0.478662
0.477104
0.502472
0.470212
0.417315
0.492813
0.398593
0.412603
0.396601
0.334084
0.40968
0.439692
0.390625
0.466867
0.416454
0.346678
0.466482
0.421411
0.387933
0.475929
0.423838
0.492813
0.343464
0.418017
0.342038
0.3998
0.38536
0.404079
0.432173
0.448733
0.394695
0.427022
0.434812
0.381189
0.396882
0.371115
0.408618
0.455043
0.393581
0.488396
0.383763
0.369133
0.460531
0.385086
0.421093
0.401586
0.343263
0.467194
0.456737
0.371906
0.377195
0.361586
0.380354
0.430763
0.498828
0.385534
0.40623
0.334084
0.354407
0.439692
0.371235
0.401586
0.424366
0.427022
0.415322
0.387377
0.387933
0.42638
0.439057
0.401087
0.523886
0.626448
0.634109
0.653899
0.710367
0.629627
0.687003
0.666339
0.711194
0.737826
0.693044
0.706065
0.778081
0.717954
0.68909
0.66817
1
1
1
1
1
1
1
1
1
1
1
1
1
1
1
1
1
1
1
1
1
1
1
1
1
1
1
1
1
1
1
1
1
1
1
1
1
1
1
1
1
1
1
1
1
1
1
1
1
1
1
1
1
1
1
1
1
1
1
1
1
1
1
1
1
1
1
1
1
1
1
1
1
1
1
1
1
1
1
1
1
1
1
1
1
1
1
1
1
1
1
1
1
1
1
1
1
1
1
1
1
1
1
1
1
1
1
1
1
1
1
1
1
1
1
1
1
1
1
1
1
1
1
1
1
1
1
1
1
1
1
1
1
1
1
1
1
1
1
1
1
1
1
1
1
1
1
1
1
1
1
1
1
1
1
1
1
1
1
1
1
1
1
1
1
1
1
1
1
1
1
1
1
1
1
1
1
1
1
1
1
1
1
1
1
1
1
1
1
1
1
1
1
1
1
1
1
1
1
1
1
1
1
1
1
1
1
1
1
1
1
1
1
1
1
1
1
1
1
1
1
1
1
1
1
1
1
1
1
1
1
1
1
1
1
1
1
1
1
1
1
1
1
1
1
1
1
1
1
1
1
1
1
1
1
1
1
1
1
1
1
1
1
1
1
1
1
1
1
1
1
1
0.488804
0.524649
0.418432
0.436254
0.431552
0.444441
0.420679
0.441626
0.3292
0.426633
0.432375
0.478192
0.48742
0.390705
0.45854
0.490115
0.476275
0.358828
0.477776
0.473837
0.41531
0.413576
0.486223
0.449249
0.419068
0.382315
0.373908
0.452102
0.421705
0.368945
0.427599
0.479324
0.401099
0.356617
0.412498
0.434465
0.418017
0.420699
0.418565
0.3997
0.422277
0.434943
0.376344
0.421663
0.491801
0.376198
0.430693
0.449648
0.411122
0.411891
0.45206
0.432675
0.390948
0.425447
0.429136
0.451155
0.377343
0.451562
0.408014
0.469496
0.360371
0.321797
0.35953
0.392994
0.41864
0.383149
0.372935
0.396882
0.350345
0.423073
0.420679
0.371115
0.358086
0.432173
0.369035
0.439057
0.44361
0.459614
0.409035
0.406483
0.451216
0.438422
0.467885
0.409409
0.377414
0.408828
0.422793
0.43972
0.386972
0.484801
0.376344
0.432534
0.329703
0.350811
0.393565
0.428065
0.649179
0.690469
0.693391
0.643856
0.710362
0.669988
0.824512
0.702709
0.669414
0.637145
0.629704
0.599948
0.566279
0.524895
0.585396
0.544071
1
1
1
1
1
1
1
1
1
1
1
1
1
1
1
1
1
1
1
1
1
1
1
1
1
1
1
1
1
1
1
1
1
1
1
1
1
1
1
1
1
1
1
1
1
1
1
1
1
1
1
1
1
1
1
1
1
1
1
1
1
1
1
1
1
1
1
1
1
1
1
1
1
1
1
1
1
1
1
1
1
1
1
1
1
1
1
1
1
1
1
1
1
1
1
1
1
1
1
1
1
1
1
1
1
1
1
1
1
1
1
1
1
1
1
1
1
1
1
1
1
1
1
1
1
1
1
1
1
1
1
1
1
1
1
1
1
1
1
1
1
1
1
1
1
1
1
1
1
1
1
1
1
1
1
1
1
1
1
1
1
1
1
1
1
1
1
1
1
1
1
1
1
1
1
1
1
1
1
1
1
1
1
1
1
1
1
1
1
1
1
1
1
1
1
1
1
1
1
1
1
1
1
1
1
1
1
1
1
1
1
1
1
1
1
1
1
1
1
1
1
1
1
1
1
1
1
1
1
1
1
1
1
1
1
1
1
1
1
1
1
1
1
1
1
1
1
1
1
1
1
1
1
1
1
1
1
1
1
1
1
1
1
1
1
1
1
1
1
1
1
1
)
;

boundaryField
{
    inlet
    {
        type            fixedValue;
        value           uniform 1;
    }
    outlet
    {
        type            fixedValue;
        value           uniform 1;
    }
    wall
    {
        type            zeroGradient;
    }
    procBoundary3to1
    {
        type            processor;
        value           nonuniform List<scalar> 
192
(
0.420663
0.428563
0.49703
0.51283
0.331129
0.41803
0.328496
0.420663
0.38643
0.44963
0.483863
0.412763
0.328496
0.396963
0.42593
0.341663
0.50493
0.344296
0.44963
0.470697
0.344296
0.328496
0.42593
0.396963
0.45753
0.604998
0.794599
0.752465
0.997367
1
1
1
1
1
1
1
1
1
1
1
1
1
1
1
1
1
1
1
1
1
1
1
1
1
1
1
1
1
1
1
1
1
1
1
1
1
1
1
1
1
1
1
1
1
1
1
1
1
1
1
1
1
1
1
1
1
1
1
1
1
1
1
1
1
1
1
0.343464
0.389782
0.473819
0.46131
0.373534
0.356617
0.444148
0.377195
0.433675
0.378727
0.351176
0.489944
0.426158
0.414102
0.368979
0.380775
0.38857
0.427367
0.438213
0.51142
0.383558
0.40968
0.392716
0.370037
0.681755
0.708156
0.835816
0.810295
1
1
1
1
1
1
1
1
1
1
1
1
1
1
1
1
1
1
1
1
1
1
1
1
1
1
1
1
1
1
1
1
1
1
1
1
1
1
1
1
1
1
1
1
1
1
1
1
1
1
1
1
1
1
1
1
1
1
1
1
1
1
1
1
1
1
1
1
)
;
    }
    procBoundary3to2
    {
        type            processor;
        value           nonuniform List<scalar> 
192
(
0.354829
0.336396
0.525997
0.44963
0.328496
0.46543
0.439097
0.396963
0.483863
0.452263
0.396963
0.383796
0.49703
0.428563
0.454897
0.325862
0.41013
0.39433
0.470697
0.331129
0.333763
0.39433
0.378529
0.320596
0.602364
0.53653
0.599731
0.578664
1
1
1
1
1
1
1
1
1
1
1
1
1
1
1
1
1
1
1
1
1
1
1
1
1
1
1
1
1
1
1
1
1
1
1
1
1
1
1
1
1
1
1
1
1
1
1
1
1
1
1
1
1
1
1
1
1
1
1
1
1
1
1
1
1
1
1
1
0.406111
0.434
0.456016
0.448782
0.433675
0.391992
0.42041
0.402251
0.46124
0.407469
0.380848
0.398671
0.468757
0.403047
0.396673
0.434465
0.371029
0.367672
0.400629
0.409409
0.363511
0.458321
0.343263
0.500682
0.706814
0.637406
0.77845
0.828192
1
1
1
1
1
1
1
1
1
1
1
1
1
1
1
1
1
1
1
1
1
1
1
1
1
1
1
1
1
1
1
1
1
1
1
1
1
1
1
1
1
1
1
1
1
1
1
1
1
1
1
1
1
1
1
1
1
1
1
1
1
1
1
1
1
1
1
1
)
;
    }
}


// ************************************************************************* //
