FoamFile
{version 2.0; format ascii;class vectorField; location 0;object  v;}
2495
(
( 4.13207e-05 6.53881e-06 4.779e-06 )  
( 5.21891e-05 -9.12728e-05 -3.35153e-05 )  
( 0.000281808 0.000248981 -6.95698e-05 )  
( 1.02445e-05 -2.68273e-05 0.000125581 )  
( 1.51833e-05 3.71823e-05 3.00142e-05 )  
( 8.04306e-06 -7.45452e-06 -6.72189e-07 )  
( 0.000236637 6.18826e-05 0.000159294 )  
( -0.00010537 9.88697e-05 0.000245225 )  
( 1.98426e-05 6.84397e-05 0.000249375 )  
( 2.17858e-05 3.71458e-05 -3.6901e-05 )  
( 3.75124e-05 -4.08998e-05 0.000118142 )  
( 3.59086e-05 5.75437e-05 0.000151633 )  
( -5.80948e-05 4.81704e-05 7.91313e-05 )  
( 3.56298e-05 3.6691e-05 0.000262282 )  
( 4.86525e-05 5.84813e-05 0.000174057 )  
( -1.76422e-05 -0.000153759 0.000328415 )  
( -5.45531e-05 -3.59048e-05 0.000347088 )  
( -0.000162748 0.000102203 0.000484303 )  
( 5.74465e-05 0.000130077 6.43317e-05 )  
( 1.05612e-05 9.74603e-05 0.000189709 )  
( -0.000287426 8.48141e-06 -3.25984e-05 )  
( -2.69173e-05 2.58989e-05 0.000204333 )  
( 1.93535e-05 -1.37883e-05 -1.91211e-05 )  
( 0.000163845 8.69669e-05 1.10488e-06 )  
( -6.22752e-06 2.22131e-05 1.90979e-05 )  
( -4.79117e-05 3.35812e-05 0.000284403 )  
( 0.000103541 3.97945e-05 2.06659e-05 )  
( 5.47736e-05 -9.58616e-05 0.000360824 )  
( 7.9192e-05 5.22836e-05 3.67271e-05 )  
( -7.43979e-05 8.92065e-05 5.66579e-05 )  
( 0.000500355 2.14029e-05 -2.40836e-07 )  
( 9.51171e-05 2.40507e-05 0.00018917 )  
( 2.21064e-05 -4.62664e-05 0.000237559 )  
( 2.81827e-05 6.50776e-05 0.000214693 )  
( -1.7011e-05 7.10039e-05 0.000172348 )  
( -8.04087e-05 -0.000113499 0.00035601 )  
( 5.84234e-05 5.03659e-05 9.24711e-05 )  
( 0.00011954 5.66557e-05 0.000300816 )  
( -6.5777e-05 -8.13809e-05 0.000362351 )  
( 4.04543e-05 0.000151462 -1.1684e-05 )  
( 7.13507e-06 -2.07391e-05 0.000143791 )  
( 6.02605e-06 1.34501e-06 3.89796e-05 )  
( 4.74375e-05 7.78739e-05 0.000115634 )  
( 9.4403e-05 6.92422e-05 0.000253517 )  
( -0.000125609 9.67211e-05 0.000394411 )  
( 0.000228237 0.000123318 0.000167781 )  
( 3.00948e-05 6.50813e-05 0.000261686 )  
( -1.88818e-05 8.49331e-05 9.51834e-05 )  
( 0.000342827 -0.0001122 0.000307209 )  
( 2.44591e-05 2.00105e-05 0.000103416 )  
( 0.000138255 -1.76219e-05 1.45876e-05 )  
( -6.52986e-05 1.7701e-06 0.000178889 )  
( 5.08545e-05 9.21503e-05 0.000140221 )  
( -2.49951e-05 5.31141e-06 1.7795e-05 )  
( 0.000127925 5.92271e-05 0.000216297 )  
( -4.14589e-05 8.5646e-05 3.4005e-05 )  
( 1.90673e-05 7.86924e-06 4.65924e-06 )  
( 1.71405e-05 7.7297e-05 0.000104492 )  
( -9.03287e-05 0.000121645 7.3382e-05 )  
( 4.95635e-06 -1.47045e-06 1.39002e-05 )  
( 2.37103e-05 4.41381e-05 0.000273369 )  
( 8.09715e-05 0.000177134 2.8142e-05 )  
( -1.10929e-05 0.000191414 0.000138671 )  
( 8.17248e-05 -2.19069e-05 7.25323e-05 )  
( 1.86988e-05 -2.27085e-05 2.11173e-05 )  
( -1.34288e-05 0.000119017 4.94355e-05 )  
( -1.7489e-05 4.22756e-05 0.000221539 )  
( -3.36741e-05 -2.86023e-05 0.000200769 )  
( -3.27827e-06 2.39125e-05 0.000140915 )  
( 3.54524e-06 4.46777e-05 0.0002445 )  
( -7.0393e-05 -0.000164429 0.000304023 )  
( -8.67011e-05 5.44599e-05 4.67434e-05 )  
( -2.98154e-05 1.24306e-05 9.95771e-05 )  
( 5.18586e-05 7.86771e-05 4.85861e-05 )  
( 4.94252e-05 6.69952e-05 9.44895e-05 )  
( 2.14048e-05 4.10136e-05 0.000116291 )  
( 9.57661e-06 -5.03894e-05 0.000148055 )  
( 1.43157e-05 5.59579e-05 6.77117e-05 )  
( 7.78355e-06 -1.10187e-05 -4.86833e-06 )  
( 5.13567e-05 3.48773e-05 -2.66403e-05 )  
( 8.59367e-05 5.62989e-05 0.000247221 )  
( 0.000109212 5.17179e-05 0.000260096 )  
( 2.55707e-05 5.77764e-05 0.000139981 )  
( 3.75264e-05 3.39485e-06 0.000101026 )  
( -4.65917e-05 0.000156378 0.0002109 )  
( -0.000165215 0.00013683 0.000339028 )  
( 6.08689e-05 2.90773e-05 0.000275095 )  
( 0.000116723 8.84975e-06 5.13053e-05 )  
( -4.01347e-05 3.29717e-05 0.000215008 )  
( -0.00013169 0.000136588 2.31633e-05 )  
( -7.31254e-05 -5.5045e-05 0.000355566 )  
( 0.000116317 3.01228e-05 0.000111999 )  
( -0.000159865 6.82867e-05 0.000518172 )  
( -5.23722e-05 2.88338e-05 0.000316953 )  
( -1.32977e-05 3.32284e-05 3.24948e-05 )  
( 2.43153e-05 -1.38071e-05 0.000165498 )  
( 1.7571e-05 1.00862e-05 0.000135292 )  
( -1.0603e-05 2.22924e-05 0.000477292 )  
( -0.000152789 -7.59278e-05 0.0004624 )  
( 8.22113e-05 0.000129622 0.000440001 )  
( -5.96825e-05 -2.4883e-05 0.000308884 )  
( 0.000101048 2.90691e-05 0.000221338 )  
( 2.46497e-05 5.58799e-05 9.74246e-05 )  
( 0.000113699 5.20585e-05 0.000262001 )  
( -3.218e-05 5.02541e-06 0.00018326 )  
( 0.000203058 5.24244e-05 6.15947e-05 )  
( 5.83768e-05 -1.2614e-05 0.000346568 )  
( 2.86674e-05 6.73534e-05 0.000167852 )  
( -1.0643e-05 5.06169e-05 0.00028452 )  
( 0.000130755 -8.63334e-05 0.000289926 )  
( -4.14184e-06 5.93175e-05 0.000244742 )  
( 0.000103683 4.35597e-05 7.66381e-05 )  
( 9.30045e-05 -2.84944e-05 5.39691e-05 )  
( 7.39898e-05 -1.31006e-05 8.13346e-05 )  
( 0.000115172 -6.19918e-06 0.000174549 )  
( 4.89767e-05 -0.000146475 0.000408515 )  
( 2.23403e-05 -0.000120011 0.000192425 )  
( -6.88775e-05 -3.13252e-05 2.28674e-05 )  
( 9.90723e-06 4.92569e-05 0.000243445 )  
( 0.000114325 1.63836e-05 0.000174398 )  
( 3.61213e-05 -0.000113822 7.98969e-05 )  
( 2.38114e-06 2.10947e-06 0.000141977 )  
( 2.87491e-05 1.93268e-05 5.1622e-05 )  
( -3.62334e-05 0.000109289 0.000146815 )  
( 4.09744e-05 -4.54717e-05 0.000450301 )  
( 2.7683e-05 1.38595e-05 0.000228567 )  
( 3.34039e-05 6.35647e-05 0.000202015 )  
( 3.18232e-05 0.000136232 9.74874e-05 )  
( 4.44762e-05 -4.55192e-05 6.47188e-05 )  
( -5.03673e-07 -1.84165e-06 0.000127051 )  
( -1.9605e-05 -3.99369e-05 0.000191133 )  
( 5.15539e-05 -1.2826e-05 0.000176991 )  
( 5.7723e-05 -6.04096e-05 0.000178298 )  
( 5.12431e-05 5.88586e-05 -8.93936e-06 )  
( 7.68329e-06 -1.94149e-05 6.30045e-05 )  
( 5.33893e-05 3.19329e-05 2.70464e-05 )  
( 9.49431e-05 1.39182e-06 0.000333241 )  
( 7.90962e-05 1.96364e-05 0.000210023 )  
( 2.85193e-05 1.92158e-05 0.000112428 )  
( 2.45685e-05 3.77448e-05 0.000264253 )  
( 4.43436e-05 3.61997e-05 0.000234042 )  
( 1.18789e-05 -5.84425e-05 8.25049e-05 )  
( 1.27984e-05 5.03172e-05 0.000458128 )  
( 2.15502e-05 4.53115e-05 0.000286716 )  
( 6.70591e-06 1.81517e-06 1.55196e-05 )  
( 8.0082e-05 2.71607e-05 0.000150988 )  
( -6.1128e-06 -3.7343e-05 0.000401521 )  
( 2.27338e-05 4.21567e-05 8.39687e-05 )  
( 3.33586e-05 -7.79711e-06 0.000288366 )  
( -7.50238e-07 2.08435e-05 -9.59893e-05 )  
( -7.89467e-05 0.000620109 -2.46001e-07 )  
( -6.44225e-05 0.000108511 0.000102114 )  
( -4.75337e-05 -4.85174e-05 7.27815e-05 )  
( 3.95236e-05 -1.49964e-05 8.90813e-05 )  
( 5.95759e-05 1.57702e-05 0.000100231 )  
( -6.72252e-06 4.91122e-06 5.34248e-05 )  
( -7.80202e-05 5.05328e-05 0.000237799 )  
( 7.53784e-05 -1.27459e-05 6.05694e-05 )  
( -1.89557e-06 -3.41749e-05 0.000212885 )  
( -0.000175421 0.000213933 -1.88476e-05 )  
( -9.03871e-05 0.000126556 0.00013601 )  
( -2.25134e-05 -8.74713e-06 0.000217674 )  
( -8.77826e-05 8.41331e-05 0.000399126 )  
( 8.70355e-06 -3.283e-05 0.000132937 )  
( 4.74696e-05 0.000106958 0.000184807 )  
( -3.07254e-05 -7.41484e-06 9.77627e-05 )  
( 6.17119e-05 -3.4989e-05 0.000183677 )  
( -1.34589e-05 7.64083e-06 4.12075e-07 )  
( -3.32254e-05 3.71829e-05 0.000125617 )  
( -5.34217e-06 0.00010887 0.000133616 )  
( 2.19115e-05 3.5458e-05 0.00027271 )  
( 4.23985e-05 2.17272e-07 0.000156364 )  
( -2.97131e-05 2.17133e-05 0.000202587 )  
( 0.0001056 6.56882e-05 1.24593e-05 )  
( 0.000989395 9.73635e-05 0.000105375 )  
( 5.09474e-05 4.65204e-05 0.000188207 )  
( 2.98419e-06 1.87391e-05 1.33752e-05 )  
( -5.8513e-05 -1.81907e-05 0.000371869 )  
( -2.68243e-05 3.05618e-05 0.000299172 )  
( 2.21024e-05 1.94399e-05 7.42016e-05 )  
( 0.000111483 2.52596e-05 0.000293301 )  
( 1.50733e-05 -0.000115143 1.80084e-05 )  
( 0.000117402 4.31178e-05 -6.02348e-05 )  
( 1.07042e-05 4.71071e-05 3.1432e-05 )  
( -9.69059e-05 4.99101e-05 0.000271413 )  
( 2.56197e-06 6.16079e-05 0.000110404 )  
( -1.8856e-05 4.15502e-05 0.000197696 )  
( -9.21746e-06 5.78296e-05 0.000234202 )  
( 9.62276e-05 0.000115833 0.000267596 )  
( 0.000134971 -3.52741e-05 0.000177249 )  
( 6.48955e-05 2.67308e-05 0.000297326 )  
( 8.49949e-05 -0.000143808 -4.98333e-06 )  
( 0.000127176 4.95726e-05 2.9684e-05 )  
( -7.21856e-06 -2.0624e-05 -4.33393e-05 )  
( 0.000103529 5.61806e-05 1.96087e-05 )  
( -3.59941e-05 0.000142811 0.000216967 )  
( -2.3899e-05 -2.84209e-05 0.000296613 )  
( 3.35979e-05 1.97526e-05 0.000116437 )  
( -8.20808e-05 -2.7431e-05 0.000370735 )  
( 3.66604e-05 -8.27604e-05 0.000253756 )  
( 8.6574e-06 -8.84684e-06 6.19147e-05 )  
( 3.67623e-05 -2.39841e-05 0.000230488 )  
( -3.84575e-05 0.000114423 0.000508462 )  
( 6.91009e-05 9.4735e-06 0.000144545 )  
( -0.000185292 0.000284296 0.000240758 )  
( 3.38051e-05 -1.97426e-05 7.29451e-05 )  
( 8.20936e-07 0.000197099 -7.33703e-05 )  
( -0.000100317 -6.9177e-05 0.000452132 )  
( -1.14789e-05 -2.9954e-05 0.000184605 )  
( 8.79454e-06 0.000105909 0.000266987 )  
( 1.77696e-05 7.89118e-05 0.000111436 )  
( -5.37829e-05 7.55037e-05 5.75925e-05 )  
( 0.000238593 0.000138709 0.000250567 )  
( -6.13691e-05 5.28054e-06 4.50633e-05 )  
( 0.000472833 -0.000419903 0.0013803 )  
( 9.35118e-05 6.30062e-05 0.000330611 )  
( -9.98046e-06 2.91697e-06 0.000158184 )  
( 6.32594e-05 2.15348e-05 0.000179949 )  
( 6.48065e-05 1.10127e-05 0.00016544 )  
( 0.000101077 0.000103919 0.0001715 )  
( -1.00519e-05 5.88317e-06 7.46898e-05 )  
( 0.000175174 -1.37028e-06 0.000123924 )  
( -1.13379e-05 2.19776e-05 6.71361e-06 )  
( -2.54487e-05 1.04163e-05 5.59442e-05 )  
( 7.83867e-05 4.99793e-05 8.36693e-05 )  
( 8.06905e-05 -3.06524e-05 1.02867e-05 )  
( 7.48525e-05 2.56833e-05 0.000111908 )  
( -6.24402e-05 8.30767e-05 9.8136e-05 )  
( 0.000182948 0.000125065 0.000202873 )  
( 2.90708e-05 -5.86371e-05 9.49397e-05 )  
( 1.946e-05 3.55424e-05 0.000147494 )  
( -3.43818e-05 -5.2571e-05 3.91198e-05 )  
( 1.12263e-05 2.24653e-05 7.69907e-05 )  
( -5.79262e-06 2.92104e-05 -2.35362e-06 )  
( 0.000251618 0.000619006 0.00034068 )  
( 5.44731e-05 3.42632e-05 0.000220592 )  
( 0.000279323 3.70116e-05 0.000134615 )  
( 2.34473e-05 -7.82645e-06 0.000288809 )  
( 2.31175e-07 5.11168e-05 3.44567e-05 )  
( -2.33179e-05 -9.10649e-05 0.000131291 )  
( 0.000128275 7.50204e-06 0.000104108 )  
( 7.09918e-05 5.95241e-05 0.00016009 )  
( -6.74298e-05 -5.25179e-05 3.33499e-05 )  
( 2.5024e-05 -4.83844e-06 -8.18194e-06 )  
( -0.000135653 8.06983e-05 6.59114e-05 )  
( -2.88759e-05 2.91376e-05 3.72339e-05 )  
( -3.97e-05 1.36483e-05 5.50395e-05 )  
( 1.63179e-06 0.000127961 0.000184755 )  
( 5.70883e-05 -1.21148e-05 7.69147e-05 )  
( 1.03694e-05 -5.80229e-06 -3.12289e-06 )  
( 1.65508e-05 2.87127e-06 0.000204599 )  
( 5.35754e-07 1.0542e-05 3.60915e-05 )  
( 0.000142268 -8.34399e-05 0.000176934 )  
( 4.57907e-06 1.15139e-05 -9.34828e-06 )  
( 1.29953e-05 1.34499e-05 0.000259647 )  
( 3.95921e-05 -3.30234e-05 3.74904e-05 )  
( -1.98873e-05 3.51288e-06 0.000356041 )  
( 2.73952e-05 3.25756e-05 0.000236623 )  
( 2.68854e-05 1.39247e-05 0.000139956 )  
( 0.00015521 0.000191032 0.000180878 )  
( 1.31494e-05 -1.15886e-05 1.99433e-05 )  
( 0.000138989 0.000157085 8.19356e-05 )  
( 2.40282e-05 -7.19371e-05 5.66882e-05 )  
( 3.63134e-05 -8.59327e-05 0.000367972 )  
( 0.000122523 7.92061e-05 0.000184515 )  
( 9.35859e-05 -3.39694e-06 0.000245802 )  
( 5.53265e-05 6.44899e-05 0.000140256 )  
( -7.99449e-05 -3.22058e-05 3.211e-05 )  
( 4.01522e-05 1.30184e-05 0.00017628 )  
( -3.66991e-05 2.92044e-05 0.000157064 )  
( -3.89143e-06 1.34183e-05 3.91463e-05 )  
( 3.06536e-05 8.62537e-05 0.00016223 )  
( -9.74498e-05 -2.00547e-05 0.000451809 )  
( -7.7348e-05 -6.16489e-05 0.000280737 )  
( 6.29627e-05 -1.44389e-05 0.000362651 )  
( -8.0286e-05 1.53334e-05 0.000291154 )  
( 4.84774e-05 1.03628e-05 0.000278366 )  
( -0.000117838 5.61522e-05 0.000216853 )  
( 1.93251e-05 7.48473e-05 8.5084e-05 )  
( -1.19648e-06 0.000167651 4.84405e-05 )  
( -8.2918e-05 0.000120396 0.000282239 )  
( 9.58317e-05 3.7416e-05 0.000231807 )  
( 0.00010455 1.00032e-05 0.000214519 )  
( 6.88328e-05 -5.85539e-05 9.77079e-05 )  
( 7.15414e-05 6.93863e-06 7.77482e-06 )  
( -6.40582e-05 5.49988e-06 0.000292041 )  
( -1.34194e-05 6.12042e-05 0.000165658 )  
( 0.000125075 3.1839e-05 5.01183e-05 )  
( -7.80956e-05 8.29933e-05 0.000278562 )  
( -6.6727e-06 2.49444e-05 4.8413e-05 )  
( 2.30175e-05 -5.64517e-05 0.000105663 )  
( -0.000179003 0.000547504 -1.40111e-07 )  
( 0.000143357 2.34523e-05 0.000127974 )  
( 2.39079e-05 3.75038e-05 0.000330341 )  
( 9.91593e-05 4.91407e-05 0.000104326 )  
( -0.000846667 -0.00203005 -0.00101445 )  
( 0.000240623 -0.000374087 5.43248e-05 )  
( -4.18639e-05 -4.93419e-05 0.000296718 )  
( 7.11132e-05 9.09198e-05 0.00013703 )  
( 6.20303e-05 -3.55802e-05 -6.18781e-07 )  
( 1.3203e-06 2.02506e-05 2.40442e-05 )  
( -6.1938e-06 1.72919e-05 0.00036198 )  
( -0.000100419 -4.79244e-05 4.03479e-05 )  
( 3.51232e-05 6.13357e-05 0.000280027 )  
( 0.000124557 5.08012e-05 0.000286689 )  
( -1.95398e-05 1.57859e-05 3.12408e-05 )  
( -4.0452e-08 0.000176031 9.93671e-05 )  
( 5.47691e-06 -0.000114381 0.000406152 )  
( 1.94861e-05 -1.33025e-06 -1.38178e-05 )  
( -2.06822e-05 8.93627e-05 9.3598e-05 )  
( 2.1029e-05 0.000101044 0.000220992 )  
( 7.9248e-05 0.000149893 5.80163e-06 )  
( 8.67316e-05 -7.94997e-05 0.00013835 )  
( 0.000150211 0.000119368 0.000139614 )  
( -2.28961e-05 1.55406e-05 2.87507e-05 )  
( -1.60278e-05 1.50392e-05 0.000162487 )  
( 5.86671e-05 6.55844e-05 0.000130142 )  
( -3.32997e-05 2.09684e-05 0.000318491 )  
( -3.91076e-05 -2.14247e-05 0.000207878 )  
( -9.07097e-05 0.000115638 9.61383e-05 )  
( 4.38271e-05 -1.34327e-05 0.000129676 )  
( 0.00111791 -0.000794888 0.00176342 )  
( -2.72885e-05 -0.000159175 1.673e-05 )  
( -0.000177812 -9.5565e-06 0.000379033 )  
( 9.4166e-06 3.64018e-05 0.00013121 )  
( 9.03142e-05 6.78766e-05 1.03074e-05 )  
( 6.48004e-06 6.89994e-05 0.000228298 )  
( 0.000137709 9.5203e-05 0.000181622 )  
( 4.53383e-05 6.56939e-05 0.000109095 )  
( 4.13325e-05 6.20571e-05 0.00020519 )  
( 7.89985e-05 5.31244e-05 4.6627e-05 )  
( 6.50597e-05 3.40186e-05 0.000174607 )  
( 8.52862e-06 1.76005e-05 8.02401e-05 )  
( 2.5734e-05 2.9791e-05 9.78623e-05 )  
( 8.31834e-05 5.9594e-05 -2.51055e-05 )  
( 5.14107e-05 0.000175964 -3.3365e-05 )  
( 6.94081e-05 7.90931e-05 0.000193115 )  
( 1.34165e-05 2.00749e-05 0.000255098 )  
( 0.000256542 0.000220693 0.000331885 )  
( -6.73327e-05 3.82511e-05 -1.68644e-05 )  
( -5.98316e-05 -0.000126919 0.0001671 )  
( -0.000146606 4.35986e-05 0.00013405 )  
( 5.60276e-05 6.54213e-05 6.35496e-05 )  
( 3.28816e-05 -3.18714e-06 -0.000105798 )  
( -2.05288e-05 -4.65885e-05 0.000319312 )  
( 3.11547e-05 0.000102731 0.000162481 )  
( 0.000203122 8.27908e-05 0.00020568 )  
( 5.30914e-05 2.42544e-05 0.000216683 )  
( 2.27719e-05 0.000173799 7.16601e-05 )  
( 5.64737e-05 9.58077e-05 0.000137602 )  
( 4.9965e-05 3.06628e-05 0.000171413 )  
( 5.07842e-05 -1.3591e-05 0.000165545 )  
( -0.000142975 0.000103082 6.65974e-05 )  
( -4.57837e-05 3.25279e-05 -1.04768e-05 )  
( -7.60746e-05 -8.04331e-05 0.000138137 )  
( 3.62712e-05 -3.64443e-05 7.69767e-05 )  
( 6.89374e-05 0.000119199 1.21429e-05 )  
( 5.52383e-05 1.25603e-05 8.32212e-05 )  
( 0.000108784 6.43505e-05 0.000148192 )  
( 2.72755e-05 5.87885e-05 0.000243201 )  
( 4.01075e-05 2.32846e-05 0.000230115 )  
( 4.27953e-05 9.29712e-05 0.000114184 )  
( 6.36778e-05 2.29847e-05 0.000249894 )  
( 0.000107715 0.000358771 -0.00012466 )  
( -4.86063e-06 4.43512e-05 -2.46539e-06 )  
( 0.000126499 5.98638e-05 0.000202561 )  
( 7.46611e-05 1.54448e-06 -7.51017e-06 )  
( 3.92375e-05 1.46527e-05 0.000192766 )  
( -9.23204e-07 0.000102447 0.000304541 )  
( 3.37053e-06 0.000151669 0.000328796 )  
( 7.00227e-05 7.48558e-05 0.000214049 )  
( -6.03323e-05 6.23575e-05 0.000229047 )  
( 9.90702e-06 -0.000104981 0.000218808 )  
( -9.63485e-05 -0.000165315 8.20598e-05 )  
( -1.82444e-05 7.26952e-05 0.000126986 )  
( -0.000444402 -0.000725251 3.01958e-08 )  
( -1.6748e-05 -6.94424e-05 0.000223361 )  
( -1.36019e-05 5.48485e-07 0.000119553 )  
( -5.59171e-06 8.56531e-05 0.000288779 )  
( 4.81772e-05 1.64823e-05 0.000284617 )  
( 0.000100201 -0.000202134 2.79777e-05 )  
( 4.30839e-05 -6.43883e-05 0.000295113 )  
( 8.82761e-05 -1.30154e-05 0.000257982 )  
( -1.51855e-05 -6.95119e-05 4.13848e-05 )  
( 1.77801e-06 -4.48458e-05 0.000103308 )  
( 2.51692e-05 5.79198e-05 8.73465e-05 )  
( 4.63683e-05 4.50721e-05 0.000108899 )  
( 4.57243e-05 -7.79028e-05 0.000229503 )  
( 3.23862e-06 -9.31129e-06 -6.32646e-06 )  
( 5.7429e-05 -3.26171e-06 7.33197e-05 )  
( -3.69245e-05 -9.03228e-05 0.000401129 )  
( 1.6358e-05 0.000156514 3.16129e-06 )  
( 9.78175e-05 5.25768e-05 0.000228611 )  
( -9.44471e-05 1.95149e-05 0.000390558 )  
( -6.38725e-05 -5.37244e-05 0.000352178 )  
( -2.65536e-05 -4.30074e-05 0.000282444 )  
( 0.000122099 -1.4478e-05 -1.73693e-05 )  
( 7.47411e-05 9.02789e-05 0.00028994 )  
( 3.85972e-06 -1.55317e-05 0.000110801 )  
( 8.68948e-05 0.000145248 7.56414e-05 )  
( 0.000488451 0.000102379 0.000351675 )  
( 2.2073e-05 -0.000162157 0.000209455 )  
( 6.33271e-05 -8.50313e-06 0.000128461 )  
( 0.000129125 8.26163e-05 0.000123939 )  
( -8.44105e-06 -3.72703e-05 9.8373e-05 )  
( 3.25424e-06 4.74911e-05 8.10563e-05 )  
( 0.000166961 -0.000148886 0.000240811 )  
( -2.66695e-05 -3.28783e-05 0.000191307 )  
( 5.52841e-05 2.42642e-05 7.65852e-06 )  
( -1.30754e-05 5.25904e-05 5.43062e-05 )  
( -0.000120353 -0.000126877 0.000278735 )  
( 7.9036e-05 5.40699e-05 0.000287193 )  
( 0.000104448 6.56383e-05 0.000184208 )  
( 0.000114961 1.44403e-06 0.000223921 )  
( 6.64342e-05 3.31139e-05 0.000184799 )  
( 2.30424e-05 1.53855e-05 0.000102633 )  
( -7.4686e-05 6.22573e-06 6.31918e-05 )  
( -5.82709e-05 3.74984e-06 0.00041501 )  
( 5.42214e-05 -2.13466e-05 0.000181556 )  
( 6.76137e-07 -2.61448e-05 -1.79108e-05 )  
( 7.52838e-05 1.54291e-05 0.000212547 )  
( 7.15815e-06 5.94321e-05 0.000271492 )  
( 7.12451e-05 0.000105591 0.000276094 )  
( 8.23182e-05 3.5016e-05 0.000233864 )  
( 8.3326e-05 5.09322e-05 0.00025887 )  
( -4.7159e-05 -9.3155e-06 0.000271897 )  
( 9.51398e-05 4.49282e-05 0.00026004 )  
( -3.87731e-05 -7.51171e-05 0.000263172 )  
( -3.39454e-06 4.03542e-05 6.37319e-05 )  
( -5.37821e-06 7.71178e-05 3.04515e-05 )  
( 9.05421e-05 9.07745e-05 8.71451e-05 )  
( 7.78744e-05 4.3446e-05 0.000171267 )  
( 6.38202e-06 1.22128e-05 8.92819e-06 )  
( 1.82735e-06 5.32459e-05 0.000254579 )  
( 9.02779e-06 1.88276e-05 5.07653e-05 )  
( 6.57136e-05 -7.69567e-06 0.000153706 )  
( 0.000190384 6.88139e-05 3.74567e-05 )  
( -4.12456e-05 5.84759e-05 7.74571e-05 )  
( 2.23807e-05 9.33714e-07 5.70305e-06 )  
( 4.94641e-05 7.40675e-05 1.32127e-05 )  
( 3.10045e-05 2.89169e-05 0.000215263 )  
( 0.000112204 1.94947e-05 0.000253717 )  
( 6.16062e-05 9.76341e-05 0.00024468 )  
( 0.000137813 6.59615e-05 0.000334037 )  
( -4.59251e-05 -5.58279e-06 0.000208315 )  
( 0.000118548 3.11134e-05 0.000326289 )  
( -8.16524e-05 4.79146e-05 0.00054645 )  
( -5.38568e-06 2.23201e-05 0.000101377 )  
( -5.98956e-05 8.48115e-05 0.000121002 )  
( 6.15331e-05 2.66672e-05 0.000269193 )  
( 0.000139016 0.000181353 0.000166719 )  
( 3.27999e-05 0.000116402 0.00013035 )  
( -2.54664e-05 7.88584e-05 0.000184951 )  
( 4.0993e-05 3.19898e-05 0.00015642 )  
( 7.36866e-05 0.000110455 8.30058e-05 )  
( 6.54805e-05 0.000170508 3.99409e-05 )  
( 7.14504e-05 -5.15218e-05 0.000307421 )  
( 0.000118875 3.41709e-05 0.000247546 )  
( 0.000149251 0.00015584 0.000200552 )  
( 4.76307e-05 3.47534e-05 1.33166e-05 )  
( 3.55337e-05 4.58025e-05 0.00024345 )  
( -1.5789e-05 2.90032e-05 3.17132e-05 )  
( 2.20561e-05 -8.95851e-06 0.000302198 )  
( -4.51089e-05 -2.59108e-05 0.000344721 )  
( 2.94575e-05 3.29243e-05 4.2636e-05 )  
( 0.000255196 -0.000149249 0.000193708 )  
( 0.000326201 4.14201e-05 0.000353719 )  
( 3.74398e-05 7.41352e-05 -1.19698e-05 )  
( 4.49799e-05 -4.54336e-05 0.000241143 )  
( 0.00149378 -0.000338558 -9.2531e-05 )  
( 6.05392e-05 2.4943e-05 4.25526e-05 )  
( 2.58011e-05 6.36667e-05 0.000123643 )  
( -2.34488e-06 0.000138518 5.94251e-05 )  
( 3.06552e-06 1.05132e-05 -2.57279e-07 )  
( 0.000101522 0.000261061 1.66739e-05 )  
( 8.28899e-05 5.08158e-05 0.00012071 )  
( 5.47824e-05 9.41507e-05 0.000166929 )  
( 6.5238e-05 1.85814e-05 7.87413e-05 )  
( 1.06537e-06 1.43359e-05 0.000315522 )  
( 3.86982e-05 -3.02065e-06 3.00274e-05 )  
( 4.13861e-05 1.85629e-05 0.000430726 )  
( 8.29786e-05 -1.34007e-05 0.000101481 )  
( -1.71688e-05 -8.00542e-05 1.27508e-05 )  
( -0.000110332 1.58573e-05 0.000250159 )  
( 0.000241247 7.42545e-05 6.31043e-05 )  
( 4.0901e-05 2.66161e-05 8.56815e-05 )  
( 2.10411e-05 5.29693e-05 0.000163921 )  
( -7.58593e-05 3.93785e-05 5.52924e-05 )  
( 6.97248e-05 4.58098e-05 0.000241398 )  
( 3.5629e-05 -1.74135e-05 0.000134079 )  
( 0.000102452 5.59674e-05 0.000284846 )  
( 4.77464e-06 8.08227e-05 0.000265485 )  
( 3.26664e-05 -2.91256e-05 3.60377e-05 )  
( 3.79378e-05 6.23792e-06 4.95702e-05 )  
( 0.000108922 -8.73745e-05 0.000306092 )  
( 4.6899e-05 4.48816e-05 0.000327934 )  
( -1.83337e-05 -2.21512e-05 0.000101769 )  
( 3.59758e-05 6.02203e-05 0.000125221 )  
( 0.000161786 -1.80674e-05 7.02182e-06 )  
( 2.59529e-06 -1.37557e-05 0.000315674 )  
( 3.26083e-05 1.28529e-05 0.000164161 )  
( -3.44241e-05 0.000113157 8.62449e-05 )  
( 3.61228e-05 9.65401e-05 0.000244548 )  
( -4.77434e-05 5.71182e-05 0.000298831 )  
( -3.68518e-05 1.25599e-05 9.39936e-05 )  
( 1.63971e-05 4.86477e-06 0.000243837 )  
( -3.93609e-06 2.63595e-05 4.75664e-05 )  
( 1.33438e-06 3.59716e-05 8.54317e-05 )  
( 1.05597e-05 5.45656e-06 5.59176e-05 )  
( 3.50967e-05 1.08093e-05 3.5833e-06 )  
( 1.19155e-05 5.04927e-05 5.66896e-05 )  
( 5.04202e-05 3.67618e-05 0.000223547 )  
( -9.83607e-05 -0.000170204 0.000392433 )  
( 5.86826e-05 1.56075e-05 0.000263586 )  
( 6.4703e-05 0.000100746 -1.52109e-06 )  
( -0.000131941 -8.61073e-05 1.25128e-05 )  
( 0.000152806 8.23498e-05 0.00020833 )  
( -5.21732e-06 -2.55965e-05 0.000284448 )  
( 2.24077e-05 1.25279e-05 -3.56748e-06 )  
( -9.9792e-07 1.80798e-06 0.000327565 )  
( -6.99506e-05 -3.25341e-05 1.34832e-05 )  
( 8.21274e-05 4.30476e-05 0.000349912 )  
( 4.62694e-05 6.89204e-05 6.71238e-05 )  
( 8.14228e-05 7.18196e-05 0.000261906 )  
( -2.51922e-06 1.55311e-05 9.13131e-05 )  
( 4.82055e-05 -1.05234e-05 2.22585e-05 )  
( 5.51368e-05 8.28207e-05 0.000100697 )  
( 0.000126526 1.24133e-05 0.00015782 )  
( -2.39656e-05 2.2986e-05 0.000222726 )  
( -5.25646e-06 8.48188e-05 -4.01322e-06 )  
( 5.20764e-06 1.41564e-05 1.1933e-05 )  
( -3.43581e-05 4.11449e-05 0.00034271 )  
( 7.45725e-05 6.65148e-05 0.000295092 )  
( 7.62464e-05 8.1853e-05 7.49588e-06 )  
( -0.000236721 -7.67636e-05 0.000497797 )  
( 8.32094e-06 6.55517e-05 8.34202e-05 )  
( 1.18212e-05 -4.59461e-05 0.000301864 )  
( 7.05998e-05 0.000120227 0.000349519 )  
( 0.000180126 0.000225495 7.72798e-05 )  
( -4.58582e-06 6.21001e-05 0.000175636 )  
( 2.93197e-05 -2.32471e-05 0.000158502 )  
( 7.20946e-05 3.87551e-05 0.000185367 )  
( 1.82368e-05 -2.29408e-05 0.000306296 )  
( 6.9515e-05 -1.41793e-05 0.000132376 )  
( 4.38163e-05 -1.80354e-05 5.39584e-05 )  
( -3.26216e-05 1.19314e-05 0.000319377 )  
( 2.82388e-06 4.94676e-05 0.000104104 )  
( 1.27869e-05 7.16531e-05 0.000159646 )  
( -5.48868e-05 -3.85902e-05 0.000183206 )  
( 2.16849e-05 -2.31761e-07 0.000164214 )  
( 5.98794e-06 1.81387e-05 3.05074e-05 )  
( 2.38305e-05 -1.37166e-05 7.82753e-05 )  
( -2.40324e-05 7.65821e-05 9.83443e-05 )  
( -0.000104288 -8.26315e-05 0.000347862 )  
( -0.000130081 -8.44442e-05 0.000394727 )  
( 4.41083e-05 4.39978e-05 0.000171562 )  
( -1.236e-05 -4.12212e-05 0.000273785 )  
( 8.43945e-05 6.55199e-05 0.000230806 )  
( 7.12873e-05 -1.15195e-05 0.000244066 )  
( 0.000139499 5.02794e-05 -4.3478e-05 )  
( 3.85127e-05 -2.05248e-05 5.4047e-05 )  
( 1.17106e-05 5.50005e-05 0.00020301 )  
( -1.91256e-05 2.68376e-05 0.000102459 )  
( 2.96486e-05 7.81186e-05 5.60305e-05 )  
( 0.000323966 3.18292e-05 -1.87186e-07 )  
( -5.06841e-07 1.51369e-05 3.17486e-05 )  
( -3.39727e-05 4.01278e-05 0.000110926 )  
( 0.000163864 0.000199273 0.00021601 )  
( 8.12735e-05 8.70028e-05 0.000183752 )  
( -4.0566e-05 3.9496e-05 4.92476e-05 )  
( 0.000111598 2.44479e-05 0.00023618 )  
( 0.000309983 9.29912e-05 0.000382717 )  
( 9.94736e-05 3.3422e-05 0.000291482 )  
( 1.82869e-05 -7.8104e-05 0.000145792 )  
( 9.18728e-05 1.0803e-05 0.000241927 )  
( -7.16163e-05 -1.8712e-05 0.000203066 )  
( -2.2147e-05 2.56433e-06 1.13352e-05 )  
( 8.02867e-05 -1.96639e-05 0.000369757 )  
( 2.68642e-05 7.04732e-05 0.000206307 )  
( 0.000200611 0.000333945 -0.000178328 )  
( -1.54765e-05 8.03282e-05 0.000170965 )  
( 1.95592e-05 9.87345e-05 0.000229656 )  
( 0.000270504 3.68035e-05 0.000175336 )  
( -4.44399e-05 0.000113188 0.00013796 )  
( 7.57157e-06 7.17351e-05 0.000177858 )  
( -3.0761e-05 -9.5866e-06 0.000390088 )  
( 8.8451e-05 -9.35564e-06 0.000109795 )  
( -3.22489e-05 -6.42939e-05 0.000169051 )  
( 1.62186e-05 5.39306e-05 0.000241076 )  
( 5.29528e-05 -0.000218113 -9.24778e-07 )  
( -4.63108e-05 9.76116e-05 0.000197369 )  
( 9.95032e-05 8.72921e-06 0.000174394 )  
( -0.000116471 -1.37344e-05 0.000308358 )  
( 2.2612e-05 -8.66797e-05 0.000389364 )  
( 2.6187e-05 -7.07771e-05 0.000222833 )  
( 2.44485e-05 -2.47207e-05 0.000245496 )  
( 4.47356e-05 9.03985e-05 0.000235001 )  
( -5.34768e-05 -7.84166e-05 5.70129e-05 )  
( -4.24696e-05 3.57711e-06 5.29088e-05 )  
( -6.17359e-05 4.47721e-05 1.2787e-05 )  
( -6.21509e-05 -2.47756e-05 0.000227756 )  
( 6.56607e-05 8.08392e-05 0.000235786 )  
( 0.000108986 8.19433e-05 0.000249161 )  
( 8.93803e-05 -1.50777e-05 6.26205e-05 )  
( 5.25919e-05 0.000135895 0.000113409 )  
( 0.000101879 3.01723e-06 7.03807e-05 )  
( -4.56154e-05 -4.50511e-05 0.000137406 )  
( -6.1506e-05 0.000242223 1.13753e-05 )  
( 7.42305e-06 8.77585e-05 0.000168679 )  
( 3.27231e-05 3.53874e-05 0.000167588 )  
( -0.000767734 -0.000263002 -2.30399e-07 )  
( 6.78414e-05 -1.99474e-05 9.95225e-05 )  
( -2.71858e-05 0.000147112 6.03468e-05 )  
( -5.20892e-05 9.50757e-05 0.00047689 )  
( -0.000138366 -0.000124958 0.000232185 )  
( 9.31644e-06 -3.89549e-05 0.000103268 )  
( -7.91896e-06 -8.23793e-06 0.000160742 )  
( -1.52589e-05 -2.55465e-06 0.000241437 )  
( -0.000171682 0.000170597 0.000305957 )  
( 5.31537e-07 9.04194e-05 2.99153e-05 )  
( -1.77332e-05 -4.4258e-05 0.000201644 )  
( 0.000201071 3.44854e-05 0.000216605 )  
( -1.23025e-05 -7.10973e-06 2.39195e-05 )  
( -3.35501e-05 4.39186e-05 6.58714e-06 )  
( 5.00803e-05 1.58608e-06 0.000254733 )  
( -0.000121764 -6.94459e-05 2.33297e-05 )  
( 6.43484e-05 9.41483e-05 0.000106886 )  
( 4.29214e-05 -6.04446e-05 2.90335e-05 )  
( -3.14863e-05 -1.90411e-05 0.000206997 )  
( -9.00917e-05 1.07271e-05 8.30347e-05 )  
( 6.89709e-05 2.74616e-05 4.18097e-05 )  
( 7.18538e-05 1.62808e-05 0.000157129 )  
( 5.08821e-05 0.000120488 0.000100554 )  
( -0.000341313 6.30033e-05 0.000249404 )  
( 7.94694e-05 3.30645e-06 2.26227e-05 )  
( 7.18074e-05 -5.03705e-06 0.000126567 )  
( 5.40213e-05 -4.4214e-05 0.000128588 )  
( -1.85163e-06 1.18455e-05 0.000164791 )  
( -9.96106e-05 -3.73305e-06 0.000372706 )  
( -0.000120391 -4.59326e-06 0.000442255 )  
( 1.59308e-05 7.14559e-05 3.57354e-05 )  
( -3.65855e-05 -1.07369e-05 0.000145621 )  
( 4.80246e-05 4.94442e-05 0.000278295 )  
( 0.000114953 4.72431e-05 0.000314141 )  
( -1.64353e-05 4.45229e-05 0.000172427 )  
( 1.20743e-05 3.36333e-05 0.000185367 )  
( 0.000177011 8.30572e-05 0.000184026 )  
( -2.59493e-05 8.1879e-05 3.18176e-05 )  
( 4.9346e-05 3.23243e-06 0.000264674 )  
( 7.75199e-05 3.31754e-05 0.000267399 )  
( -1.12109e-06 3.90218e-05 3.55256e-05 )  
( 0.000120291 0.000161797 0.000198524 )  
( -0.000175436 1.69839e-05 0.000382786 )  
( 0.000186344 7.76308e-05 7.94907e-05 )  
( 2.55632e-05 6.75537e-05 3.30937e-05 )  
( -6.47268e-05 -0.00017012 0.000438635 )  
( -0.000105532 5.28857e-07 0.000397659 )  
( 0.000172615 -1.69176e-05 0.00028257 )  
( -3.80482e-06 2.83619e-05 0.000223007 )  
( 8.65373e-05 0.000147302 0.000207514 )  
( -2.80631e-05 1.37535e-05 5.97023e-05 )  
( 0.000138399 4.68671e-05 0.000147424 )  
( -6.71574e-05 -0.000107801 0.000343523 )  
( 9.87918e-06 6.96263e-05 0.00025281 )  
( 7.38545e-05 2.41785e-05 0.000209505 )  
( 5.59127e-05 1.22659e-05 0.000338893 )  
( 4.22997e-05 -3.50195e-05 0.000151333 )  
( 1.22077e-05 5.92285e-05 0.000147912 )  
( -1.45652e-05 3.01935e-05 3.10095e-05 )  
( -2.79034e-05 3.48807e-05 4.94085e-05 )  
( 6.99977e-06 1.01802e-05 2.68793e-06 )  
( 8.5778e-05 3.9793e-05 -1.00837e-05 )  
( 4.52329e-05 6.69226e-05 -5.93312e-06 )  
( 2.16483e-05 2.68132e-05 -5.48467e-05 )  
( 0.000139212 0.000175764 0.000265504 )  
( 7.98463e-05 -1.68093e-05 0.000252153 )  
( 4.24601e-06 -0.000103924 0.000232814 )  
( 3.62039e-06 1.23451e-05 0.000273825 )  
( -0.000100672 -0.000113533 0.000455458 )  
( 5.98323e-06 -3.12409e-05 7.28322e-05 )  
( 8.89253e-05 0.000148044 0.000503204 )  
( 4.45551e-05 3.01523e-05 0.000308178 )  
( -7.70958e-05 -3.2125e-05 2.13322e-05 )  
( 3.79584e-05 9.59273e-05 0.000306601 )  
( -0.000127128 5.00678e-06 0.000295329 )  
( 4.56751e-05 -6.55251e-06 0.000443608 )  
( -1.99336e-05 -7.77721e-05 0.000199079 )  
( -3.71646e-05 2.53799e-05 0.00022241 )  
( 1.86577e-05 1.56221e-05 0.000264347 )  
( 2.37686e-05 1.73007e-05 -5.46712e-06 )  
( 7.69377e-05 7.4178e-06 0.000213599 )  
( -8.224e-05 -6.76095e-05 3.83266e-06 )  
( 0.000132133 -2.99859e-05 0.000165584 )  
( 6.14378e-05 0.000102943 1.76918e-05 )  
( -4.42344e-05 -4.32376e-05 0.000146878 )  
( 2.38794e-05 -1.71172e-05 2.82394e-05 )  
( 6.21343e-05 -6.70165e-05 0.000237478 )  
( -5.67539e-05 -6.45086e-06 0.000125427 )  
( 0.000133597 4.65957e-05 1.37959e-05 )  
( -1.71621e-06 8.21425e-05 0.000440902 )  
( 1.62666e-06 -4.12152e-05 0.000408814 )  
( -0.00012223 -8.81827e-05 0.000518739 )  
( -3.92996e-06 9.46074e-05 0.000375121 )  
( -3.94638e-05 8.48508e-05 0.000307764 )  
( 0.00017614 9.11669e-05 0.000134375 )  