FoamFile
{version 2.0; format ascii;class vectorField; location 0;object  v;}
2498
(
( -0.000977896 -0.000270012 0.00560723 )  
( 0.00112133 0.00035122 0.005042 )  
( 0.00349623 0.00191698 0.00746303 )  
( -0.00281041 0.00110833 0.00554407 )  
( 0.00193544 -0.000504605 0.00454658 )  
( -0.000762931 0.00159404 0.005424 )  
( 4.03852e-06 0.000211039 2.21609e-05 )  
( -0.000233873 -6.64022e-05 -0.000109518 )  
( -4.62728e-05 0.00164184 0.00494623 )  
( -0.000201361 0.000144606 0.00275672 )  
( -1.96371e-05 -0.000252946 0.00514472 )  
( 5.6784e-05 0.000713011 0.00363671 )  
( 6.16343e-05 0.00243011 0.00360873 )  
( 7.8473e-05 -9.26031e-06 5.62054e-05 )  
( 0.000779788 0.0017029 0.00463043 )  
( 0.00113398 0.0015497 0.00411703 )  
( -0.000138213 -0.000188242 -0.000361081 )  
( 0.00116268 0.00135392 0.00456091 )  
( -0.000146872 0.00075512 0.00456769 )  
( -0.00146765 -0.000320843 -0.00103562 )  
( -0.000562466 0.000522049 -7.97046e-05 )  
( -6.54239e-05 -0.000691005 4.01968e-06 )  
( 0.00183495 -0.000675502 0.00288654 )  
( -0.00164655 -0.00145584 -0.0027273 )  
( 0.000150178 0.00152196 0.0044913 )  
( 0.00241995 0.00139067 -0.000538413 )  
( -0.00238852 0.00129821 0.00457542 )  
( -0.000258357 0.00084403 0.00478826 )  
( 0.000485626 0.000974644 0.00453475 )  
( -0.000678884 -0.00100484 -0.000867408 )  
( 0.000137655 -0.000106028 -0.000123801 )  
( -0.00248688 0.000989438 0.00502907 )  
( -0.00069463 0.000784897 0.00458287 )  
( 0.00208423 -0.000690976 0.00391875 )  
( 0.00172057 -0.000654403 0.00361122 )  
( 0.000307797 0.00185054 0.0015053 )  
( -0.000129545 0.000129238 -3.63322e-05 )  
( 0.00242221 0.00144167 0.000939548 )  
( 0.000330639 0.00023117 -0.000138867 )  
( 0.000519713 0.000560277 0.003771 )  
( -0.000565025 -0.000424572 0.00643643 )  
( 0.000189409 -0.000192982 0.00497391 )  
( -0.000365827 -0.00087012 0.00387157 )  
( -0.00334931 0.000684294 -0.00187858 )  
( 0.00212618 0.00152442 0.00362993 )  
( -0.000155145 -0.000269468 -5.14553e-05 )  
( -0.000470779 -4.35837e-06 -3.61254e-05 )  
( -0.00075625 0.000336759 0.00573598 )  
( 0.00259567 -0.002408 0.00635959 )  
( 0.000306836 0.00136524 0.00535884 )  
( 0.00077907 0.00305407 -0.000400695 )  
( 0.000271338 -0.00069715 0.00228559 )  
( -6.38536e-05 0.00112925 0.00352637 )  
( 0.00156322 0.0010163 0.00448957 )  
( 0.00223695 0.000418542 -3.07656e-06 )  
( 0.000211152 -0.000351432 -0.000248014 )  
( 4.34479e-05 0.00011259 4.45364e-05 )  
( 0.000884014 0.000518219 -0.000941282 )  
( -0.000452223 0.00121944 0.00375918 )  
( 0.000352616 0.00127357 0.00505381 )  
( -0.000636997 9.36065e-05 -0.000458387 )  
( 0.00332879 0.00105623 0.00449321 )  
( -0.000852338 -0.000676787 0.00750226 )  
( 0.00256481 -6.38876e-05 0.00528825 )  
( 0.000169726 0.000532651 0.00303282 )  
( -0.000668868 0.00124674 0.00623313 )  
( 0.000836683 -0.000755348 0.00370122 )  
( 6.18369e-05 0.000111926 0.00389233 )  
( 0.000316057 0.00125631 0.00268828 )  
( 0.00324088 0.000745873 -0.00129737 )  
( -0.0004479 2.53325e-05 4.33112e-05 )  
( 0.0035211 -0.00169418 -2.38726e-06 )  
( 0.00474675 -0.00121289 0.00520473 )  
( -0.000242041 0.00083838 0.00459018 )  
( 0.00236967 0.000367971 0.00573819 )  
( -0.000302283 -5.96933e-05 0.00552263 )  
( 0.000975275 0.00254422 0.00472343 )  
( -0.00202541 0.00130111 0.0050091 )  
( 0.000135964 0.000484611 0.00359749 )  
( -0.00203699 -0.000315006 0.00704572 )  
( 0.00116576 0.000969289 0.00247822 )  
( -3.90711e-05 5.87427e-05 -2.97535e-05 )  
( -0.00114453 0.00230852 4.85532e-05 )  
( -0.000155581 0.000817552 0.00318951 )  
( -0.000234622 0.00141885 0.00385108 )  
( 0.00224788 -8.12853e-05 -4.31877e-07 )  
( 0.00252471 -0.00173286 0.0056962 )  
( 0.0013262 0.000228878 -0.000169097 )  
( 0.000364312 0.000908927 0.00437943 )  
( -9.05286e-05 -0.000359565 -6.19991e-07 )  
( 0.00162932 0.00260573 0.00328602 )  
( 0.000747422 0.000735627 0.00447303 )  
( -0.000877905 0.00121962 0.00416201 )  
( 0.00115139 0.0030026 -0.00487477 )  
( 0.000165337 0.000100272 -0.000143794 )  
( -0.000657972 0.00130346 0.0046942 )  
( 0.000500503 -2.65329e-05 -0.000253741 )  
( 0.00211349 0.000715096 0.00489433 )  
( 5.37302e-05 6.2088e-05 -9.55045e-05 )  
( 0.000434706 0.00146212 0.00426682 )  
( 1.07635e-05 -1.30095e-05 6.60048e-06 )  
( -0.000500213 0.000124863 0.00608185 )  
( -0.00167869 -0.0015505 -0.00129641 )  
( -0.00247058 0.000293593 0.00178256 )  
( -0.000233894 0.00014259 0.00560248 )  
( 7.57054e-05 0.000483303 0.00482226 )  
( 0.000520586 0.00113771 -0.000124354 )  
( -0.000107274 6.72813e-05 7.63131e-05 )  
( 0.00416272 0.00210421 0.00725676 )  
( 0.000318668 2.43679e-05 3.02683e-05 )  
( -0.000176638 0.000217827 -4.96922e-06 )  
( -0.000578136 0.000931087 0.00507324 )  
( -0.000247943 0.00143499 0.00571534 )  
( 0.000585927 0.000734643 -0.000968967 )  
( -0.00074356 0.000791895 0.00484138 )  
( 0.000133103 0.000146784 -6.21269e-05 )  
( -0.000272634 0.00132431 0.00421359 )  
( 0.00157861 0.00544605 0.00723236 )  
( 0.000819237 0.00120965 6.02501e-05 )  
( -0.000204544 0.00164968 0.00256952 )  
( -0.00103539 0.000385828 0.00570498 )  
( 0.000778079 0.00145087 0.00429908 )  
( 0.000560984 0.00189466 0.000213962 )  
( -0.000193486 0.000910436 0.00476269 )  
( 0.000492318 0.00344748 0.00494606 )  
( -0.000309537 0.000540189 0.00508858 )  
( 0.000777583 -0.000676134 -0.00143425 )  
( 0.000989931 0.000832804 0.000112705 )  
( 0.000306047 0.00170352 0.00308092 )  
( 0.000312409 7.60601e-05 0.000288233 )  
( -0.000326953 0.00123262 0.00271482 )  
( -0.000291744 0.00075555 0.00399131 )  
( -0.000258098 0.00299012 0.00034242 )  
( -0.000561915 0.00149162 0.00342056 )  
( 9.06823e-05 -0.000423579 0.00546191 )  
( 0.000499208 0.00191575 0.00483714 )  
( 0.00107325 0.00430658 0.00626879 )  
( -0.0016098 0.0021959 0.00297574 )  
( 0.000283836 -9.3702e-05 0.00273179 )  
( 0.00241834 0.00126704 -0.000780458 )  
( 0.000134412 2.0707e-08 0.000168814 )  
( 0.00286054 -0.000464238 -4.77559e-05 )  
( -2.90012e-05 5.23518e-05 -0.000247597 )  
( 0.000601103 0.000762359 0.00500001 )  
( 0.00142373 0.000325551 0.00128044 )  
( 0.00118879 0.0023145 0.00494549 )  
( -0.00124908 0.00177517 0.00417662 )  
( 0.000558393 0.000204735 0.00413472 )  
( 0.000257599 0.00110643 0.00256618 )  
( 0.000354925 0.000869378 -0.000321539 )  
( 0.00198351 0.00208692 -0.000140759 )  
( 0.00432812 0.00327583 0.00776857 )  
( -0.000385445 -0.00118164 -0.000263869 )  
( 0.000680395 -0.000221136 8.69419e-05 )  
( 0.000776023 0.000803717 0.00350005 )  
( 0.00253634 -0.00119084 0.00144932 )  
( -7.61814e-05 0.000176647 -0.000207208 )  
( 0.00201953 0.00134707 0.00736507 )  
( 0.00197399 0.000816561 0.00237373 )  
( -0.00166459 -0.00031457 0.00475153 )  
( -0.00211373 0.000762644 0.00426575 )  
( -0.000391382 -0.000245113 0.00207493 )  
( -3.55267e-05 0.000751216 0.000346042 )  
( -0.000374193 0.000771259 0.00591851 )  
( 0.000357279 0.000435049 6.52535e-05 )  
( -0.00189314 0.00166843 0.00455317 )  
( 0.000127582 0.00090369 0.00443173 )  
( -0.000224887 0.000896106 0.00627235 )  
( -0.00108547 0.00194935 0.00103245 )  
( 0.000469341 -0.000164298 -6.99431e-06 )  
( -0.000536538 0.000556098 0.00509865 )  
( 0.00142468 0.00390156 0.00866193 )  
( 0.000132182 0.000337383 -2.24181e-05 )  
( -0.00144925 -0.000861684 0.00379136 )  
( 0.00246257 0.00175692 0.00264767 )  
( -0.00196675 -0.00038554 0.00379661 )  
( 0.00148638 0.000772254 0.00219953 )  
( -6.20834e-05 -0.000216488 0.000509242 )  
( -0.000448173 0.000306513 -0.00075158 )  
( 0.000251031 -0.000116395 0.00602006 )  
( 0.000117471 5.1445e-05 2.23048e-06 )  
( 0.000118611 0.000278261 0.00389822 )  
( 0.0008291 -0.000384383 0.00381361 )  
( -0.000925784 -0.00144907 0.00712392 )  
( -7.53596e-05 -0.000454803 -0.000107391 )  
( -0.00284502 0.00152378 0.00160604 )  
( -7.14689e-05 0.000947181 0.00551175 )  
( -0.00022927 0.00146122 0.00494045 )  
( -0.000215124 -0.000778917 0.00563501 )  
( 0.000397139 0.00175502 0.00317305 )  
( 0.000520555 3.14837e-06 -0.000153851 )  
( 0.000127558 0.000563208 -2.00435e-05 )  
( 9.32774e-05 3.85102e-05 9.55358e-06 )  
( -1.5897e-05 0.00012243 -0.00014439 )  
( 0.000142078 0.000620829 1.619e-05 )  
( 0.000137472 0.00016116 9.84061e-06 )  
( 0.000436928 0.00091438 0.00399479 )  
( 0.000318993 0.000575792 0.00541935 )  
( 0.00324118 0.000557992 0.00428159 )  
( 0.000251559 0.00115832 0.00445904 )  
( -0.00116917 0.00168172 -0.000998504 )  
( -0.00183656 0.000644294 0.00423472 )  
( 0.00401025 -0.000495528 0.00466168 )  
( 0.000742764 0.00128856 0.00429614 )  
( 0.0026431 5.85707e-06 0.00109421 )  
( 0.000419977 0.000731928 0.00393512 )  
( -1.69946e-06 -1.26567e-05 -0.000261747 )  
( 0.000165343 1.58187e-05 -0.000210366 )  
( 0.00263845 0.000902389 0.00441201 )  
( 0.000126341 5.30072e-05 4.56336e-05 )  
( 0.000241965 0.0013288 0.00399973 )  
( -0.00148224 -0.000861964 0.00351134 )  
( -0.00192058 1.93557e-05 0.00628426 )  
( -0.000430925 0.00102758 -0.000530211 )  
( -0.000211232 0.001323 0.0037793 )  
( 0.00118356 -0.00091027 0.00100588 )  
( -4.20457e-05 -2.40707e-07 -8.88413e-05 )  
( 0.000705241 0.00047455 0.00297884 )  
( -0.00121257 0.00372776 0.00441626 )  
( -9.57369e-05 0.0010459 0.00711201 )  
( 0.000422874 0.00189093 0.00457405 )  
( 0.00288573 0.000784059 0.00364595 )  
( 7.86155e-05 0.000999785 0.00426422 )  
( 0.000654632 0.000864365 0.0037208 )  
( 0.000311485 0.000612012 0.00215513 )  
( -0.000872959 0.000673056 -0.000125389 )  
( 0.000562688 0.000396669 0.00389112 )  
( 0.00078737 -0.00071995 0.00319169 )  
( -0.000276509 -0.000317943 -9.58104e-05 )  
( -0.000499068 -0.000222732 -3.57668e-05 )  
( -0.00103076 0.000870402 0.00556831 )  
( -6.7512e-06 0.000105615 -2.62537e-05 )  
( -0.000235222 0.00015896 0.000201218 )  
( 0.000758139 0.000204148 0.00224382 )  
( -0.000627272 -1.28323e-05 0.00447137 )  
( -0.00116688 0.00111549 0.00337319 )  
( -0.00234163 -0.00142466 0.00442794 )  
( 0.000100465 -0.000478298 0.000173863 )  
( -0.00239943 0.00521051 0.00425272 )  
( -0.000684995 0.00207557 0.00422131 )  
( 0.00226607 -0.00149478 0.00680432 )  
( 0.00270626 0.00153986 0.00479569 )  
( -0.00123799 0.00346877 0.00492487 )  
( 0.000489751 0.000646132 0.00303089 )  
( 0.00348476 -0.00182852 0.00232566 )  
( -0.000415669 0.00290732 0.00478509 )  
( 3.89847e-05 0.000355613 -0.00204568 )  
( 0.000760217 0.000201111 0.00640083 )  
( 0.000275677 0.0050929 0.00247337 )  
( 0.00055685 -0.00250417 0.00888406 )  
( -0.00255923 0.00126707 0.00306643 )  
( -0.000196688 6.3123e-05 -0.000117664 )  
( 0.000223667 0.000592456 0.00276309 )  
( 0.000831433 -0.000483785 -0.000749892 )  
( 0.000598805 0.00148142 -5.39443e-05 )  
( -0.00453872 -0.0018531 0.001628 )  
( 0.00083534 -0.00217574 0.00375584 )  
( 0.00216798 0.00240414 0.00388407 )  
( -0.000385631 0.00063835 0.000182441 )  
( 0.00187462 0.000474244 -0.000514644 )  
( -0.00115362 0.000247174 0.00588243 )  
( -0.00129141 0.00255182 0.0033048 )  
( 0.000325786 0.00152084 0.00311967 )  
( 0.0044081 0.0005728 -0.00123415 )  
( -0.00136977 0.000705856 0.0047115 )  
( 0.000629266 0.000729214 0.00326521 )  
( 4.50254e-06 -0.000126525 -5.92932e-05 )  
( -0.00174805 0.00203992 0.00583716 )  
( -0.000124075 0.000600432 0.0040748 )  
( -0.000438059 -0.00160281 0.0050573 )  
( 8.54735e-05 0.000250408 0.00522988 )  
( 7.36667e-05 0.000372813 0.0013386 )  
( 0.000529414 0.00101771 0.00591411 )  
( 9.23316e-05 -0.000222891 2.67257e-05 )  
( 0.000550243 0.00071197 0.00591681 )  
( 0.000394438 0.00107038 0.00293872 )  
( -0.00108038 0.00107262 0.00469707 )  
( 0.000157561 0.000112335 2.9966e-05 )  
( 0.00410487 -0.00218036 0.0043432 )  
( 0.000190536 0.00143229 0.00306071 )  
( -0.000387515 0.000204156 0.00598059 )  
( 0.000607564 0.00170898 0.0050523 )  
( 3.4637e-05 0.00109173 0.00518371 )  
( 0.00180947 0.00223489 0.00126492 )  
( 0.000109041 5.40305e-06 -5.98725e-05 )  
( 0.000456731 0.00311116 -0.000150104 )  
( 0.00138204 -0.000450316 0.00228111 )  
( 0.003716 -0.000689154 -0.000800995 )  
( -0.00191501 0.00022949 0.00515916 )  
( 0.000473794 0.000625041 -0.00047043 )  
( 0.00474584 0.000592515 0.00848486 )  
( 0.000894478 0.000855854 0.00444994 )  
( -0.000816093 0.00101681 0.00335978 )  
( -0.00173776 0.000155794 -5.41312e-06 )  
( 0.00352028 -4.81795e-05 0.00485401 )  
( 0.00204408 0.000599992 0.00299151 )  
( 0.000239189 0.00353997 -0.00391063 )  
( 0.00124152 0.000630818 5.42205e-05 )  
( 0.000324585 0.000811484 0.00497153 )  
( 0.00105331 0.00119117 -0.000479952 )  
( 0.000806033 -9.03977e-05 -0.0014254 )  
( -0.00238677 -0.00114668 0.000247029 )  
( 0.00244956 -0.000482669 0.00563866 )  
( 0.000155253 0.000319156 -0.000792317 )  
( 0.000403593 0.00150274 0.00382832 )  
( 0.00048542 0.000614532 0.00586395 )  
( -0.00204224 -4.75707e-05 0.00453131 )  
( 0.000308215 -0.00184952 0.00391494 )  
( -0.000313049 5.45845e-05 0.00591912 )  
( 0.000574564 -7.54616e-06 0.00373526 )  
( -0.00129471 0.000288742 0.00626817 )  
( 9.27959e-05 -0.000669516 -0.00179165 )  
( -0.00060725 0.00219337 0.00216776 )  
( -0.00128091 -0.000964709 0.0050294 )  
( -0.0010464 0.000935652 0.0044094 )  
( -0.000550304 0.00064073 0.00435257 )  
( -0.000171694 0.00130349 0.00542914 )  
( 0.00189085 -0.000552926 0.00101915 )  
( -0.002668 0.000129026 0.00645216 )  
( 0.00080411 0.00190417 -0.000109056 )  
( -0.0018686 -0.000432729 0.00307711 )  
( 0.00114663 0.00182899 0.0029888 )  
( -0.00320981 0.00165732 0.00602437 )  
( 0.00138774 0.000738447 0.00462916 )  
( 0.00029874 0.00137865 0.0040419 )  
( -0.00290157 0.00179243 0.00382823 )  
( -0.00209296 0.000531776 0.00264591 )  
( 3.31923e-05 0.00113006 0.00258244 )  
( -1.28513e-05 -0.000227464 -0.000275314 )  
( -7.03066e-05 0.0002952 -0.000400512 )  
( 0.00025981 0.00307092 0.00337422 )  
( -0.00529374 0.00322043 0.00542213 )  
( -0.000221565 0.000952041 0.00323319 )  
( 0.000914906 0.000560777 0.00344223 )  
( 0.000911279 0.000389002 0.00401526 )  
( -0.00207299 -1.67792e-05 -0.00060555 )  
( 0.00118153 0.00074396 0.00249481 )  
( 0.000258507 0.0012047 0.00397591 )  
( -0.00151739 0.00207603 0.00453998 )  
( 0.00122895 0.000834037 0.00193256 )  
( -0.000645103 0.00142611 0.00428388 )  
( 0.00395442 -0.00193475 0.00100831 )  
( 0.000522376 0.00127144 0.00456578 )  
( -1.47586e-05 0.000334063 1.53009e-05 )  
( -0.00200322 -0.00064823 0.000208234 )  
( -0.000168907 -0.000778803 0.0063081 )  
( 0.000266168 -7.16342e-05 -9.3238e-05 )  
( -0.000311768 -0.000218302 0.00012892 )  
( 0.000234612 0.000714968 0.00375343 )  
( 5.75023e-05 7.1095e-05 0.00623739 )  
( 0.000981644 0.00156949 0.00409748 )  
( -0.000458226 -0.00031049 0.00431566 )  
( -0.000122402 -0.000178439 -0.000140335 )  
( 0.00129631 0.00128694 0.00481512 )  
( 0.000292935 0.000982152 6.81526e-05 )  
( -0.00346234 0.00284759 0.00911103 )  
( -0.00033445 0.00131965 0.00457164 )  
( -0.00111969 0.0019826 0.00425235 )  
( 0.000964958 0.000931457 0.00523935 )  
( 0.00437592 0.00505453 0.00418817 )  
( 0.000151823 -2.24853e-05 -2.55037e-05 )  
( 0.000420582 7.82654e-05 0.000209995 )  
( -0.00188397 0.00135543 0.00645312 )  
( 0.00187095 -0.000890164 0.00187072 )  
( -0.000431246 0.00108742 0.0036171 )  
( 0.000955358 0.000267092 0.000297636 )  
( 0.00199702 0.00169602 0.00538681 )  
( 0.000702119 -0.000222394 0.000187578 )  
( 0.00333653 0.000610709 0.0026387 )  
( 0.000315578 0.00152055 0.00409837 )  
( -0.0008151 -3.78794e-05 0.0063357 )  
( -0.000578938 0.000267539 0.000657542 )  
( 7.61623e-06 0.000395504 -6.44455e-05 )  
( 0.000700305 0.00113677 0.00471383 )  
( 0.00110498 0.00161339 -5.41591e-05 )  
( 0.00185352 0.00249952 0.00291246 )  
( 0.000347578 0.000232395 0.000256471 )  
( 0.000652615 0.00436599 -0.000988175 )  
( 0.000246153 0.000732106 0.00460863 )  
( -0.00336258 0.00265042 0.00272569 )  
( -0.000159912 0.00258025 0.00565968 )  
( 0.000167462 0.000115568 8.19521e-05 )  
( -0.00294511 -4.10244e-05 0.0057742 )  
( -0.000496939 0.000345427 -0.000504722 )  
( -0.000324103 -0.000111348 0.00388278 )  
( 0.000503536 -0.000273162 3.37079e-05 )  
( 0.00123141 0.00113219 0.00496353 )  
( 0.00242814 0.00069732 -0.000607963 )  
( 0.000895197 0.00554932 0.00956329 )  
( 9.20088e-05 0.000517063 0.0055592 )  
( -0.00204119 0.00112592 0.0045854 )  
( 0.00019535 2.71985e-05 -8.24309e-05 )  
( 0.000732366 0.000143943 0.00460877 )  
( -0.00144591 -0.000823113 0.00290676 )  
( -0.00104269 0.000860445 0.00524437 )  
( -0.000381838 5.95822e-05 0.00247841 )  
( -0.000837749 0.00142353 0.00347475 )  
( 0.0023163 0.00338476 0.00543989 )  
( 0.00275349 0.00147675 -8.34254e-05 )  
( 0.00207781 -0.000649501 -5.01276e-05 )  
( -0.000565308 0.00104058 0.00423942 )  
( -0.00192777 0.000218072 0.00652781 )  
( 0.00117803 0.00289326 0.00395021 )  
( 0.002027 0.00163156 0.000221967 )  
( -0.00264894 0.00205943 0.00312462 )  
( 0.000543569 0.000830387 0.00215567 )  
( 0.000698938 0.000914758 -0.00247047 )  
( 0.00154197 0.000246386 0.0047663 )  
( 0.000350553 -0.000424884 0.00569278 )  
( 0.00105819 0.00146984 0.00956927 )  
( -0.000720565 9.08336e-05 0.00604466 )  
( 0.00183874 -0.0015111 0.00145583 )  
( 0.00171148 0.000315448 0.00457958 )  
( -0.000703764 0.000332831 -0.000139023 )  
( -3.14146e-05 -0.000224244 -0.000197929 )  
( 0.00121318 0.000282218 0.00474789 )  
( -0.00203363 0.00122482 0.0110149 )  
( -0.000382678 0.000212864 0.00640778 )  
( 5.60465e-05 -0.000518741 -0.000128454 )  
( 0.00442214 0.00178201 0.00712946 )  
( -0.00062444 0.00202598 0.000908935 )  
( 0.00434833 0.000643493 3.69256e-05 )  
( 0.000661511 0.00119163 0.00317378 )  
( 0.00192634 -0.00123308 5.25376e-05 )  
( 0.000741565 0.000599694 -7.10902e-05 )  
( 0.00167398 0.00021347 0.00546313 )  
( 0.001027 0.000400898 -1.28174e-05 )  
( -0.00288272 -0.000246313 0.00431801 )  
( 0.000207811 -0.000395617 -1.09896e-05 )  
( 6.92925e-05 4.54294e-05 3.35425e-05 )  
( 0.000168579 -0.000154732 -0.00126178 )  
( -0.000146426 0.000869397 0.00374741 )  
( 0.00120984 -0.000801914 -0.000145294 )  
( 0.00163126 0.0023427 0.00616678 )  
( 0.000784287 0.000701556 0.00379761 )  
( 0.000185446 0.000757922 0.00480667 )  
( 0.00059684 -0.000148333 -0.000129918 )  
( 0.00120448 -0.000168937 0.00251409 )  
( -0.000233095 -4.77249e-05 0.00419753 )  
( -0.000211613 0.000155958 0.00536561 )  
( 6.72292e-05 0.00111953 0.00347522 )  
( -0.00078171 0.00166415 0.000192239 )  
( -0.00052369 -0.000128009 0.00467097 )  
( 0.000500085 0.00117487 0.00346115 )  
( -0.000614585 -0.000314251 0.0054615 )  
( 0.000845076 0.000524994 0.00259411 )  
( 0.00369553 -0.000446067 0.00242881 )  
( -0.000725757 0.000899914 -0.000183092 )  
( 0.00030899 0.000227456 -0.0014461 )  
( 0.00229716 0.000151246 0.00408671 )  
( -0.00267798 0.00361611 0.00187989 )  
( -0.000310698 0.000701522 0.0047012 )  
( -0.000671595 0.000703992 0.00455008 )  
( 0.000105836 3.83547e-07 3.50633e-05 )  
( 0.00048448 0.000408113 0.00200375 )  
( 0.00227781 0.00153266 0.00546458 )  
( 0.000856959 0.000654228 -0.00017857 )  
( -0.00134614 -0.000917358 0.000502741 )  
( 0.000828625 0.000700377 0.00367084 )  
( 0.000521811 2.88119e-05 0.00675311 )  
( 0.00236647 0.00484159 0.00705927 )  
( -0.000322653 -9.85209e-05 -0.000290384 )  
( -0.000486899 0.00159554 0.00390973 )  
( -0.000167213 0.000846508 0.00350362 )  
( -0.00375037 -0.0019595 -0.00428786 )  
( -0.000115795 0.000116261 0.00435972 )  
( -0.000728989 -0.000139046 0.00656598 )  
( -0.000379281 0.00041003 0.00325135 )  
( -0.00109065 0.000315027 7.64948e-05 )  
( 0.000583395 0.00157635 -0.00120398 )  
( -0.00151498 0.00145156 0.00213783 )  
( 8.36261e-05 4.87032e-05 -0.000136081 )  
( 0.00109168 0.00101865 0.00376007 )  
( 0.00101947 0.00150441 0.00555555 )  
( 0.000247322 0.000572575 0.006405 )  
( 2.90862e-05 8.9936e-05 1.83193e-05 )  
( -0.00122844 0.000849808 0.00475895 )  
( 0.00222652 0.00135728 0.00465446 )  
( -0.00456826 0.00219658 0.00531512 )  
( 0.00416772 0.000114591 0.00971143 )  
( -0.00142752 0.00303323 0.0033143 )  
( 0.00308611 0.0060904 0.00680615 )  
( 0.000120999 -4.08992e-05 0.00532182 )  
( -7.18557e-05 0.000746298 -2.67733e-05 )  
( 0.00308731 0.00200342 -0.0026904 )  
( -0.00137428 0.0037746 0.00699193 )  
( 0.00384317 -0.00197318 0.00346288 )  
( -0.000396032 0.000262471 -0.000681548 )  
( -0.000473919 0.00184768 0.00321783 )  
( 0.00116491 -0.000586181 0.000194366 )  
( 0.000195564 0.000551286 -3.99201e-05 )  
( -0.000527603 -9.29428e-05 0.00568089 )  
( 0.000141239 -3.89042e-05 -0.000129874 )  
( -3.2966e-05 0.000813513 0.00588594 )  
( -0.00395432 0.00540416 0.0117385 )  
( -0.00125865 0.00095819 0.00470857 )  
( 0.00215253 -0.00145363 -1.30772e-06 )  
( 0.00130556 0.00273493 0.00471575 )  
( 6.48581e-05 5.81019e-05 -8.34022e-06 )  
( -0.00291561 0.00224391 -0.000978777 )  
( 0.00218683 0.0041186 0.00550446 )  
( -0.000256846 0.000842928 0.00406194 )  
( -0.000387993 0.00169376 0.00334587 )  
( 0.000797172 0.000346997 -0.000624358 )  
( 0.00013536 1.97656e-05 -0.000195279 )  
( 0.000112872 -0.000135793 1.686e-05 )  
( 0.000124686 0.000990259 0.00375107 )  
( 0.00151632 0.000818123 0.00626631 )  
( -0.00123267 0.000199628 -0.000435754 )  
( -0.00062261 0.000874979 -4.9953e-06 )  
( -0.000165152 0.000358107 0.00602365 )  
( 0.00170806 0.0047396 0.00328437 )  
( 0.00173918 0.000209347 0.00376258 )  
( -3.40049e-05 0.00433832 0.00988656 )  
( 0.000425109 -0.000476081 -0.000240576 )  
( 0.000561187 -0.000768707 0.000144375 )  
( 0.000833577 0.00274415 -9.85477e-05 )  
( -0.000390931 0.00229337 0.00307158 )  
( -6.84832e-06 0.000685484 0.00380968 )  
( 0.000828169 -0.000206471 6.17486e-05 )  
( -0.000403146 0.00097822 0.00461163 )  
( -0.00231489 -0.00329381 0.00773988 )  
( 0.000726272 0.00143813 0.00432748 )  
( -0.000281849 -0.000259417 0.0011882 )  
( -0.000294992 -0.000328652 -0.000344515 )  
( 0.00278258 -0.00193827 -0.000684017 )  
( -0.00197402 0.0009403 0.00129545 )  
( 0.00135155 0.00139285 0.00508137 )  
( -0.00173862 0.00208876 -0.000221965 )  
( 0.000191515 -0.000185692 0.00557329 )  
( 0.00150831 0.00056899 0.00518025 )  
( 1.37058e-05 0.00115957 0.00355248 )  
( 0.000578556 -0.000837837 0.00460567 )  
( 0.000717818 -0.000192091 0.00634766 )  
( 0.00107831 0.00140248 -7.47714e-05 )  
( 0.000489463 -0.000742886 0.00658291 )  
( 0.00543436 0.000617711 0.0117866 )  
( -0.000389449 0.000256797 0.00515231 )  
( 3.72655e-05 0.000360795 0.00477117 )  
( 5.96969e-05 0.00180734 0.0038764 )  
( 8.34999e-05 -0.000183416 0.00514329 )  
( -6.89069e-06 7.1835e-05 -4.80782e-05 )  
( 0.00126221 0.00116282 0.00593764 )  
( -0.000568312 -0.000255779 -7.35323e-05 )  
( -0.00164022 0.00236566 0.00365628 )  
( 0.00125953 0.00108533 0.00579133 )  
( 0.000443395 0.000352849 1.66945e-05 )  
( -0.00157166 0.00168216 0.00585844 )  
( 0.00214906 -0.000733227 0.00299865 )  
( 0.000533249 0.00162063 0.00417128 )  
( 0.000953376 -0.000454638 5.16362e-05 )  
( -0.00107604 0.000949682 0.00474701 )  
( 0.000895007 -0.000383806 0.00319901 )  
( -6.114e-05 0.000670798 0.000116089 )  
( -0.000418358 0.00288547 -0.000782732 )  
( -0.000246415 0.00105414 0.00452196 )  
( 0.000862855 0.00206265 0.00781911 )  
( 8.06272e-05 6.71186e-05 2.44674e-05 )  
( 0.00128131 0.00226418 -0.00211994 )  
( 0.00299513 -0.00044847 0.00348955 )  
( 0.00192499 0.000257356 0.0040499 )  
( 0.000107716 0.00134877 -5.07912e-07 )  
( -0.000720421 0.00166831 0.00416418 )  
( 0.000859103 0.000531871 0.0016762 )  
( 0.000147604 5.22353e-05 -4.36792e-05 )  
( -0.00337917 0.000507567 -0.000449439 )  
( 0.00289946 0.0021317 0.00204746 )  
( 0.000218618 0.00126514 0.0052802 )  
( -0.00235773 -0.00130345 0.00110334 )  
( 0.00297044 0.000789495 0.00672406 )  
( -0.000726048 0.00149299 0.00416203 )  
( 2.71861e-05 0.000307827 0.0052546 )  
( 0.00222517 0.00197252 -0.000750339 )  
( -0.000769058 0.00103788 0.00405733 )  
( 0.000425726 0.000881463 -0.000870162 )  
( -0.000737404 0.000763748 -0.000280872 )  
( 0.00162942 -0.00171911 0.00640164 )  
( 0.00122953 0.00328882 0.00453511 )  
( 4.56978e-05 0.000104773 2.56399e-05 )  
( -6.75866e-06 0.000195848 -7.35799e-05 )  
( 0.000226598 0.00194807 0.00392851 )  
( -1.73128e-05 0.000134213 0.000116179 )  
( -3.11705e-06 -0.00101813 0.00478814 )  
( 0.00312705 0.00535683 0.00966097 )  
( -4.95616e-05 -0.000819053 0.00418767 )  
( 0.000489109 0.000670781 0.00459598 )  
( 0.00156413 0.00161002 0.000464231 )  
( 0.000664062 0.000217151 0.00305027 )  
( -0.000127346 0.00016668 2.10832e-05 )  
( 0.000211605 0.00264935 0.00473048 )  
( 0.000752222 -0.000448774 0.000460049 )  
( 0.000883621 -0.000515847 0.000425221 )  
( 0.000350211 0.000123055 0.00440223 )  
( 0.00032677 -0.000294944 5.21984e-05 )  
( -0.000139773 0.000478137 0.00359762 )  
( -0.00346795 -0.000962787 -0.000808736 )  
( 0.000667781 0.000420479 3.46835e-05 )  
( -0.000512242 0.00107833 -0.000119298 )  
( 5.07938e-05 1.79541e-05 -8.25565e-05 )  
( 0.00053671 5.77744e-06 0.000159258 )  
( -0.000502 0.000240543 0.00554079 )  
( 0.000147319 0.000146395 -0.000351366 )  
( 7.36647e-05 0.00251504 0.00518192 )  
( 0.000739524 0.000579204 -0.000407227 )  
( -0.0023949 0.00273719 8.45065e-06 )  
( 0.00312605 0.000455621 -0.00218692 )  
( 0.00125538 0.00042022 0.002519 )  
( -0.000199726 0.00217977 0.00488806 )  
( 0.0050135 0.000162117 -0.00229983 )  
( 5.35773e-05 0.000135687 -3.22317e-06 )  
( -0.00265928 0.000775078 -0.00315665 )  
( 0.000280642 9.60429e-05 1.93976e-05 )  
( -0.00054199 -0.000117048 0.0023211 )  
( -0.00335866 -0.000348602 -0.00191922 )  
( 0.000130035 0.0013207 0.00511821 )  
( -0.00262932 0.00322646 0.00394481 )  
( -0.000228456 0.00145385 0.00379272 )  
( -0.000807187 0.0008444 -0.000127665 )  
( -0.000784483 0.00128053 0.00397144 )  
( 0.00400827 0.00236239 0.0089758 )  
( 0.00108333 -0.000197024 0.00596904 )  
( 0.000453656 0.00017793 0.00311024 )  
( -0.00172152 0.00103052 0.00471068 )  
( -0.00142495 -0.000931625 0.00199067 )  
( -0.000179223 -0.000151806 0.00504223 )  
( 0.00138675 0.000890529 0.00527169 )  
( -0.000972711 0.00065935 0.0058199 )  
( 0.000169204 0.000458904 0.00494614 )  
( -0.00204267 0.00106915 0.00578188 )  
( 0.00133947 0.00184458 0.00351329 )  
( -0.00332104 0.00119618 -0.00320665 )  
( 0.00078955 0.00137966 0.00244349 )  
( -0.00015579 0.00042277 0.00570033 )  
( 0.000628034 0.00253599 0.00453045 )  
( -0.000753818 0.000780643 0.00441345 )  
( 0.000175517 0.00120973 0.00525313 )  
( -0.00337619 0.000352522 0.00816338 )  
( -0.000408014 0.000401259 0.00539167 )  
( -1.18699e-05 0.00130201 0.00420456 )  
( 0.000708908 0.000395109 -0.00111289 )  
( -0.000221832 0.000559794 -1.78683e-06 )  
( 0.000106906 -0.000184267 0.00415714 )  
( 0.000120432 0.0011011 0.00441797 )  
( -0.00250961 0.00102026 8.89606e-07 )  
( 0.00447118 0.00227445 0.00700853 )  
( 0.00147386 0.000605049 0.00368935 )  
( 0.000266574 0.000641142 0.00446813 )  
( 0.000135305 -0.000130467 0.00607827 )  
( 0.000574969 0.000134357 0.00590824 )  
( 0.00181611 0.00282194 -0.000424762 )  
( 9.65547e-05 0.000945453 0.003949 )  
( 0.002262 -0.00100904 0.0042832 )  
( 0.000187611 0.000480984 0.00267465 )  
( -0.00109965 0.00044404 0.00630177 )  
( 0.00140688 0.000383619 0.00576936 )  
( -1.59779e-05 0.000611575 -0.00255919 )  
( -0.000146509 0.00153862 0.00568254 )  
( -0.000650184 0.000187822 -0.00188854 )  
( 0.000190229 0.000349239 0.00245293 )  
( 0.000387949 -0.000841424 -4.0862e-05 )  
( 0.000353742 -0.000386763 -0.000733194 )  
( 0.000694901 -0.000822179 -0.000871751 )  
( 0.000898865 0.000913015 0.000311576 )  
( -0.000856889 0.00046825 0.00472797 )  
( 0.000969265 -0.000554311 2.75678e-05 )  
( 0.000939853 0.000966941 -0.00188214 )  
( -0.00162929 0.00377891 0.00344386 )  
( -6.94001e-07 0.000883635 0.00290669 )  
( 0.000394794 0.000759082 1.1527e-05 )  
( 0.00154672 0.00292542 0.00271605 )  
( -0.000801704 0.000463751 -0.000808022 )  
( 8.79674e-05 -8.62326e-05 -5.29027e-05 )  
( 0.00151981 0.00101942 0.00400187 )  
( 0.000614727 0.000652144 0.00206272 )  
( -0.00373378 0.00140055 0.000565959 )  
( 9.21419e-05 1.46898e-05 -5.87028e-05 )  
( 0.000888482 0.000456314 0.000704146 )  
( 0.000119585 0.00022282 0.00542183 )  
( 0.00263836 0.00193361 0.00110826 )  
( 0.000584658 0.00072891 -5.16408e-05 )  
( 0.000103364 0.000773039 0.00560935 )  
( -0.00117353 0.00077516 0.00527639 )  
( -5.44446e-05 0.000431032 0.00558007 )  
( 0.00123263 0.00173516 0.00565166 )  
( -8.81381e-05 0.000699903 0.00432229 )  
( 0.00342105 -0.00197537 0.000708543 )  
( 0.000362292 -0.000307372 0.0034732 )  
( 0.000962254 0.000390001 0.0037009 )  
( -9.84475e-05 -2.9095e-05 0.0038811 )  
( 0.000172153 0.000200461 8.94171e-05 )  
( 0.000422123 -0.000429048 9.64766e-05 )  
( 0.000154115 4.00556e-05 4.24541e-06 )  
( 0.00141257 0.00307908 0.00254157 )  
( 0.000356924 0.000438589 0.00538551 )  
( -0.00101147 0.00119955 0.000124903 )  
( -0.00206892 0.00066492 -0.000899535 )  
( -0.000766672 -0.00157521 6.46383e-05 )  
( 0.000526656 0.000968691 0.00567122 )  
( 0.00264238 0.00380463 0.00773975 )  
( -0.0010286 0.00160305 0.00374588 )  
( -0.000331714 -0.000672118 0.00553682 )  
( 7.00667e-05 4.18704e-05 8.34134e-05 )  
( -0.00109217 0.000246806 0.00544588 )  
( 0.000867572 0.00044452 0.00294146 )  
( -0.000243437 -0.00128048 0.00676472 )  
( 5.97426e-05 0.000237573 -0.00123118 )  
( 0.000459526 0.00128898 0.00259816 )  
( 0.000767675 0.0001669 0.00745192 )  
( 0.00271536 0.00266418 0.00548922 )  
( -0.000311071 0.000128714 0.00433449 )  
( 0.000315033 9.56737e-05 0.0040635 )  
( -0.000320109 0.00248017 -0.000664178 )  
( 0.00210723 -0.000809474 -0.000497338 )  
( 0.000142741 -0.000454801 -5.08032e-05 )  
( 1.68987e-05 0.00026444 0.00618305 )  
( 0.000453198 -0.000243275 0.00466908 )  
( -0.000690868 -0.00114691 -9.62081e-05 )  
( 0.000192763 -0.000570477 -5.40983e-06 )  
( -0.000143077 0.000771509 0.000179677 )  
( -0.00371776 0.00286429 0.0047283 )  
( 0.000700947 -4.05135e-05 0.00564364 )  
( -0.00380958 0.00269344 0.00540415 )  
( 0.00181871 -0.00233351 -0.00392038 )  
( -0.00124988 0.0012445 0.00148083 )  
( 0.000142586 0.000255574 6.32443e-05 )  
( 0.000109691 0.000417638 -2.1736e-07 )  
( 0.00269168 0.00202424 0.00535728 )  