/*--------------------------------*- C++ -*----------------------------------*\
| =========                 |                                                 |
| \\      /  F ield         | OpenFOAM: The Open Source CFD Toolbox           |
|  \\    /   O peration     | Version:  2506                                  |
|   \\  /    A nd           | Website:  www.openfoam.com                      |
|    \\/     M anipulation  |                                                 |
\*---------------------------------------------------------------------------*/
FoamFile
{
    version     2.0;
    format      ascii;
    arch        "LSB;label=32;scalar=64";
    class       volScalarField;
    location    "0.008";
    object      Ksl;
}
// * * * * * * * * * * * * * * * * * * * * * * * * * * * * * * * * * * * * * //

dimensions      [1 -3 -1 0 0 0 0];

internalField   nonuniform List<scalar> 
512
(
0
0.208837
1.52663
0
0
0
0
0
0
0
0
0
0
0
0
0
0
0
0
0
0
0
0
0
0
0.739411
0
0
0
0
0
0
0
0
0
0
0
0
0
0
0
0
0
0
0
3.61607
0
0
0
0
0
0
0
0
0
0
0
0
0
0
0
0
0
0
0
0
1.22795
0
0.122618
3.44947
0
0
0
0
0
0
0
0
0
0
0
3.61941
0
0
0
0
0
0
0
0
0
0
0
0
0
0
0
0
0
0
0
0
0
0
0
3.48235
0
0
0.737835
0
0
0
0
0
0
0.122657
0
0
0.488028
0
0
3.47973
0
0
0
3.60181
0
0
0
0
0
0
3.57873
0
0
0
0
0
0
0
0
0
0
0
0
0.739697
2.35617
1.24201
0
0.735227
4.42366
0
0
0
0
0
0
0
0
0
0
0
1.23524
0
0
0.1228
3.61117
0
2.8545
0
0
0
0.124577
0
0
0.122652
0
0
0.742842
0
0
0
0
0
3.62787
0
0
0
0
0
0
0
0
0
0
0
0
0
0
0
0
0
0
0
0
0.123866
3.61228
0
0
0
0
0
0
0
0
0
0
0
0
0
0
0
0
0
0
0
0
2.803
0
0
0
0
0
0
0
0.332348
0.165924
0
0
0
0
0
0
0
0
0
0
0
0
0
0
0
1.54959
0
0
0
0.553904
5.7131
1.30882
0.902652
0.162972
13.3724
4.7342
6.75305
3.8532
3.59173
6.83117
1.26707
4.88402
6.35029
2.93779
3.82875
3.8167
12.5797
0.464995
3.73624
4.61967
7.41351
10.6107
0.0967476
2.72221
9.95189
3.67686
1.06547
7.60765
5.77873
1.06161
6.90117
3.83278
6.60966
3.02548
8.21591
4.14327
14.0418
15.002
3.8725
6.8592
7.10372
0.918216
4.14733
7.38865
3.88406
3.4144
5.73641
10.3217
10.5688
5.81776
13.7157
6.88393
7.50707
8.66373
4.21014
16.1992
7.8635
0.555955
8.84842
11.1455
1.5089
7.52119
7.05647
7.18626
16.434
9.76445
4.06587
7.38014
6.58796
10.8127
4.98855
0.977422
14.5386
4.17357
7.89824
5.01425
4.38886
10.4627
9.57555
3.74518
3.61936
1.74636
3.81475
1.21901
12.3747
5.70694
6.57239
4.58658
8.21718
12.5703
10.9436
1.3315
0.061539
16.3036
3.71555
0.417779
3.47222
4.04378
7.46036
4.06168
14.8055
7.16985
9.29677
2.33597
3.96084
2.86524
14.3022
3.22493
0.20339
6.36957
11.3662
3.93315
6.19852
9.77651
16.3186
0.955601
16.7268
4.4661
0.282241
4.58525
8.08416
4.91936
9.32557
4.42263
8.51661
8.17664
3.14446
3.50714
9.74424
6.2929
6.07282
4.97655
4.79412
14.5145
11.5427
9.56939
9.04247
13.3524
12.549
5.90248
7.51521
8.61072
6.63089
0.0963724
9.5981
7.30829
8.4993
8.27349
13.868
9.08442
7.43699
6.33858
5.22655
11.4238
10.0288
0.807176
7.08652
0.435489
12.6452
8.14695
4.73873
5.93105
5.79078
7.43521
9.16073
7.4101
6.37903
2.39209
7.28619
3.25335
0.250687
10.8182
11.3363
4.57745
16.4039
10.3843
0.437736
6.83896
10.6586
0.225126
0
1.38794
3.6551
3.70081
0.371366
0
3.75963
10.0094
2.01612
9.23647
14.9591
0.658669
10.5185
12.5914
10.8243
7.63733
3.81088
7.46376
6.60585
4.6074
10.4356
8.18578
3.83132
1.35215
7.38012
10.876
10.2384
11.3915
11.2423
2.58789
3.96768
0.228858
8.17606
15.0173
5.13083
7.84923
17.817
5.47538
1.34845
0
7.68658
2.00723
5.14114
0.0953427
0.286573
5.6554
3.88454
0.0961455
6.42569
7.28135
1.17175
2.38025
11.6106
0.382701
1.41717
6.63052
1.1405
6.46637
1.01321
4.2891
2.32403
0.148269
7.0353
8.24267
3.13825
5.51419
7.52441
4.04021
4.99912
3.60519
12.0854
3.05004
4.74542
8.70264
4.53469
)
;

boundaryField
{
    wall
    {
        type            zeroGradient;
    }
    outlet
    {
        type            cyclic;
    }
    inlet
    {
        type            cyclic;
    }
    procBoundary3to2
    {
        type            processor;
        value           uniform 0;
    }
}


// ************************************************************************* //
