/*--------------------------------*- C++ -*----------------------------------*\
| =========                 |                                                 |
| \\      /  F ield         | OpenFOAM: The Open Source CFD Toolbox           |
|  \\    /   O peration     | Version:  2506                                  |
|   \\  /    A nd           | Website:  www.openfoam.com                      |
|    \\/     M anipulation  |                                                 |
\*---------------------------------------------------------------------------*/
FoamFile
{
    version     2.0;
    format      ascii;
    arch        "LSB;label=32;scalar=64";
    class       volScalarField;
    location    "0.008";
    object      p;
}
// * * * * * * * * * * * * * * * * * * * * * * * * * * * * * * * * * * * * * //

dimensions      [0 2 -2 0 0 0 0];

internalField   nonuniform List<scalar> 
512
(
0.0839538
0.346167
0.246204
0.0841296
0.415313
0.679494
0.130803
-0.907235
-1.46506
-0.792421
-0.240813
-0.048388
-0.187234
-0.371669
-0.0325056
0.0737336
0.111416
0.304346
0.23867
0.446069
0.767989
0.657982
0.394196
0.0189761
-0.0891982
-0.0408734
0.0522587
0.359628
0.597049
0.359722
-0.163641
-0.272291
0.199357
0.116188
0.0756574
0.0600038
0.280305
0.490642
-0.0659919
-1.0672
-1.30084
-0.782904
-0.24588
0.173249
0.208614
-0.0773748
-0.138034
0.156316
0.282337
0.418961
0.3172
0.238735
0.68783
0.73639
0.349022
-0.142955
-0.285336
-0.0959141
0.200483
0.448494
0.545142
0.394789
-0.0612781
-0.0964091
0.402534
0.210452
0.259248
0.272877
0.217629
0.327068
-0.0368368
-0.708351
-1.24038
-1.02413
-0.289062
-0.0121266
-0.140215
-0.277528
-0.0800205
0.359501
0.421428
0.157025
0.0290832
0.0177448
0.392356
0.458285
0.2867
0.177615
0.276384
0.174602
-0.00522256
0.197455
0.471989
0.381682
0.000702038
0.226065
-0.0582654
0.0460697
0.130446
0.13915
0.155174
0.227233
0.00595058
-0.467349
-0.916942
-0.872771
-0.511634
-0.275342
-0.120247
0.0330606
0.233887
0.372819
0.354444
0.315416
0.257008
0.239934
0.246775
0.229805
0.157001
0.176854
0.262766
0.281857
0.109417
0.126718
0.474211
0.522398
0.116756
-0.119373
0.403968
0.170934
0.0683221
0.252659
0.323632
0.118098
-0.116374
-0.511571
-0.831897
-0.832157
-0.837515
-0.438521
-0.146627
0.168172
0.375959
0.515377
0.24646
0.0360653
0.441531
0.520371
0.196948
-0.13947
-0.12889
0.11399
0.280688
0.381443
0.457008
0.275912
0.0151954
-0.166752
0.295447
0.636421
0.356112
0.232492
0.282234
0.358938
0.321882
0.190526
-0.169544
-0.614536
-0.813042
-0.619279
-0.586603
-0.580957
-0.362396
0.0893232
0.280024
0.371943
0.274348
0.240734
0.520825
0.561748
0.339935
-0.0511641
-0.360325
0.0478346
0.431459
0.475746
0.565688
0.319222
0.0450372
-0.0978369
-0.00955419
0.36017
0.379007
0.262407
0.184227
0.240498
-0.0262902
-0.0942669
-0.176267
-0.412324
-0.47336
-0.375111
-0.454275
-0.620807
-0.579543
0.0974163
0.431632
0.104272
0.0684179
0.192331
0.297805
0.496916
0.558181
0.286497
-0.170069
-0.0160398
0.303684
0.189041
0.299451
0.382027
0.159137
0.275466
0.329962
0.249981
-0.0178291
0.220946
0.49053
0.401677
0.0491479
-0.289388
-0.3803
-0.353595
-0.314033
-0.380497
-0.352127
-0.521243
-0.613957
0.0683096
0.368724
0.260333
0.279777
0.225716
0.487915
0.657094
0.534949
0.0140798
-0.205561
0.0037271
-0.01014
0.0524599
0.49554
0.551884
0.396556
0.26506
0.278453
0.171056
-0.43693
0.224195
0.327043
0.267562
0.560621
0.587654
0.16482
-0.630122
-1.13246
-0.749588
-0.512411
-0.169865
0.223152
0.115373
-0.088868
-0.0787699
-0.048398
0.299847
0.460144
0.228941
0.335019
0.555626
0.521821
0.31206
0.056791
0.0657815
-0.0328536
0.157027
0.554045
0.313716
-0.135437
-0.530915
-0.0635674
0.0772886
0.285466
0.056713
0.000989999
0.488231
0.386201
-0.632932
-1.34075
-1.33651
-0.570885
0.158484
0.199645
0.105222
0.389061
0.509376
0.204562
-0.0499787
0.116327
0.342
0.465497
0.598322
0.491756
0.127382
-0.14228
-0.235461
-0.0667902
0.111462
0.32983
0.495008
0.208411
-0.129542
0.220363
0.253262
-0.0186509
-0.169929
0.365432
0.538106
-0.0450048
-1.21107
-1.40898
-0.772484
-0.378598
-0.173813
-0.149236
-0.275118
0.0278973
0.441882
0.587885
0.476385
0.149436
-0.155395
0.212479
0.548523
0.297378
0.172773
0.300396
0.49222
0.253735
-0.0590631
0.040621
0.527866
0.639423
0.257358
0.273247
-0.133145
-0.0912193
0.18188
0.279976
0.431056
0.0297196
-0.513852
-0.822121
-1.04729
-0.714059
-0.140451
-0.166014
-0.133871
0.257613
0.60763
0.750948
0.653186
0.283031
-0.00281888
0.171109
0.27631
0.103334
-0.136767
-0.178034
-0.059189
-0.0360089
-0.0135349
0.144535
0.491273
0.867729
0.818499
0.377945
0.0823054
0.0294471
0.179093
0.247954
0.239987
0.0323176
-0.675355
-1.09438
-0.826546
-0.365616
-0.166973
-0.0389925
-0.0648707
-0.0133962
0.321874
0.531165
0.459318
0.434763
0.522107
0.284315
-0.0675669
-0.059583
-0.138645
-0.230099
0.165134
0.607683
0.110485
-0.183519
0.275357
0.792595
0.787904
0.117377
0.0801403
0.118701
0.314743
0.516734
0.21352
-0.841762
-1.30545
-0.71739
-0.302663
-0.411615
-0.22342
0.151993
0.178683
0.339526
0.530438
0.19372
-0.0384593
0.506511
0.688483
0.423236
-0.323072
-0.987773
-0.3049
0.338278
0.712589
0.697639
0.217019
0.0477649
0.385854
0.904829
0.659948
0.244916
0.695154
0.492446
-0.0525199
-0.153581
-0.192519
-0.198274
-0.332057
-0.548012
-0.47852
-0.494631
-0.477078
-0.185396
0.197559
0.40624
0.4418
0.28437
0.241456
0.459209
0.518144
0.398915
0.203735
-0.141136
-0.144894
0.310077
0.498199
0.35163
-0.0187691
0.0830324
0.296848
0.194117
0.0515732
-0.283229
0.26332
0.630567
0.214954
-0.175872
-0.460698
-0.414646
-0.383494
-0.323461
-0.248772
-0.420545
-0.541734
-0.299925
0.047471
-0.00469066
0.441726
0.846174
0.303355
0.448811
0.743935
0.520583
0.0841165
-0.20324
-0.10016
0.23073
0.243357
0.282655
0.456019
0.228578
0.237277
0.506274
0.201438
)
;

boundaryField
{
    wall
    {
        type            zeroGradient;
    }
    outlet
    {
        type            cyclic;
    }
    inlet
    {
        type            cyclic;
    }
    procBoundary3to2
    {
        type            processor;
        value           nonuniform List<scalar> 
256
(
0.218982
0.485999
0.275544
-0.148655
-0.190187
0.41859
0.185296
-0.697571
-1.26109
-0.844414
-0.239123
-0.0629358
-0.314039
-0.165087
0.186764
0.169035
0.188535
0.218283
0.203614
0.42407
0.544502
0.499864
0.330642
-0.150863
-0.136125
0.00840441
0.0372131
0.49513
0.852232
0.490338
-0.0909742
-0.16506
0.407993
0.216574
-0.0923092
-0.111587
0.163464
0.44709
0.155348
-0.690391
-1.2275
-0.883429
-0.458187
-0.12416
-0.10108
-0.192534
0.166973
0.478934
0.428921
0.132557
0.0265149
0.375687
0.521859
0.590541
0.311478
-0.209904
-0.117297
0.206782
0.26066
0.305058
0.3321
0.124178
0.0179615
0.143003
0.152611
0.0177087
0.209189
0.403566
0.113638
0.242837
0.138226
-0.484591
-1.17955
-0.868003
-0.438124
-0.259445
-0.242623
-0.239979
0.0299068
0.359932
0.307803
-0.00518916
0.0687568
0.426737
0.489611
0.350692
0.0108297
-0.163727
-0.135994
0.142745
0.33713
0.410486
0.438041
0.42263
0.364756
0.320188
-0.0833118
0.0615563
0.237517
0.079903
0.0931352
0.158431
0.177569
-0.108692
-0.703422
-0.985478
-0.94485
-0.502631
-0.257626
-0.118287
0.275462
0.45647
0.427631
0.314968
0.204839
0.282323
0.271361
0.109737
-0.022833
0.0135196
0.201422
0.285094
0.233911
0.272316
0.369672
0.481843
0.387798
0.121735
0.261351
0.0989111
0.207424
0.272471
0.182197
-0.00970838
-0.20048
-0.395105
-0.567711
-0.721782
-0.799173
-0.63401
-0.0195011
0.215024
0.291308
0.479513
0.306402
0.137126
0.473839
0.418493
0.10168
-0.168469
-0.170708
0.119806
0.341933
0.249856
0.0749016
0.281989
0.291144
0.000813296
0.376184
0.527603
0.0109815
-0.281302
0.272992
0.745902
0.324146
-0.273649
-0.588819
-0.4075
-0.23997
-0.403156
-0.784404
-0.844681
-0.233217
0.26284
0.374763
0.4432
0.24614
0.338923
0.43907
0.204764
0.0924312
-0.0823287
-0.420079
0.00856199
0.49152
0.386091
0.443874
0.659071
0.350027
0.0915897
0.453787
0.523058
-0.152509
-0.0832616
0.438868
0.837942
0.332543
-0.392381
-0.757942
-0.476905
-0.368163
-0.615795
-0.663654
-0.529813
-0.425913
0.12988
0.842661
0.813783
0.399113
0.230114
0.358202
0.238512
-0.132355
-0.192215
-0.0393924
0.103183
0.252008
0.344513
0.493467
0.668171
0.347717
0.0911006
0.246547
0.20024
-0.208002
0.102328
0.688672
0.692053
0.157179
-0.235637
-0.425525
-0.458
-0.649276
-0.860658
-0.747238
-0.65095
-0.456376
0.24474
0.590838
0.60181
0.540599
0.319856
0.325339
0.326434
-0.0495538
-0.323243
0.0620694
0.365746
0.290678
0.45639
0.6176
0.73003
0.413576
-0.15642
0.098192
0.203888
)
;
    }
}


// ************************************************************************* //
