/*--------------------------------*- C++ -*----------------------------------*\
| =========                 |                                                 |
| \\      /  F ield         | OpenFOAM: The Open Source CFD Toolbox           |
|  \\    /   O peration     | Version:  2506                                  |
|   \\  /    A nd           | Website:  www.openfoam.com                      |
|    \\/     M anipulation  |                                                 |
\*---------------------------------------------------------------------------*/
FoamFile
{
    version     2.0;
    format      ascii;
    arch        "LSB;label=32;scalar=64";
    class       volScalarField;
    location    "0.08";
    object      Ksl;
}
// * * * * * * * * * * * * * * * * * * * * * * * * * * * * * * * * * * * * * //

dimensions      [1 -3 -1 0 0 0 0];

internalField   nonuniform List<scalar> 
1152
(
60232.8
119996
134278
100780
156047
71849.7
330690
124925
108358
122510
121561
83908.8
169880
101766
73582.4
60543.3
220994
214102
144748
410890
201409
276414
191920
127325
164846
192873
226358
288310
422053
343133
3.56557e+06
251243
120186
350017
208476
3.63075e+06
334014
171648
375632
158947
322812
267385
213700
367819
154242
150655
127485
194462
267453
181438
425847
259385
421969
398488
137959
193813
137130
262882
228044
411587
6.74879e+06
270868
185675
804559
168189
280838
151745
305913
220258
306139
345348
180893
436115
171623
434251
167523
105685
7.65258e+06
114995
136061
449160
139077
295358
122026
127468
673936
183440
1.49725e+06
210719
128503
224581
339435
361999
604824
208438
252153
57459.9
46387.8
95351.2
38433.1
57453.4
159208
62904.4
136326
144839
44661.9
113018
59988.3
547883
90177.1
20853.8
34774.7
0
0
0
0
0
0
0
0
0
0
0
0
47.7552
0
0
0
0
0
0
0
0
0
0
0
0
0
0
0
0
0
0
0
0
0
0
0
0
0
0
0
0
0
0
0
0
0
0
0
0
0
0
0
0
0
0
0
0
0
0
0
0
0
0
0
0
0
0
0
0
0
0
0
0
0
0
0
0
0
0
0
0
0
0
0
0
0
0
0
0
0
0
0
0
0
0
0
0
0
0
0
0
0
0
0
0
0
0
0
0
0
0
0
0
0
0
0
0
0
0
0
0
0
0
0
0
0
0
0
0
0
0
0
0
0
0
0
0
0
0
0
0
0
0
0
0
0
0
0
0
0
0
0
0
0
0
0
0
0
0
0
0
0
0
0
0
0
0
0
0
0
0
0
0
0
0
0
0
0
0
0
0
0
0
0
0
0
0
0
0
0
0
0
0
0
0
0
0
0
0
0
0
0
0
0
0
0
0
0
0
0
0
0
0
0
0
0
0
0
0
0
0
0
0
0
0
0
0
0
0
0
0
0
0
0
0
0
0
0
0
0
0
0
0
0
0
0
0
0
0
0
0
0
0
0
0
0
0
0
0
0
0
0
0
0
0
0
0
0
0
0
0
0
82049.4
165612
216473
111060
144051
113816
67077.3
104593
134604
223457
85265.9
79882.8
84206.6
113340
96288.4
567048
111656
164019
215047
112619
294251
147416
158721
491386
120665
210442
148956
230140
196471
280473
422965
137387
404891
223527
225339
235925
253617
282347
272141
128682
311711
245547
155747
255657
3.29007e+06
161672
419429
127264
340047
206225
271976
109191
611793
174697
171741
834827
169754
190854
270875
310551
248855
407308
238164
295758
336966
182605
194246
185613
160958
267300
364205
250321
181087
2.91812e+06
146923
269446
382898
148392
549818
119670
7.24519e+06
138875
259836
141925
156170
186307
174462
163514
268444
160980
294146
242443
196116
366794
185212
1.4634e+06
167725
108751
98842.8
51802.7
39081.9
42799.2
158351
119355
41631.6
42152.5
53914.4
35105.2
33863.1
62209.8
50646.3
65603.4
0
0
0
0
0
0
0
0
0
0
0
0
0
0
0
0
0
0
0
0
0
0
0
0
0
0
0
0
0
0
0
0
0
0
0
0
0
0
0
0
0
0
0
0
0
0
0
0
0
0
0
0
0
0
0
0
0
0
0
0
0
0
0
0
0
0
0
0
0
0
0
0
0
0
0
0
0
0
0
0
0
0
0
0
0
0
0
0
0
0
0
0
0
0
0
0
0
0
0
0
0
0
0
0
0
0
0
0
0
0
0
0
0
0
0
0
0
0
0
0
0
0
0
0
0
0
0
0
0
0
0
0
0
0
0
0
0
0
0
0
0
0
0
0
0
0
0
0
0
0
0
0
0
0
0
0
0
0
0
0
0
0
0
0
0
0
0
0
0
0
0
0
0
0
0
0
0
0
0
0
0
0
0
0
0
0
0
0
0
0
0
0
0
0
0
0
0
0
0
0
0
0
0
0
0
0
0
0
0
0
0
0
0
0
0
0
0
0
0
0
0
0
0
0
0
0
0
0
0
0
0
0
0
0
0
0
0
0
0
0
0
0
0
0
0
0
0
0
0
0
0
0
0
0
0
0
0
0
0
0
0
0
0
0
0
0
0
0
0
0
0
0
79970.7
91371.7
124841
73516.2
117939
150308
597309
196152
184379
133626
98262.3
135616
424592
191763
95777.1
93718.8
799911
190425
231288
193036
245016
238630
149496
106573
205282
115481
209345
192301
322808
473452
148141
481032
111651
177530
1.45452e+06
197885
169976
331314
173942
259920
254974
431830
167474
305009
173082
232951
357089
106498
610972
228219
420517
158926
668789
257760
158759
224208
240438
204508
1.86218e+06
159880
201524
235546
2.38204e+06
2.02927e+06
275623
151173
316300
770737
164586
241443
282468
150789
253128
236713
124789
349531
275555
173449
177664
97368.6
657171
186304
1.00415e+07
107982
209916
318761
97603.3
677849
188041
399510
266466
231757
281117
195179
297053
382961
58503.1
55536.1
155508
69717.5
50396.8
115248
42822.5
22321.7
91345.5
44434.1
22330.7
65745.7
75517.1
49678.6
23211.3
18265.6
0
0
0
0
0
0
0
0
0
0
0
0
0
0
0
0
0
0
0
0
0
0
0
0
0
0
0
0
0
0
0
0
0
0
0
0
0
0
0
0
0
0
0
0
0
0
0
0
0
0
0
0
0
0
0
0
0
0
0
0
0
0
0
0
0
0
0
0
0
0
0
0
0
0
0
0
0
0
0
0
0
0
0
0
0
0
0
0
0
0
0
0
0
0
0
0
0
0
0
0
0
0
0
0
0
0
0
0
0
0
0
0
0
0
0
0
0
0
0
0
0
0
0
0
0
0
0
0
0
0
0
0
0
0
0
0
0
0
0
0
0
0
0
0
0
0
0
0
0
0
0
0
0
0
0
0
0
0
0
0
0
0
0
0
0
0
0
0
0
0
0
0
0
0
0
0
0
0
0
0
0
0
0
0
0
0
0
0
0
0
0
0
0
0
0
0
0
0
0
0
0
0
0
0
0
0
0
0
0
0
0
0
0
0
0
0
0
0
0
0
0
0
0
0
0
0
0
0
0
0
0
0
0
0
0
0
0
0
0
0
0
0
0
0
0
0
0
0
0
0
0
0
0
0
0
0
0
0
0
0
0
0
0
0
0
0
0
0
0
0
0
0
)
;

boundaryField
{
    inlet
    {
        type            zeroGradient;
    }
    outlet
    {
        type            zeroGradient;
    }
    wall
    {
        type            zeroGradient;
    }
    procBoundary1to0
    {
        type            processor;
        value           nonuniform List<scalar> 
192
(
762310
122153
141164
135187
325861
245321
398133
146847
4.46895e+06
173610
133238
548714
332128
172211
4.00778e+06
134954
181461
375987
115522
5.53828e+06
223178
130039
164030
117473
85483.2
528685
40849.1
74873.5
0
0
0
0
0
0
0
0
0
0
0
0
0
0
0
0
0
0
0
0
0
0
0
0
0
0
0
0
0
0
0
0
0
0
0
0
0
0
0
0
0
0
0
0
0
0
0
0
0
0
0
0
0
0
0
0
0
0
0
0
0
0
0
0
0
0
0
0
240480
171127
87661.8
1.286e+06
251252
113054
692006
126245
135664
217448
453432
170573
167695
209704
164530
237589
162668
189437
662259
158812
110295
361588
120354
174290
71131.6
72895.3
35953.5
59124.4
0
0
0
0
0
0
0
0
0
0
0
0
0
0
0
0
0
0
0
0
0
0
0
0
0
0
0
0
0
0
0
0
0
0
0
0
0
0
0
0
0
0
0
0
0
0
0
0
0
0
0
0
0
0
0
0
0
0
0
0
0
0
0
0
0
0
0
0
)
;
    }
    procBoundary1to3
    {
        type            processor;
        value           nonuniform List<scalar> 
192
(
57032.7
151529
113550
2.62976e+06
107389
267089
132521
189490
709097
289177
263969
152531
2.62547e+06
279767
184457
261173
9.81931e+06
109749
3.05089e+07
850864
111574
187068
193503
141279
109574
132905
61328.5
67832.3
0
308.35
0
0
0
0
0
0
0
0
0
0
0
0
0
0
0
0
0
0
0
0
0
0
0
0
0
0
0
0
0
0
0
0
0
0
0
0
0
0
0
0
0
0
0
0
0
0
0
0
0
0
0
0
0
0
0
0
0
0
0
0
0
0
0
0
0
0
96061.3
57812.9
263912
183089
127411
655679
123703
138927
258424
393142
221283
231345
206410
231431
145628
251835
176744
310957
409169
240701
156693
181108
111477
204826
60591.9
53745.1
55917.3
98242.6
0
0
0
0
0
0
0
0
0
0
0
0
0
0
0
0
0
0
0
0
0
0
0
0
0
0
0
0
0
0
0
0
0
0
0
0
0
0
0
0
0
0
0
0
0
0
0
0
0
0
0
0
0
0
0
0
0
0
0
0
0
0
0
0
0
0
0
0
)
;
    }
}


// ************************************************************************* //
