/*--------------------------------*- C++ -*----------------------------------*\
| =========                 |                                                 |
| \\      /  F ield         | OpenFOAM: The Open Source CFD Toolbox           |
|  \\    /   O peration     | Version:  2506                                  |
|   \\  /    A nd           | Website:  www.openfoam.com                      |
|    \\/     M anipulation  |                                                 |
\*---------------------------------------------------------------------------*/
FoamFile
{
    version     2.0;
    format      ascii;
    arch        "LSB;label=32;scalar=64";
    class       volScalarField;
    location    "0.08";
    object      p;
}
// * * * * * * * * * * * * * * * * * * * * * * * * * * * * * * * * * * * * * //

dimensions      [0 2 -2 0 0 0 0];

internalField   nonuniform List<scalar> 
1152
(
18.9471
19.0473
19.0272
19.0792
19.0736
19.0428
19.2657
19.0527
18.9897
19.0761
19.143
19.1007
18.9979
19.0359
18.9815
19.0343
16.6362
16.5496
16.4351
16.5664
16.3982
16.531
16.2848
16.3662
16.2643
16.3064
16.3084
16.7282
16.088
16.0979
16.2197
16.6785
13.016
12.8652
13.1174
12.8195
12.7915
12.6774
12.4789
12.9376
11.9094
12.3085
12.2923
12.695
11.3215
11.9019
12.0522
12.4336
9.20404
8.91275
8.74601
9.07124
8.49006
8.9376
8.78948
8.94112
8.01096
8.10885
8.41816
8.26361
6.81241
7.46136
7.48369
7.85693
5.08105
5.00406
5.05873
4.8716
4.794
5.05693
5.40019
5.24348
5.38095
4.7875
5.00977
4.99142
5.47395
5.21882
4.93224
4.84961
1.58024
1.62253
1.76518
1.58229
1.88881
1.6972
1.65959
1.74629
2.15068
1.79828
1.71828
1.64591
3.34514
1.97509
1.67329
1.57535
1.01501
1.01708
1.01029
1.02268
1.02515
0.997012
1.01669
1.01049
1.01772
1.03304
1.01708
1.0218
0.9822
1.03652
1.05877
1.03666
1.00534
1.00539
1.00499
1.0045
1.00735
1.00681
1.00643
1.00538
1.00774
1.00839
1.00829
1.00632
1.01056
1.00975
1.01238
1.00864
1.01006
1.01048
1.01014
1.01032
1.00975
1.01
1.01035
1.01
1.0094
1.01189
1.0112
1.01081
1.00487
1.0109
1.01301
1.01197
1.00762
1.00774
1.00755
1.0074
1.00759
1.00769
1.00769
1.00742
1.00776
1.00832
1.00802
1.0077
1.00702
1.00822
1.00852
1.00805
1.0074
1.00743
1.00734
1.00724
1.00735
1.00743
1.00737
1.00722
1.00741
1.00757
1.00747
1.00728
1.00723
1.00752
1.00756
1.00737
1.00675
1.00673
1.00667
1.00658
1.00672
1.00673
1.00667
1.00657
1.00672
1.00675
1.00669
1.00658
1.00665
1.00672
1.0067
1.00659
1.00616
1.00614
1.0061
1.00604
1.00614
1.00613
1.00608
1.00602
1.00613
1.00612
1.00608
1.00601
1.0061
1.00609
1.00606
1.006
1.0056
1.00558
1.00555
1.00551
1.00558
1.00556
1.00553
1.00549
1.00557
1.00555
1.00552
1.00548
1.00554
1.00553
1.0055
1.00546
1.00504
1.00503
1.00501
1.00498
1.00503
1.00501
1.00499
1.00497
1.00502
1.005
1.00498
1.00495
1.005
1.00498
1.00496
1.00494
1.0045
1.00449
1.00447
1.00446
1.00449
1.00448
1.00446
1.00444
1.00448
1.00447
1.00445
1.00443
1.00447
1.00445
1.00444
1.00442
1.00396
1.00395
1.00394
1.00393
1.00396
1.00395
1.00393
1.00392
1.00395
1.00394
1.00392
1.00391
1.00394
1.00393
1.00391
1.0039
1.00343
1.00342
1.00341
1.00341
1.00342
1.00342
1.00341
1.0034
1.00342
1.00341
1.0034
1.00339
1.00341
1.0034
1.00339
1.00339
1.0029
1.00289
1.00289
1.00288
1.00289
1.00289
1.00288
1.00288
1.00289
1.00288
1.00288
1.00287
1.00288
1.00288
1.00287
1.00287
1.00237
1.00237
1.00236
1.00236
1.00237
1.00236
1.00236
1.00235
1.00236
1.00236
1.00235
1.00235
1.00236
1.00236
1.00235
1.00235
1.00184
1.00184
1.00184
1.00183
1.00184
1.00184
1.00183
1.00183
1.00184
1.00183
1.00183
1.00183
1.00183
1.00183
1.00183
1.00183
1.00131
1.00131
1.00131
1.00131
1.00131
1.00131
1.00131
1.00131
1.00131
1.00131
1.00131
1.00131
1.00131
1.00131
1.00131
1.0013
1.00079
1.00079
1.00079
1.00079
1.00079
1.00079
1.00079
1.00078
1.00079
1.00079
1.00078
1.00078
1.00079
1.00078
1.00078
1.00078
1.00026
1.00026
1.00026
1.00026
1.00026
1.00026
1.00026
1.00026
1.00026
1.00026
1.00026
1.00026
1.00026
1.00026
1.00026
1.00026
18.6828
18.9284
18.9505
18.681
18.9057
18.8658
18.7649
18.8251
18.8834
19.0829
18.8203
18.8354
18.9291
19.0638
18.9734
18.9805
16.669
16.3845
16.37
16.3001
16.5221
16.4813
16.6657
16.2699
16.5379
16.3782
16.5316
16.4983
16.651
16.4578
16.6131
16.2538
13.9971
13.1457
13.0066
12.8466
13.3788
13.0715
13.0468
12.9111
13.1932
12.9225
13.0882
12.9932
13.0738
12.9294
12.9207
12.9457
9.04655
8.94251
9.13282
9.34788
8.61428
8.99243
9.19234
9.58737
8.83429
8.99169
9.12496
9.27533
9.04453
8.93359
9.02529
9.15173
4.93562
5.07686
5.42002
5.59682
4.87137
5.12491
5.36937
5.2047
5.17903
5.01469
5.19372
5.10492
5.00751
5.05722
5.03377
5.06185
1.31304
2.05231
2.11003
1.89522
1.5857
1.66941
2.00355
1.85483
1.45695
1.56807
1.70609
1.5406
1.34114
1.58264
1.53103
1.6036
1.0295
1.02202
1.01663
1.02728
1.02092
1.02445
1.00465
1.01006
1.01419
1.0195
1.01899
1.02221
1.01249
1.01335
1.01569
1.0258
1.00569
1.00494
1.0043
1.00409
1.00459
1.00462
1.00419
1.00377
1.00382
1.00431
1.00406
1.00404
1.00436
1.00441
1.00432
1.00411
1.00913
1.01074
1.00978
1.01044
1.00992
1.01081
1.00959
1.01003
1.01004
1.01061
1.01011
1.0103
1.01002
1.01024
1.01013
1.01035
1.00724
1.0076
1.00722
1.00712
1.00749
1.0077
1.00728
1.00714
1.00755
1.00766
1.0074
1.0072
1.00755
1.00756
1.00744
1.00727
1.00735
1.00745
1.00732
1.00728
1.00737
1.00743
1.00729
1.00723
1.0074
1.00742
1.00731
1.00725
1.0074
1.0074
1.00733
1.00727
1.00673
1.00673
1.00664
1.00655
1.00675
1.00674
1.00664
1.00655
1.00676
1.00674
1.00665
1.00656
1.00675
1.00673
1.00666
1.00658
1.00618
1.00616
1.0061
1.00605
1.00618
1.00616
1.0061
1.00604
1.00618
1.00615
1.0061
1.00605
1.00617
1.00615
1.0061
1.00605
1.00562
1.0056
1.00556
1.00551
1.00562
1.0056
1.00555
1.00551
1.00562
1.00559
1.00555
1.00551
1.00561
1.00559
1.00555
1.00552
1.00507
1.00505
1.00502
1.00499
1.00507
1.00505
1.00502
1.00499
1.00506
1.00504
1.00502
1.00499
1.00505
1.00504
1.00501
1.00499
1.00452
1.00451
1.00448
1.00446
1.00452
1.0045
1.00448
1.00446
1.00451
1.0045
1.00448
1.00446
1.00451
1.0045
1.00448
1.00446
1.00398
1.00397
1.00395
1.00394
1.00398
1.00397
1.00395
1.00394
1.00397
1.00396
1.00395
1.00394
1.00397
1.00396
1.00395
1.00394
1.00344
1.00343
1.00342
1.00341
1.00344
1.00343
1.00342
1.00341
1.00344
1.00343
1.00342
1.00341
1.00343
1.00343
1.00342
1.00341
1.00291
1.0029
1.00289
1.00289
1.00291
1.0029
1.00289
1.00289
1.00291
1.0029
1.00289
1.00288
1.0029
1.0029
1.00289
1.00288
1.00238
1.00237
1.00237
1.00236
1.00238
1.00237
1.00237
1.00236
1.00237
1.00237
1.00236
1.00236
1.00237
1.00237
1.00236
1.00236
1.00185
1.00184
1.00184
1.00184
1.00185
1.00184
1.00184
1.00184
1.00185
1.00184
1.00184
1.00184
1.00184
1.00184
1.00184
1.00184
1.00132
1.00132
1.00131
1.00131
1.00132
1.00132
1.00131
1.00131
1.00132
1.00131
1.00131
1.00131
1.00132
1.00131
1.00131
1.00131
1.00079
1.00079
1.00079
1.00079
1.00079
1.00079
1.00079
1.00079
1.00079
1.00079
1.00079
1.00079
1.00079
1.00079
1.00079
1.00079
1.00026
1.00026
1.00026
1.00026
1.00026
1.00026
1.00026
1.00026
1.00026
1.00026
1.00026
1.00026
1.00026
1.00026
1.00026
1.00026
19.0344
18.9569
18.8704
18.7328
19.1525
19.185
19.1761
18.7864
19.244
19.0613
19.0974
19.1409
19.402
19.3482
19.0978
19.1423
16.305
16.5137
16.6042
16.6423
16.3758
16.4551
16.2833
16.3602
16.4135
16.5574
16.6361
16.6449
16.0523
16.4226
16.7191
16.3495
12.9853
13.0406
13.178
12.9904
12.9948
13.0948
13.2008
13.5091
12.8606
13.3969
13.2302
12.8846
12.4597
12.5686
13.319
12.9416
9.72987
9.1622
9.10632
9.28252
9.04651
8.97651
9.07197
8.93499
8.73588
8.73906
8.7008
8.89237
8.68095
8.51316
8.06507
8.68376
5.05142
5.02032
4.80084
4.85684
5.06812
5.13403
4.97203
5.23417
5.05833
5.21704
5.1683
5.44339
5.08769
5.04549
5.10497
5.26582
1.44919
1.73552
1.47796
1.49345
1.66484
1.66687
1.61143
1.22555
1.69335
1.28628
1.31396
1.42457
1.57609
1.50945
1.21531
1.34519
1.01542
1.01891
1.03085
1.00538
1.01515
0.996677
1.01305
1.01157
1.00597
1.00296
1.00446
0.98939
1.01125
1.00339
0.997286
0.993719
1.00339
1.00318
1.00331
1.00184
1.00357
1.00207
1.00112
1.00047
1.00328
1.00051
0.998563
0.996481
1.0045
1.0006
0.997249
0.994588
1.0099
1.00964
1.00938
1.00935
1.00932
1.00871
1.00882
1.00886
1.00919
1.00809
1.00742
1.00615
1.00989
1.0086
1.00766
1.00717
1.00701
1.00684
1.0067
1.00653
1.00696
1.00661
1.00647
1.00631
1.00696
1.00635
1.00592
1.00529
1.00723
1.00657
1.00608
1.00574
1.00712
1.00704
1.00698
1.00697
1.00702
1.00685
1.00674
1.0067
1.00697
1.00666
1.00642
1.00624
1.00703
1.00671
1.00647
1.00636
1.00649
1.00645
1.00641
1.00638
1.00645
1.00637
1.0063
1.00626
1.00643
1.00628
1.00616
1.00607
1.00643
1.00629
1.00617
1.0061
1.006
1.00597
1.00596
1.00595
1.00596
1.00591
1.00588
1.00586
1.00593
1.00586
1.0058
1.00576
1.00592
1.00584
1.00578
1.00575
1.00548
1.00547
1.00546
1.00545
1.00546
1.00543
1.00541
1.0054
1.00543
1.00539
1.00536
1.00534
1.00541
1.00537
1.00534
1.00533
1.00496
1.00496
1.00495
1.00495
1.00495
1.00493
1.00492
1.00491
1.00493
1.00491
1.00489
1.00488
1.00491
1.00489
1.00487
1.00486
1.00444
1.00444
1.00444
1.00444
1.00443
1.00442
1.00442
1.00441
1.00442
1.0044
1.00439
1.00439
1.0044
1.00439
1.00438
1.00437
1.00392
1.00392
1.00392
1.00392
1.00391
1.00391
1.0039
1.0039
1.0039
1.0039
1.00389
1.00389
1.00389
1.00388
1.00388
1.00387
1.0034
1.0034
1.0034
1.0034
1.00339
1.00339
1.00339
1.00339
1.00339
1.00338
1.00338
1.00338
1.00338
1.00337
1.00337
1.00337
1.00288
1.00288
1.00288
1.00288
1.00287
1.00287
1.00287
1.00287
1.00287
1.00286
1.00286
1.00286
1.00286
1.00286
1.00286
1.00285
1.00236
1.00235
1.00235
1.00235
1.00235
1.00235
1.00235
1.00235
1.00235
1.00235
1.00234
1.00234
1.00234
1.00234
1.00234
1.00234
1.00183
1.00183
1.00183
1.00183
1.00183
1.00183
1.00183
1.00183
1.00183
1.00183
1.00182
1.00182
1.00182
1.00182
1.00182
1.00182
1.00131
1.00131
1.00131
1.00131
1.00131
1.00131
1.00131
1.00131
1.00131
1.0013
1.0013
1.0013
1.0013
1.0013
1.0013
1.0013
1.00079
1.00079
1.00079
1.00079
1.00078
1.00078
1.00078
1.00078
1.00078
1.00078
1.00078
1.00078
1.00078
1.00078
1.00078
1.00078
1.00026
1.00026
1.00026
1.00026
1.00026
1.00026
1.00026
1.00026
1.00026
1.00026
1.00026
1.00026
1.00026
1.00026
1.00026
1.00026
)
;

boundaryField
{
    inlet
    {
        type            zeroGradient;
    }
    outlet
    {
        type            fixedValue;
        value           uniform 1;
    }
    wall
    {
        type            zeroGradient;
    }
    procBoundary1to0
    {
        type            processor;
        value           nonuniform List<scalar> 
192
(
19.3217
19.2137
19.0686
18.9361
16.2134
16.1292
15.9242
16.0732
12.649
12.418
11.9097
11.9185
8.84919
8.92915
8.12995
7.79863
5.02422
5.15544
5.56927
5.31413
1.90115
2.14022
2.19241
2.99878
1.01004
0.965337
1.04771
1.05351
1.00555
1.00816
1.00714
1.00471
1.00996
1.00919
1.01152
1.01009
1.00761
1.00744
1.00813
1.00786
1.00743
1.00737
1.00753
1.00741
1.00678
1.00675
1.00679
1.00672
1.00619
1.00617
1.00617
1.00613
1.00562
1.0056
1.00559
1.00556
1.00506
1.00505
1.00504
1.00502
1.00451
1.0045
1.00449
1.00448
1.00397
1.00397
1.00396
1.00395
1.00344
1.00343
1.00342
1.00342
1.0029
1.0029
1.0029
1.00289
1.00237
1.00237
1.00237
1.00236
1.00184
1.00184
1.00184
1.00184
1.00132
1.00132
1.00131
1.00131
1.00079
1.00079
1.00079
1.00079
1.00026
1.00026
1.00026
1.00026
19.2214
18.8982
18.9192
19.0567
15.9474
16.1968
16.5597
16.2446
12.8241
13.1367
12.5516
12.9874
9.18594
9.07387
8.95982
8.92686
5.17427
5.31507
5.01853
5.01383
2.15322
1.81175
1.54069
1.70825
1.02251
1.01029
1.01894
1.01402
1.00332
1.00352
1.00417
1.00447
1.01079
1.01017
1.01047
1.01015
1.0076
1.00756
1.00768
1.0076
1.00751
1.00745
1.00747
1.00744
1.00681
1.00681
1.00681
1.00679
1.00623
1.00622
1.00621
1.0062
1.00565
1.00565
1.00564
1.00563
1.00509
1.00508
1.00508
1.00507
1.00453
1.00453
1.00453
1.00452
1.00399
1.00399
1.00398
1.00398
1.00345
1.00345
1.00345
1.00344
1.00291
1.00291
1.00291
1.00291
1.00238
1.00238
1.00238
1.00238
1.00185
1.00185
1.00185
1.00185
1.00132
1.00132
1.00132
1.00132
1.00079
1.00079
1.00079
1.00079
1.00026
1.00026
1.00026
1.00026
)
;
    }
    procBoundary1to3
    {
        type            processor;
        value           nonuniform List<scalar> 
192
(
18.7178
18.9741
18.9525
19.2229
16.5134
16.289
16.1248
16.0728
13.3236
12.2483
12.0516
12.4415
8.51055
6.60985
4.7982
7.87014
2.59924
4.36638
4.98636
4.565
3.45418
2.99118
4.08811
2.03977
1.06546
1.01921
1.09912
1.04245
1.00722
1.01112
1.01323
1.00924
1.01055
1.01243
1.01405
1.01236
1.00796
1.00841
1.00867
1.00809
1.0074
1.00756
1.00757
1.00736
1.00667
1.0067
1.00667
1.00657
1.00608
1.00607
1.00603
1.00597
1.00552
1.0055
1.00547
1.00544
1.00498
1.00496
1.00494
1.00492
1.00445
1.00444
1.00442
1.00441
1.00393
1.00392
1.0039
1.00389
1.0034
1.00339
1.00339
1.00338
1.00288
1.00287
1.00287
1.00286
1.00236
1.00235
1.00235
1.00234
1.00183
1.00183
1.00183
1.00182
1.00131
1.00131
1.0013
1.0013
1.00078
1.00078
1.00078
1.00078
1.00026
1.00026
1.00026
1.00026
19.0098
19.0423
19.0923
19.1007
16.4291
17.0627
16.4876
16.4249
12.7872
12.5648
13.1522
13.337
8.50237
8.74781
9.05281
9.24955
4.86968
4.93954
5.02504
5.27374
1.76737
1.58833
1.6339
1.74528
1.02183
1.01062
1.00552
0.992325
1.00515
1.00179
0.999274
0.997947
1.01037
1.00885
1.00779
1.00687
1.00728
1.00655
1.006
1.00548
1.00701
1.00665
1.00639
1.00623
1.0064
1.00623
1.0061
1.00601
1.00589
1.0058
1.00574
1.0057
1.00539
1.00534
1.00531
1.00529
1.00489
1.00487
1.00485
1.00484
1.00439
1.00438
1.00437
1.00436
1.00388
1.00387
1.00387
1.00386
1.00337
1.00337
1.00336
1.00336
1.00286
1.00285
1.00285
1.00285
1.00234
1.00234
1.00234
1.00234
1.00182
1.00182
1.00182
1.00182
1.0013
1.0013
1.0013
1.0013
1.00078
1.00078
1.00078
1.00078
1.00026
1.00026
1.00026
1.00026
)
;
    }
}


// ************************************************************************* //
