/*--------------------------------*- C++ -*----------------------------------*\
| =========                 |                                                 |
| \\      /  F ield         | OpenFOAM: The Open Source CFD Toolbox           |
|  \\    /   O peration     | Version:  2506                                  |
|   \\  /    A nd           | Website:  www.openfoam.com                      |
|    \\/     M anipulation  |                                                 |
\*---------------------------------------------------------------------------*/
FoamFile
{
    version     2.0;
    format      ascii;
    arch        "LSB;label=32;scalar=64";
    class       volVectorField;
    location    "0.08";
    object      U;
}
// * * * * * * * * * * * * * * * * * * * * * * * * * * * * * * * * * * * * * //

dimensions      [0 1 -1 0 0 0 0];

internalField   nonuniform List<vector> 
1152
(
(0.0072706 -0.00383855 0.0428937)
(-0.0012062 0.00038485 0.0198311)
(-0.000524484 -0.00222004 0.0177056)
(0.000638846 -0.000952518 0.023407)
(0.00108224 8.44502e-05 0.015401)
(-0.00314195 -0.000160756 0.0345603)
(0.00024049 0.000516221 0.00728892)
(0.00133722 0.001011 0.0204481)
(0.000281168 0.00147732 0.0234765)
(-0.00129316 2.33932e-05 0.0210237)
(-0.000628827 0.00331998 0.0204183)
(-0.00202899 0.00106424 0.0286706)
(-0.000441769 0.00203926 0.0147757)
(0.000558242 0.00156923 0.026495)
(-0.000298182 0.00430365 0.0396717)
(-0.00978025 -0.00236975 0.0426447)
(-0.00380304 0.00170104 0.0280906)
(-0.000517366 0.000255188 0.0289073)
(0.000277854 0.0049401 0.042371)
(0.00209518 0.000922289 0.0153145)
(-0.0040736 0.00338568 0.0315564)
(-2.57554e-05 0.00313775 0.0232902)
(0.00209921 0.00372794 0.0358376)
(0.0010455 -8.86456e-05 0.053154)
(-0.00455708 0.00388368 0.0461177)
(-0.000985513 0.0040103 0.0357931)
(-0.00320442 0.00131701 0.0294766)
(-0.000605842 -8.08315e-05 0.0212767)
(-0.000448119 0.000879853 0.0167843)
(-0.00133566 0.000534304 0.0204424)
(-0.00119146 -3.55124e-05 0.00280527)
(0.00038819 0.00387075 0.0261319)
(-0.0014547 0.00382448 0.0679119)
(0.000276159 0.00138597 0.0234425)
(-0.000260353 0.00331581 0.0363066)
(0.000236621 0.000787296 0.00598172)
(-0.000900695 0.00420795 0.0251643)
(0.0018203 0.00452061 0.0456948)
(-0.00114671 0.00322185 0.0213857)
(-0.00360729 0.00175806 0.0497716)
(-0.00173912 0.00509249 0.0247373)
(-0.00235091 0.00367153 0.0328341)
(-0.00285627 0.00265742 0.0379081)
(-0.00148194 0.00223781 0.0222734)
(-7.40102e-05 -0.0100941 0.0561094)
(-0.00644538 0.00042288 0.0611051)
(-0.00598645 0.00267331 0.0760717)
(-0.00159692 0.00216191 0.0460441)
(-0.000126313 0.00281325 0.030724)
(0.00272341 0.000265525 0.0446428)
(-0.000417091 0.00132887 0.0195376)
(-0.00467355 0.00161495 0.0290485)
(-0.000404943 0.00285604 0.0201311)
(-0.0010156 0.00259484 0.0215025)
(0.000197414 0.0038634 0.0569335)
(-0.00106759 0.0059422 0.0419448)
(0.000163423 0.0157579 0.053767)
(-0.00135882 0.0067137 0.0309765)
(-0.000111293 0.00729317 0.0347816)
(-0.000761603 0.00298272 0.0196059)
(7.37552e-05 0.000140897 0.00703514)
(-0.00267494 0.00661402 0.0271527)
(-0.00232209 0.0235486 0.041466)
(-0.00149965 0.000338364 0.0123315)
(0.000123231 0.00186491 0.0473261)
(0.000221146 0.000134345 0.0283471)
(0.00104543 -0.00270542 0.0485178)
(-4.50064e-05 -0.000292849 0.0255427)
(0.000572744 -0.00152824 0.0333512)
(-0.00191224 0.00104619 0.0233882)
(-0.000590204 0.000486663 0.0220614)
(0.00250154 -0.000365394 0.0410172)
(0.00213893 -0.0017839 0.0183698)
(0.00255963 -0.000847939 0.0393732)
(-0.000429548 0.00129191 0.0181157)
(-0.000335945 0.00319878 0.0436359)
(0.0010234 0.0362009 0.0433617)
(4.41542e-05 0.000378437 0.00685065)
(0.00443894 0.000506206 0.0554835)
(-0.00172691 0.0044001 0.0525908)
(0.00134183 -0.00133654 0.0134872)
(-0.001158 -0.00102404 0.0326857)
(0.000535733 -0.000560201 0.0175615)
(0.00411145 -0.0015045 0.0357239)
(0.00502773 -0.0058617 0.0361253)
(0.000836457 -0.000110362 0.0108863)
(0.000122349 0.000315939 0.0260434)
(0.000203015 -8.22707e-06 0.00722799)
(0.00236398 -0.00817459 0.0254281)
(0.00464625 -0.0025817 0.0352088)
(0.00126702 1.32373e-05 0.0215567)
(0.000346387 0.000576882 0.0154161)
(0.00288677 -0.00303226 0.0159779)
(0.00302222 -0.00147836 0.0112173)
(0.00278593 -0.0136779 0.0236177)
(0.000794446 -0.00159136 0.019001)
(0.000654835 -9.13276e-05 0.0207012)
(0.00110458 0.000739525 0.0255704)
(0.00080322 -0.000164706 0.0164568)
(-0.000119259 0.00011445 0.0281105)
(-0.000524543 0.000234122 0.0278911)
(0.000872967 0.000128449 0.0117939)
(0.000627382 -0.000303651 0.0204267)
(0.000905134 1.76072e-06 0.0122018)
(4.82241e-05 0.00104958 0.0160471)
(0.000584517 -0.00111437 0.0316479)
(0.00109518 -0.000882111 0.0147286)
(0.00130282 -0.000724032 0.0210468)
(0.000360368 0.000643002 0.0103969)
(-0.00157193 0.00069146 0.019729)
(-0.0016 -0.00646386 0.0537955)
(0.00289818 -0.00108115 0.031898)
(-5.93384e-06 -0.00165959 0.0313195)
(0.000238561 -0.00117989 0.0298336)
(0.000136232 -0.0013236 0.0236231)
(0.000711275 -0.00130161 0.032978)
(0.000886534 -0.00210322 0.0323302)
(0.000591503 -0.00136758 0.0177003)
(0.000239587 -0.00146276 0.0232284)
(0.000850352 -0.000869897 0.0197457)
(0.000462913 -0.00575146 0.0192375)
(0.000973735 -0.00201933 0.0358388)
(0.00076989 -0.00287884 0.0253739)
(0.00162869 -0.00141388 0.0270167)
(-0.000219207 -5.46485e-05 -0.0454781)
(0.00349324 -5.94931e-05 0.0283095)
(0.000673517 -0.00114116 0.0498574)
(0.00318974 -0.000341322 0.0386876)
(-1.36963e-05 0.000752885 0.0102505)
(0.000397493 0.000634647 0.00939366)
(-0.000286575 0.000338849 0.00815706)
(-0.000866018 0.000718944 0.00921133)
(0.000159547 0.00112383 0.0110277)
(-3.31927e-05 -0.000670539 0.00875226)
(-0.000261667 -0.000638065 0.0081481)
(-0.000583013 -3.53942e-05 0.00734042)
(0.0011061 0.00423236 0.0104171)
(-0.00135905 -0.000529841 0.011311)
(0.000341318 -0.00242165 0.00973943)
(0.000112895 -0.00203965 0.00871484)
(0.000374304 -0.00171939 0.00889666)
(-0.00664141 -0.000641707 0.0116218)
(-0.00179762 -0.00188444 0.0147719)
(0.000888056 -0.00120109 0.0118457)
(0.000199059 0.000171591 0.0181999)
(0.000373184 -7.68707e-06 0.0179371)
(0.000129019 -0.000179753 0.0173901)
(-0.000164625 -0.000200737 0.0178408)
(0.000172251 2.89615e-05 0.0177983)
(0.000127826 -0.000569918 0.0173657)
(6.38073e-05 -0.000600688 0.0171772)
(-0.000226749 -0.000444047 0.0170196)
(0.00044112 0.000793663 0.0172977)
(-0.00027381 -0.000569999 0.018578)
(0.000219217 -0.00118813 0.0179873)
(-3.49483e-05 -0.00110578 0.0177715)
(4.78018e-05 -0.0005482 0.0142481)
(-0.00188318 -0.000344467 0.0179669)
(-0.000533079 -0.000751448 0.019592)
(9.79205e-05 -0.000605402 0.0190733)
(0.000143215 7.68245e-05 0.015719)
(0.000129131 -2.08668e-05 0.0155575)
(-2.4347e-05 -7.55307e-05 0.0152744)
(-0.000254488 -4.4442e-05 0.0152974)
(9.70962e-05 -4.26942e-05 0.0156313)
(1.30779e-05 -0.000244297 0.0154999)
(-4.31321e-05 -0.000271897 0.0153216)
(-0.000237398 -0.000207015 0.0152237)
(0.000142092 0.000100186 0.0157094)
(-0.000117332 -0.000277189 0.0160041)
(-1.36306e-05 -0.000475435 0.0157355)
(-0.000155622 -0.000462025 0.0156068)
(-4.61793e-05 -0.000197221 0.0150004)
(-0.000587625 -0.000207893 0.0159356)
(-0.000266506 -0.000329241 0.0162782)
(-0.00015935 -0.000298734 0.0161253)
(9.37569e-05 -1.11353e-07 0.0162326)
(7.73236e-05 -5.4257e-05 0.0161651)
(1.25112e-05 -0.0001031 0.0160618)
(-9.6067e-05 -0.000127669 0.0160706)
(5.57057e-05 -5.61369e-05 0.0162037)
(1.14591e-05 -0.000138885 0.0161768)
(-2.4804e-05 -0.000175788 0.0161034)
(-0.000124327 -0.00018042 0.0160817)
(4.53795e-05 -2.62554e-05 0.0162769)
(-5.13349e-05 -0.000153803 0.0163563)
(-4.2972e-05 -0.000231801 0.0162731)
(-0.000119288 -0.00024678 0.016236)
(-4.26104e-05 -9.00473e-05 0.0161171)
(-0.000207615 -0.00012192 0.0163686)
(-0.000136914 -0.000166614 0.0164526)
(-0.000145352 -0.000163817 0.016431)
(4.99518e-05 -2.1282e-05 0.0162421)
(3.20509e-05 -4.53138e-05 0.0162014)
(-6.65717e-06 -6.93955e-05 0.0161384)
(-6.65327e-05 -7.94501e-05 0.0161028)
(2.75353e-05 -4.55517e-05 0.0162559)
(2.05264e-06 -7.92772e-05 0.0162402)
(-2.54039e-05 -0.000100127 0.0161981)
(-7.74504e-05 -0.000105823 0.0161719)
(1.26339e-05 -4.24105e-05 0.0163003)
(-2.71339e-05 -8.89301e-05 0.0163186)
(-3.95499e-05 -0.000118604 0.016286)
(-7.88005e-05 -0.000127452 0.0162646)
(-2.62394e-05 -5.50529e-05 0.016268)
(-8.06683e-05 -7.52937e-05 0.0163433)
(-7.36546e-05 -9.35678e-05 0.0163612)
(-9.35314e-05 -9.32158e-05 0.0163548)
(2.62594e-05 -2.43865e-05 0.0162643)
(1.37898e-05 -3.56561e-05 0.01624)
(-7.37561e-06 -4.86336e-05 0.0162011)
(-3.69194e-05 -5.59592e-05 0.0161652)
(1.39203e-05 -3.52428e-05 0.0162914)
(-7.95951e-07 -5.04424e-05 0.0162796)
(-1.82174e-05 -6.20395e-05 0.0162533)
(-4.41227e-05 -6.73201e-05 0.0162278)
(3.40068e-06 -3.75341e-05 0.0163203)
(-1.48939e-05 -5.55491e-05 0.0163218)
(-2.67973e-05 -6.83203e-05 0.0163042)
(-4.66454e-05 -7.32237e-05 0.0162851)
(-1.33015e-05 -4.03223e-05 0.0163215)
(-3.40474e-05 -5.04685e-05 0.0163433)
(-3.93651e-05 -5.79971e-05 0.0163425)
(-5.27956e-05 -5.74784e-05 0.0163315)
(1.36933e-05 -2.13519e-05 0.0162841)
(5.5076e-06 -2.67058e-05 0.0162665)
(-6.4568e-06 -3.34826e-05 0.0162359)
(-2.15125e-05 -3.75439e-05 0.0161965)
(7.1459e-06 -2.6992e-05 0.0163148)
(-1.67085e-06 -3.40661e-05 0.0163044)
(-1.22836e-05 -4.01694e-05 0.016283)
(-2.5407e-05 -4.3339e-05 0.0162543)
(1.01313e-06 -2.95718e-05 0.0163374)
(-8.48058e-06 -3.71283e-05 0.0163336)
(-1.67868e-05 -4.27904e-05 0.0163191)
(-2.6968e-05 -4.50938e-05 0.0162971)
(-6.31448e-06 -3.11617e-05 0.0163469)
(-1.57963e-05 -3.57437e-05 0.0163507)
(-2.15633e-05 -3.88227e-05 0.0163432)
(-2.92339e-05 -3.80695e-05 0.0163261)
(7.20101e-06 -1.71808e-05 0.0162974)
(1.9633e-06 -1.97347e-05 0.016283)
(-4.85e-06 -2.31942e-05 0.0162555)
(-1.27739e-05 -2.52759e-05 0.0162142)
(3.78679e-06 -2.06446e-05 0.0163285)
(-1.60562e-06 -2.39581e-05 0.0163188)
(-7.88551e-06 -2.70561e-05 0.0162989)
(-1.47469e-05 -2.87166e-05 0.0162677)
(4.90815e-07 -2.26918e-05 0.0163484)
(-4.85198e-06 -2.60116e-05 0.0163427)
(-1.01009e-05 -2.85327e-05 0.0163283)
(-1.5462e-05 -2.94859e-05 0.0163033)
(-2.79809e-06 -2.40232e-05 0.0163589)
(-7.81586e-06 -2.6083e-05 0.0163566)
(-1.19374e-05 -2.7233e-05 0.0163459)
(-1.61347e-05 -2.64973e-05 0.0163246)
(3.89788e-06 -1.32939e-05 0.0163062)
(5.64434e-07 -1.45522e-05 0.0162932)
(-3.4185e-06 -1.62297e-05 0.0162669)
(-7.72676e-06 -1.71869e-05 0.0162243)
(2.10656e-06 -1.56578e-05 0.0163369)
(-1.20196e-06 -1.72519e-05 0.0163275)
(-4.89307e-06 -1.87133e-05 0.0163078)
(-8.65294e-06 -1.94889e-05 0.0162748)
(3.9503e-07 -1.72367e-05 0.0163554)
(-2.72949e-06 -1.87434e-05 0.0163489)
(-5.91916e-06 -1.98151e-05 0.0163338)
(-8.86385e-06 -2.01134e-05 0.0163068)
(-1.15028e-06 -1.82864e-05 0.0163654)
(-3.96476e-06 -1.92275e-05 0.0163608)
(-6.57513e-06 -1.96e-05 0.0163483)
(-8.8941e-06 -1.89525e-05 0.0163244)
(2.18126e-06 -1.00812e-05 0.0163122)
(7.59715e-08 -1.06935e-05 0.0162998)
(-2.30686e-06 -1.14761e-05 0.0162739)
(-4.74141e-06 -1.18403e-05 0.0162304)
(1.24557e-06 -1.17765e-05 0.0163423)
(-7.98199e-07 -1.25351e-05 0.0163331)
(-2.96698e-06 -1.31921e-05 0.0163133)
(-5.09185e-06 -1.34705e-05 0.0162791)
(3.62737e-07 -1.29786e-05 0.01636)
(-1.49733e-06 -1.36527e-05 0.0163531)
(-3.40259e-06 -1.40586e-05 0.0163374)
(-5.05071e-06 -1.40681e-05 0.016309)
(-4.00865e-07 -1.37175e-05 0.0163693)
(-1.99016e-06 -1.41556e-05 0.0163638)
(-3.58195e-06 -1.42123e-05 0.0163502)
(-4.86798e-06 -1.37078e-05 0.0163247)
(1.26456e-06 -7.50762e-06 0.0163164)
(-6.31606e-08 -7.79405e-06 0.0163043)
(-1.51971e-06 -8.12756e-06 0.0162784)
(-2.93202e-06 -8.23021e-06 0.0162344)
(7.78891e-07 -8.7315e-06 0.016346)
(-4.82494e-07 -9.08698e-06 0.0163368)
(-1.79239e-06 -9.35758e-06 0.0163168)
(-3.0395e-06 -9.4049e-06 0.0162819)
(3.26846e-07 -9.62397e-06 0.0163631)
(-7.99043e-07 -9.92336e-06 0.016356)
(-1.94228e-06 -1.00475e-05 0.0163398)
(-2.9034e-06 -9.92706e-06 0.0163106)
(-6.15179e-08 -1.01481e-05 0.0163718)
(-9.8152e-07 -1.03453e-05 0.0163658)
(-1.93375e-06 -1.02921e-05 0.0163516)
(-2.67057e-06 -9.89486e-06 0.0163251)
(7.5458e-07 -5.46237e-06 0.0163192)
(-8.58684e-08 -5.58918e-06 0.0163072)
(-9.87664e-07 -5.70948e-06 0.0162814)
(-1.82816e-06 -5.70481e-06 0.016237)
(5.07029e-07 -6.33494e-06 0.0163484)
(-2.7851e-07 -6.49913e-06 0.0163392)
(-1.08169e-06 -6.58801e-06 0.016319)
(-1.83031e-06 -6.55092e-06 0.0162837)
(2.79944e-07 -6.97399e-06 0.016365)
(-4.15891e-07 -7.10854e-06 0.0163578)
(-1.10974e-06 -7.12324e-06 0.0163414)
(-1.68499e-06 -6.9725e-06 0.0163117)
(9.12334e-08 -7.37684e-06 0.0163733)
(-4.80357e-07 -7.44919e-06 0.016367)
(-1.04241e-06 -7.37038e-06 0.0163525)
(-1.47282e-06 -7.05837e-06 0.0163255)
(4.61172e-07 -3.83545e-06 0.0163211)
(-7.08947e-08 -3.88603e-06 0.0163092)
(-6.28517e-07 -3.91546e-06 0.0162833)
(-1.13398e-06 -3.86958e-06 0.0162387)
(3.36565e-07 -4.44128e-06 0.01635)
(-1.55806e-07 -4.51578e-06 0.0163408)
(-6.43803e-07 -4.52955e-06 0.0163205)
(-1.10181e-06 -4.46445e-06 0.016285)
(2.2476e-07 -4.87785e-06 0.0163663)
(-2.12282e-07 -4.94035e-06 0.016359)
(-6.24126e-07 -4.92016e-06 0.0163424)
(-9.72388e-07 -4.78558e-06 0.0163124)
(1.43668e-07 -5.19152e-06 0.0163741)
(-2.34554e-07 -5.20489e-06 0.0163678)
(-5.56196e-07 -5.12968e-06 0.0163531)
(-8.02703e-07 -4.90247e-06 0.0163257)
(3.08716e-07 -2.52146e-06 0.0163223)
(-2.10416e-08 -2.53659e-06 0.0163104)
(-3.57823e-07 -2.53301e-06 0.0162845)
(-6.52786e-07 -2.48385e-06 0.0162398)
(2.47763e-07 -2.92113e-06 0.0163509)
(-5.64937e-08 -2.95209e-06 0.0163418)
(-3.47889e-07 -2.93993e-06 0.0163214)
(-6.1479e-07 -2.88047e-06 0.0162858)
(1.94475e-07 -3.19993e-06 0.016367)
(-7.57875e-08 -3.22903e-06 0.0163597)
(-3.17851e-07 -3.20169e-06 0.016343)
(-5.18899e-07 -3.09961e-06 0.0163129)
(1.63437e-07 -3.42232e-06 0.0163745)
(-8.2953e-08 -3.41793e-06 0.0163682)
(-2.63868e-07 -3.35892e-06 0.0163534)
(-4.0443e-07 -3.20253e-06 0.0163259)
(2.84184e-07 -1.44078e-06 0.016323)
(9.56227e-08 -1.43777e-06 0.0163111)
(-9.5756e-08 -1.42464e-06 0.0162852)
(-2.56992e-07 -1.38689e-06 0.0162405)
(2.59075e-07 -1.67584e-06 0.0163515)
(8.44608e-08 -1.68246e-06 0.0163424)
(-8.20106e-08 -1.66398e-06 0.016322)
(-2.3178e-07 -1.61988e-06 0.0162862)
(2.36972e-07 -1.83378e-06 0.0163673)
(8.30683e-08 -1.84381e-06 0.0163601)
(-5.6144e-08 -1.81992e-06 0.0163434)
(-1.73866e-07 -1.75276e-06 0.0163132)
(2.26863e-07 -1.96568e-06 0.0163747)
(8.18771e-08 -1.96092e-06 0.0163684)
(-2.06177e-08 -1.92308e-06 0.0163535)
(-1.05231e-07 -1.8278e-06 0.016326)
(3.66653e-07 -6.62343e-07 0.0163233)
(2.73751e-07 -6.44388e-07 0.0163115)
(1.68591e-07 -6.20033e-07 0.0162856)
(7.41224e-08 -5.90186e-07 0.0162409)
(3.65345e-07 -7.80234e-07 0.0163518)
(2.80018e-07 -7.69932e-07 0.0163427)
(1.85083e-07 -7.47535e-07 0.0163223)
(9.63257e-08 -7.11645e-07 0.0162866)
(3.63699e-07 -8.63747e-07 0.0163675)
(2.88124e-07 -8.58871e-07 0.0163603)
(2.06954e-07 -8.38092e-07 0.0163436)
(1.30749e-07 -7.92589e-07 0.0163134)
(3.6306e-07 -9.30492e-07 0.0163748)
(2.94053e-07 -9.24518e-07 0.0163685)
(2.31366e-07 -9.02048e-07 0.0163537)
(1.66937e-07 -8.51303e-07 0.0163261)
(0.00420345 -0.0042396 0.0277731)
(-0.00148791 0.000249687 0.0144773)
(0.000659838 0.00175816 0.0108214)
(0.00362447 -0.00107677 0.0225162)
(0.000509578 -0.00145665 0.0157538)
(0.00159417 -0.00143031 0.0214091)
(-0.000222702 0.00372226 0.0360812)
(0.000963269 -0.00298967 0.0227546)
(-0.00169088 -0.000184119 0.0177579)
(0.000588613 -0.000598835 0.0104906)
(0.00464692 -0.00305599 0.0284415)
(3.60084e-05 -0.00526939 0.031816)
(-0.000116935 -0.00167274 0.0284917)
(-0.000740861 0.000359817 0.022051)
(0.00185067 -0.00303127 0.0246523)
(0.000419963 -0.000639642 0.00387496)
(-0.00666764 0.00441607 0.0489239)
(0.00283566 0.000306456 0.0381893)
(0.0023946 -0.00135174 0.0280851)
(-0.000481995 -0.000896962 0.0598035)
(-0.00288373 0.00248939 0.0212356)
(-0.000924742 0.00154476 0.042493)
(0.00357393 -0.000109515 0.0398476)
(0.00227648 -0.000471074 0.0118014)
(-0.000617026 0.00167892 0.0535566)
(-0.00123364 0.00166533 0.0305883)
(-0.00100572 0.00158568 0.0421156)
(0.00193425 0.000911929 0.0263535)
(-0.00326885 0.000641054 0.0324382)
(-0.00212861 0.000125056 0.0201856)
(0.000282347 0.00220957 0.0137721)
(0.00343473 0.00284537 0.0463603)
(-0.00207523 0.00226985 0.0196644)
(0.00405585 0.0013369 0.0326795)
(0.00110642 0.000635959 0.0324425)
(0.00155647 0.000631003 0.0327422)
(-0.000952869 0.00479899 0.0307103)
(0.00032724 0.00236226 0.0265858)
(0.000834088 0.000946576 0.0275684)
(0.00165618 -0.00144443 0.0561714)
(-0.00170611 0.0024084 0.0239667)
(0.000249049 0.0019962 0.0305894)
(-0.000649648 0.00241244 0.0502444)
(0.00135942 0.000767366 0.0299978)
(-6.08417e-05 0.00105358 0.00600506)
(0.0013557 0.0014054 0.0479814)
(-0.000169378 0.00119979 0.0193005)
(-0.00089114 0.00289119 0.0616598)
(0.000277641 0.00126238 0.0236888)
(-0.000698031 -0.000669923 0.0379708)
(-0.00121366 -0.00076709 0.0278111)
(0.00108078 -0.00402939 0.0757253)
(-0.000157941 0.000650432 0.0139915)
(-0.00348403 -0.000876089 0.0460255)
(-0.00310793 -0.00117106 0.0453747)
(0.000708243 0.00101926 0.0116968)
(-0.000474578 -0.00264804 0.0488017)
(-0.00175985 0.000667383 0.0417703)
(-0.00120022 0.000784457 0.0295317)
(-0.000876315 0.00263279 0.0240517)
(-0.000405389 -0.000989497 0.0322487)
(0.000400932 0.000630384 0.0201355)
(-0.000755556 0.00210806 0.0320665)
(-0.00204049 0.000227081 0.0262245)
(-0.00039016 -5.02116e-05 0.0217978)
(-0.00325322 -0.00170379 0.0379611)
(-0.00276041 -0.000829206 0.0361413)
(-0.00109971 0.00497917 0.0415662)
(0.000498563 -0.00183481 0.0455154)
(-0.00168894 0.000569916 0.0262534)
(-0.000312174 0.000939163 0.0192419)
(-0.000771473 0.00373366 0.0282366)
(-0.000719869 -0.000972508 0.0412025)
(-0.000694836 0.00024955 0.005899)
(-0.00205351 0.00347558 0.0509593)
(0.000706663 0.00146915 0.0294026)
(-0.00047749 0.000161876 0.0220509)
(-0.000418174 8.91341e-05 0.0507509)
(-1.97126e-05 0.000734166 0.0149037)
(-0.000569391 0.00349735 0.0675955)
(-0.000307942 4.15475e-05 0.00282696)
(-0.00597116 0.00311343 0.030422)
(0.000103502 0.000685811 0.0176778)
(0.00317912 0.00352681 0.035517)
(0.00071219 -0.00117736 0.0273331)
(-0.00299827 0.00322868 0.0234696)
(-0.00226527 0.00317296 0.026039)
(0.000217618 0.00584355 0.0267771)
(5.3817e-05 0.000975027 0.0185967)
(-0.00185586 0.000494764 0.0271925)
(-0.000761463 0.00247065 0.0166346)
(-0.000979683 0.00194539 0.0179494)
(0.00130226 -0.000969427 0.023291)
(-0.000170899 -0.000148701 0.0143696)
(-0.000242773 -0.000171419 0.0242915)
(0.000189321 5.16364e-05 0.00651612)
(0.00067153 -0.000387073 0.00461507)
(-0.000237331 -0.00029938 0.0134973)
(-0.00092466 -0.000159791 0.0157142)
(-0.00041944 0.000591068 0.0268008)
(0.000157047 -0.000299161 0.0266506)
(0.0004479 -0.000489596 0.02595)
(-0.000525495 -0.000480614 0.0111659)
(-0.00152352 -0.000348053 0.012161)
(0.000491416 -0.000250328 0.0219688)
(0.000463374 -9.85275e-05 0.0252711)
(0.000593031 -0.000828945 0.0231958)
(0.000584968 -0.00171745 0.027784)
(0.000982915 -5.80412e-05 0.0222384)
(0.000850873 -0.00040862 0.0190876)
(0.000255058 1.11438e-05 0.0213207)
(0.000625824 -0.000816801 0.0180457)
(-0.000544279 -0.000178492 0.0220543)
(0.000341522 -0.000428765 0.0253158)
(-0.000398889 -0.000571628 0.022311)
(-0.000170731 -0.00014165 0.0332797)
(-0.000623353 -0.000745802 0.0342916)
(0.000311833 -0.000968138 0.0334739)
(0.000169014 -0.00092957 0.0186679)
(0.000189527 -0.000743536 0.0260888)
(-4.04018e-05 -0.00101889 0.0327424)
(0.000138636 -0.000667143 0.0323011)
(0.000231674 -0.001117 0.0300914)
(0.000536926 -0.00111469 0.0327038)
(3.9191e-05 -0.000981091 0.0304956)
(0.000244086 -0.000878798 0.0279228)
(0.000140138 -0.000981709 0.0287376)
(0.000473545 -0.00104056 0.0338074)
(0.00181745 -0.000487108 0.00900595)
(0.000685844 -0.000237006 0.00731762)
(-0.000799344 -0.000510441 0.00662219)
(-0.0014118 -0.000526288 0.00911183)
(0.000658357 -0.000722471 0.0103546)
(0.00112623 -0.000324078 0.00904092)
(3.07331e-05 -0.000999379 0.00684967)
(-0.0013513 -0.000658545 0.00841663)
(0.00070086 2.49749e-05 0.0103039)
(0.000558334 0.000218389 0.00937523)
(-4.43411e-06 -0.00106648 0.00864188)
(-0.000763278 -0.000748744 0.00919276)
(0.000527056 0.000377142 0.0101379)
(0.000368201 0.000239831 0.00908697)
(-0.000397245 -7.93027e-05 0.00879602)
(-0.00079361 -0.000199837 0.00935102)
(0.00103481 -0.00018531 0.0179056)
(0.000692693 -8.47551e-05 0.0173832)
(-5.08994e-05 -0.000278567 0.0167475)
(-0.000518925 -0.000437889 0.0182353)
(0.000589884 -0.000344276 0.0185298)
(0.000810972 -0.000253781 0.0179904)
(0.00026558 -0.00054435 0.0169036)
(-0.000427751 -0.00050511 0.0179696)
(0.000525453 -3.18891e-05 0.018613)
(0.000604236 -2.04706e-05 0.0181537)
(0.00028381 -0.000465928 0.017603)
(-0.000261942 -0.000453188 0.0180865)
(0.000403859 9.18845e-05 0.0184004)
(0.00046579 -2.06936e-05 0.0179495)
(0.000180106 -0.000212805 0.0176637)
(-0.000194017 -0.000358851 0.018035)
(0.00049221 2.54883e-05 0.0152432)
(0.000275573 4.96871e-05 0.014908)
(-0.000142512 -0.000105865 0.0145165)
(-0.000372677 -0.000211108 0.0149786)
(0.000330569 -8.72008e-06 0.0155862)
(0.000282471 -2.34789e-06 0.0152594)
(-6.54401e-05 -0.000173832 0.0147707)
(-0.000378785 -0.000172552 0.0150578)
(0.000274832 9.66357e-06 0.0157324)
(0.000226295 -1.25871e-05 0.0154411)
(-2.84931e-05 -0.00019774 0.0150844)
(-0.000305217 -0.000170513 0.0151561)
(0.000210093 3.86353e-05 0.0157239)
(0.00016733 -1.80452e-05 0.0154753)
(-3.34813e-05 -0.000114592 0.0152215)
(-0.000262266 -0.000112389 0.0152191)
(0.000251688 2.98096e-06 0.0159269)
(0.000174609 1.98108e-05 0.0157958)
(-3.57959e-07 -4.89726e-05 0.0156384)
(-0.0001464 -0.000127202 0.0158816)
(0.000195261 -1.84229e-05 0.0160644)
(0.000171258 -1.77237e-05 0.0159363)
(2.76908e-05 -9.79804e-05 0.0157693)
(-0.000136999 -0.00012947 0.0159404)
(0.000161405 -2.62229e-06 0.016171)
(0.000145539 -1.81944e-05 0.0160529)
(3.55935e-05 -0.000100028 0.0159213)
(-0.000119153 -0.000122389 0.0160011)
(0.000127655 1.32108e-06 0.0162117)
(0.000113302 -3.03577e-05 0.0161156)
(3.27758e-05 -8.99715e-05 0.0160144)
(-9.81589e-05 -0.000118063 0.0160391)
(0.0001194 4.41463e-06 0.0158862)
(7.33244e-05 1.15494e-05 0.0158105)
(-1.34192e-05 -2.45914e-05 0.0156967)
(-8.79466e-05 -6.7695e-05 0.0157574)
(9.95328e-05 -7.163e-06 0.0160344)
(7.0153e-05 -6.6624e-06 0.015958)
(-4.42786e-06 -4.67238e-05 0.0158466)
(-8.69612e-05 -6.64674e-05 0.0158705)
(8.39473e-05 -1.11677e-05 0.0161406)
(6.16021e-05 -1.8142e-05 0.0160693)
(5.86474e-07 -5.73659e-05 0.0159733)
(-7.75939e-05 -6.98497e-05 0.0159601)
(6.73645e-05 -1.55392e-05 0.0162014)
(4.95248e-05 -2.99236e-05 0.0161445)
(1.98291e-06 -6.06796e-05 0.0160669)
(-6.63594e-05 -7.0806e-05 0.0160296)
(5.74487e-05 8.28508e-07 0.0159044)
(3.35391e-05 4.55725e-06 0.0158687)
(-6.00879e-06 -1.36705e-05 0.0158052)
(-4.6058e-05 -3.95104e-05 0.0158241)
(5.01099e-05 -7.87297e-06 0.0160431)
(3.16654e-05 -7.01129e-06 0.016004)
(-3.24896e-06 -2.83703e-05 0.0159401)
(-4.49088e-05 -4.2754e-05 0.0159358)
(4.31986e-05 -1.38825e-05 0.016147)
(2.81361e-05 -1.6967e-05 0.0161086)
(-2.01746e-06 -3.72566e-05 0.0160508)
(-4.12177e-05 -4.65926e-05 0.0160267)
(3.5366e-05 -1.89644e-05 0.0162173)
(2.27918e-05 -2.60012e-05 0.0161846)
(-1.81487e-06 -4.22476e-05 0.0161354)
(-3.61287e-05 -4.90116e-05 0.0160973)
(2.84129e-05 -7.28455e-07 0.0159211)
(1.46798e-05 8.43613e-07 0.0158988)
(-5.15236e-06 -8.92745e-06 0.015854)
(-2.5869e-05 -2.30353e-05 0.0158467)
(2.55141e-05 -7.30253e-06 0.016059)
(1.38108e-05 -6.93242e-06 0.016033)
(-3.93493e-06 -1.82059e-05 0.0159862)
(-2.5011e-05 -2.63341e-05 0.0159625)
(2.23747e-05 -1.25586e-05 0.0161625)
(1.23119e-05 -1.42049e-05 0.0161362)
(-3.57961e-06 -2.46465e-05 0.0160922)
(-2.31789e-05 -3.00116e-05 0.0160567)
(1.85507e-05 -1.70461e-05 0.016235)
(1.00169e-05 -2.06704e-05 0.0162119)
(-3.46954e-06 -2.90483e-05 0.0161732)
(-2.07429e-05 -3.25264e-05 0.0161295)
(1.45137e-05 -1.16071e-06 0.0159348)
(6.21233e-06 -6.64979e-07 0.0159174)
(-4.28475e-06 -6.04092e-06 0.0158827)
(-1.50637e-05 -1.40103e-05 0.0158645)
(1.32565e-05 -6.0939e-06 0.0160725)
(5.83321e-06 -6.11875e-06 0.0160518)
(-3.66132e-06 -1.20751e-05 0.0160133)
(-1.44381e-05 -1.68366e-05 0.015981)
(1.16919e-05 -1.02644e-05 0.0161755)
(5.15666e-06 -1.12691e-05 0.0161544)
(-3.53672e-06 -1.66649e-05 0.0161168)
(-1.35294e-05 -1.975e-05 0.016076)
(9.75649e-06 -1.39078e-05 0.0162481)
(4.1785e-06 -1.58098e-05 0.0162294)
(-3.37904e-06 -2.00823e-05 0.0161952)
(-1.22811e-05 -2.17399e-05 0.016149)
(7.6165e-06 -1.13285e-06 0.0159448)
(2.43166e-06 -1.09608e-06 0.0159292)
(-3.4363e-06 -4.19913e-06 0.0158994)
(-9.1677e-06 -8.80434e-06 0.0158755)
(6.98424e-06 -4.804e-06 0.0160824)
(2.27398e-06 -4.97543e-06 0.0160638)
(-3.05131e-06 -8.19077e-06 0.0160291)
(-8.70275e-06 -1.09604e-05 0.0159923)
(6.18207e-06 -8.04073e-06 0.0161849)
(1.97217e-06 -8.59673e-06 0.0161662)
(-2.96399e-06 -1.1424e-05 0.0161313)
(-8.19346e-06 -1.31522e-05 0.0160874)
(5.23815e-06 -1.08634e-05 0.0162572)
(1.63672e-06 -1.18201e-05 0.0162405)
(-2.78651e-06 -1.39959e-05 0.0162082)
(-7.47703e-06 -1.46566e-05 0.0161603)
(4.0929e-06 -9.66969e-07 0.0159521)
(8.0383e-07 -1.0706e-06 0.0159372)
(-2.61998e-06 -2.94092e-06 0.0159096)
(-5.74775e-06 -5.6783e-06 0.0158827)
(3.75956e-06 -3.68036e-06 0.0160897)
(7.57371e-07 -3.83541e-06 0.016072)
(-2.36425e-06 -5.6322e-06 0.0160388)
(-5.39635e-06 -7.26894e-06 0.0159996)
(3.34507e-06 -6.10232e-06 0.0161918)
(6.48079e-07 -6.42985e-06 0.0161741)
(-2.28626e-06 -7.9273e-06 0.0161403)
(-5.08688e-06 -8.88718e-06 0.0160947)
(2.88005e-06 -8.24504e-06 0.0162636)
(5.71623e-07 -8.75535e-06 0.0162478)
(-2.08907e-06 -9.83042e-06 0.0162163)
(-4.63534e-06 -1.00088e-05 0.0161675)
(2.25408e-06 -7.61492e-07 0.0159573)
(1.4022e-07 -8.98669e-07 0.0159427)
(-1.93453e-06 -2.0651e-06 0.015916)
(-3.69511e-06 -3.73348e-06 0.0158875)
(2.06979e-06 -2.73709e-06 0.0160948)
(1.38739e-07 -2.87265e-06 0.0160775)
(-1.75175e-06 -3.90112e-06 0.0160449)
(-3.42495e-06 -4.87766e-06 0.0160044)
(1.84938e-06 -4.53136e-06 0.0161967)
(1.1046e-07 -4.73066e-06 0.0161794)
(-1.67681e-06 -5.52339e-06 0.016146)
(-3.21572e-06 -6.05607e-06 0.0160994)
(1.62378e-06 -6.13862e-06 0.0162682)
(1.44253e-07 -6.40309e-06 0.0162528)
(-1.49184e-06 -6.91395e-06 0.0162215)
(-2.90555e-06 -6.87985e-06 0.016172)
(1.27148e-06 -5.66652e-07 0.015961)
(-9.9918e-08 -6.9997e-07 0.0159465)
(-1.38714e-06 -1.43411e-06 0.01592)
(-2.40087e-06 -2.47168e-06 0.0158907)
(1.16137e-06 -1.98027e-06 0.0160984)
(-8.58629e-08 -2.09361e-06 0.0160812)
(-1.25408e-06 -2.68574e-06 0.0160489)
(-2.1998e-06 -3.28098e-06 0.0160075)
(1.04081e-06 -3.28498e-06 0.0162002)
(-8.18267e-08 -3.40402e-06 0.016183)
(-1.18784e-06 -3.82607e-06 0.0161497)
(-2.05433e-06 -4.12631e-06 0.0161025)
(9.3483e-07 -4.46347e-06 0.0162714)
(-1.40068e-08 -4.59504e-06 0.0162561)
(-1.03469e-06 -4.8295e-06 0.0162249)
(-1.83646e-06 -4.72026e-06 0.016175)
(7.3424e-07 -4.00229e-07 0.0159635)
(-1.49909e-07 -5.06774e-07 0.0159491)
(-9.49722e-07 -9.67634e-07 0.0159227)
(-1.54447e-06 -1.61423e-06 0.0158928)
(6.6537e-07 -1.37914e-06 0.0161009)
(-1.35423e-07 -1.46322e-06 0.0160838)
(-8.56823e-07 -1.80682e-06 0.0160515)
(-1.40043e-06 -2.1717e-06 0.0160096)
(5.97927e-07 -2.29363e-06 0.0162025)
(-1.22974e-07 -2.36267e-06 0.0161855)
(-8.07093e-07 -2.58973e-06 0.0161521)
(-1.29994e-06 -2.76397e-06 0.0161046)
(5.50508e-07 -3.12902e-06 0.0162735)
(-5.71533e-08 -3.19148e-06 0.0162583)
(-6.94475e-07 -3.29666e-06 0.0162271)
(-1.15166e-06 -3.17922e-06 0.016177)
(4.51727e-07 -2.59887e-07 0.0159651)
(-9.83903e-08 -3.28908e-07 0.0159507)
(-5.83248e-07 -6.04299e-07 0.0159244)
(-9.32181e-07 -9.91799e-07 0.0158942)
(4.0905e-07 -8.96455e-07 0.0161025)
(-8.87159e-08 -9.48687e-07 0.0160854)
(-5.23019e-07 -1.14153e-06 0.0160531)
(-8.35052e-07 -1.3561e-06 0.016011)
(3.71846e-07 -1.49595e-06 0.016204)
(-7.76589e-08 -1.53195e-06 0.016187)
(-4.90024e-07 -1.65109e-06 0.0161536)
(-7.6782e-07 -1.74978e-06 0.0161059)
(3.52162e-07 -2.05112e-06 0.0162749)
(-2.75608e-08 -2.0778e-06 0.0162598)
(-4.15089e-07 -2.12309e-06 0.0162285)
(-6.70081e-07 -2.02557e-06 0.0161783)
(3.45718e-07 -1.3958e-07 0.0159661)
(3.5789e-08 -1.6177e-07 0.0159517)
(-2.37557e-07 -2.96224e-07 0.0159254)
(-4.38941e-07 -4.96912e-07 0.0158951)
(3.22781e-07 -5.02766e-07 0.0161035)
(4.18935e-08 -5.18142e-07 0.0160864)
(-2.01836e-07 -6.05666e-07 0.0160541)
(-3.77809e-07 -7.13406e-07 0.0160118)
(3.06235e-07 -8.45103e-07 0.0162049)
(5.13192e-08 -8.52476e-07 0.016188)
(-1.80524e-07 -9.01117e-07 0.0161546)
(-3.34442e-07 -9.47829e-07 0.0161067)
(3.0162e-07 -1.16641e-06 0.0162757)
(8.51287e-08 -1.16988e-06 0.0162606)
(-1.337e-07 -1.18294e-06 0.0162293)
(-2.72701e-07 -1.11555e-06 0.0161791)
(3.67235e-07 -4.39008e-08 0.0159666)
(2.15314e-07 -1.68338e-08 0.0159523)
(6.66915e-08 -4.56328e-08 0.015926)
(-5.17594e-08 -1.10746e-07 0.0158956)
(3.59753e-07 -2.15428e-07 0.016104)
(2.21052e-07 -1.92926e-07 0.0160869)
(8.61653e-08 -2.05482e-07 0.0160546)
(-2.16593e-08 -2.31101e-07 0.0160123)
(3.58683e-07 -3.78766e-07 0.0162054)
(2.33028e-07 -3.59778e-07 0.0161885)
(1.08144e-07 -3.59114e-07 0.0161551)
(1.20182e-08 -3.59362e-07 0.0161073)
(3.64521e-07 -5.30698e-07 0.0162761)
(2.57163e-07 -5.14883e-07 0.0162611)
(1.41823e-07 -5.0143e-07 0.0162298)
(5.53679e-08 -4.58712e-07 0.0161796)
(0.00218579 -0.00321865 0.0338478)
(0.00259179 -0.00502573 0.0254452)
(0.00280413 -0.0039646 0.0180917)
(0.00357623 -0.00277717 0.0323166)
(-0.00192818 -0.00202818 0.0219633)
(0.000201781 -0.000204527 0.0165789)
(0.00142296 0.000270133 0.00355333)
(0.00319533 -0.00279852 0.0116849)
(0.000224996 -0.00133244 0.0134892)
(0.00262675 -0.00192616 0.0179219)
(0.000653697 0.00111784 0.0254601)
(-0.000401524 -0.00086725 0.0185433)
(-0.00107343 0.000164801 0.00540708)
(0.00260754 -0.000798907 0.0124943)
(0.00406428 -0.000888951 0.0251155)
(-0.000184043 0.000347993 0.0303722)
(0.00118364 0.000727168 0.00721756)
(-0.00206929 0.00188053 0.0295189)
(0.000555642 0.00258234 0.0261198)
(0.00157326 0.00322477 0.0336496)
(0.000377011 0.000944328 0.024962)
(0.00214779 -3.19701e-05 0.0253466)
(0.00276593 0.000388434 0.0446744)
(0.00140688 0.00301877 0.0600479)
(0.0028112 0.0028286 0.0309059)
(-0.000864074 0.000667791 0.0560282)
(0.0010726 -0.00160514 0.0315309)