/*--------------------------------*- C++ -*----------------------------------*\
| =========                 |                                                 |
| \\      /  F ield         | OpenFOAM: The Open Source CFD Toolbox           |
|  \\    /   O peration     | Version:  2506                                  |
|   \\  /    A nd           | Website:  www.openfoam.com                      |
|    \\/     M anipulation  |                                                 |
\*---------------------------------------------------------------------------*/
FoamFile
{
    version     2.0;
    format      ascii;
    arch        "LSB;label=32;scalar=64";
    class       volScalarField;
    location    "0.08";
    object      voidfraction;
}
// * * * * * * * * * * * * * * * * * * * * * * * * * * * * * * * * * * * * * //

dimensions      [0 0 0 0 0 0 0];

internalField   nonuniform List<scalar> 
1152
(
0.52863
0.44963
0.446997
0.444363
0.436463
0.468063
0.375896
0.44173
0.446997
0.428563
0.404863
0.475963
0.420663
0.428563
0.49703
0.51283
0.428563
0.436463
0.454897
0.378529
0.423296
0.404863
0.415396
0.468063
0.454897
0.42593
0.41803
0.40223
0.331129
0.41803
0.328496
0.420663
0.47333
0.389063
0.396963
0.344296
0.381163
0.420663
0.38643
0.444363
0.339029
0.396963
0.407496
0.344296
0.38643
0.44963
0.483863
0.412763
0.378529
0.41803
0.357463
0.370629
0.341663
0.381163
0.468063
0.431196
0.462797
0.40223
0.415396
0.354829
0.328496
0.396963
0.42593
0.341663
0.41803
0.404863
0.436463
0.389063
0.412763
0.344296
0.370629
0.415396
0.399596
0.412763
0.362729
0.446997
0.50493
0.344296
0.44963
0.470697
0.381163
0.436463
0.40223
0.44963
0.46543
0.367996
0.389063
0.336396
0.41803
0.45753
0.396963
0.378529
0.344296
0.328496
0.42593
0.396963
0.683998
0.691898
0.612898
0.712965
0.660298
0.602364
0.647131
0.562864
0.586564
0.689265
0.628698
0.657665
0.45753
0.604998
0.794599
0.752465
1
1
1
1
1
1
1
1
1
1
1
1
0.997367
1
1
1
1
1
1
1
1
1
1
1
1
1
1
1
1
1
1
1
1
1
1
1
1
1
1
1
1
1
1
1
1
1
1
1
1
1
1
1
1
1
1
1
1
1
1
1
1
1
1
1
1
1
1
1
1
1
1
1
1
1
1
1
1
1
1
1
1
1
1
1
1
1
1
1
1
1
1
1
1
1
1
1
1
1
1
1
1
1
1
1
1
1
1
1
1
1
1
1
1
1
1
1
1
1
1
1
1
1
1
1
1
1
1
1
1
1
1
1
1
1
1
1
1
1
1
1
1
1
1
1
1
1
1
1
1
1
1
1
1
1
1
1
1
1
1
1
1
1
1
1
1
1
1
1
1
1
1
1
1
1
1
1
1
1
1
1
1
1
1
1
1
1
1
1
1
1
1
1
1
1
1
1
1
1
1
1
1
1
1
1
1
1
1
1
1
1
1
1
1
1
1
1
1
1
1
1
1
1
1
1
1
1
1
1
1
1
1
1
1
1
1
1
1
1
1
1
1
1
1
1
1
1
1
1
1
1
1
1
1
1
1
1
1
1
1
1
1
1
1
1
1
1
1
1
1
1
1
1
0.527528
0.435909
0.423838
0.482022
0.448104
0.477765
0.539566
0.430693
0.471586
0.399331
0.49311
0.510388
0.486298
0.447793
0.47684
0.386657
0.516789
0.447343
0.43036
0.484719
0.438213
0.452394
0.461609
0.390471
0.476008
0.41595
0.454332
0.419719
0.443699
0.388241
0.393391
0.447991
0.368247
0.405417
0.417315
0.438857
0.37887
0.395307
0.393397
0.464728
0.367672
0.411202
0.451562
0.412466
0.328429
0.428845
0.380553
0.478658
0.359299
0.416852
0.417315
0.503604
0.34722
0.431251
0.437248
0.375
0.436211
0.423073
0.407244
0.361691
0.37604
0.361172
0.383763
0.386657
0.378985
0.42638
0.43036
0.433461
0.448104
0.388964
0.381216
0.365718
0.416313
0.320983
0.432173
0.397959
0.361005
0.431552
0.354876
0.469896
0.346771
0.454966
0.408618
0.47123
0.444148
0.435479
0.425067
0.424505
0.414102
0.427821
0.401704
0.390705
0.403605
0.377414
0.409439
0.334084
0.695756
0.565497
0.56516
0.678961
0.719107
0.697654
0.544439
0.576114
0.750164
0.715098
0.667613
0.727993
0.799531
0.677879
0.711139
0.649518
1
1
1
1
1
1
1
1
1
1
1
1
1
1
1
1
1
1
1
1
1
1
1
1
1
1
1
1
1
1
1
1
1
1
1
1
1
1
1
1
1
1
1
1
1
1
1
1
1
1
1
1
1
1
1
1
1
1
1
1
1
1
1
1
1
1
1
1
1
1
1
1
1
1
1
1
1
1
1
1
1
1
1
1
1
1
1
1
1
1
1
1
1
1
1
1
1
1
1
1
1
1
1
1
1
1
1
1
1
1
1
1
1
1
1
1
1
1
1
1
1
1
1
1
1
1
1
1
1
1
1
1
1
1
1
1
1
1
1
1
1
1
1
1
1
1
1
1
1
1
1
1
1
1
1
1
1
1
1
1
1
1
1
1
1
1
1
1
1
1
1
1
1
1
1
1
1
1
1
1
1
1
1
1
1
1
1
1
1
1
1
1
1
1
1
1
1
1
1
1
1
1
1
1
1
1
1
1
1
1
1
1
1
1
1
1
1
1
1
1
1
1
1
1
1
1
1
1
1
1
1
1
1
1
1
1
1
1
1
1
1
1
1
1
1
1
1
1
1
1
1
1
1
1
1
1
1
1
1
1
1
1
1
1
1
1
1
1
1
1
1
1
0.465515
0.445107
0.45854
0.530582
0.438325
0.434943
0.351982
0.452102
0.41531
0.456311
0.471422
0.464495
0.343464
0.389782
0.473819
0.46131
0.382276
0.419719
0.427599
0.44695
0.412649
0.421093
0.466482
0.508631
0.420724
0.494298
0.439708
0.420663
0.373534
0.356617
0.444148
0.377195
0.513706
0.426973
0.340966
0.425368
0.444744
0.385085
0.439684
0.40427
0.396362
0.368467
0.420679
0.38636
0.433675
0.378727
0.351176
0.489944
0.351609
0.397959
0.350248
0.449648
0.338829
0.393394
0.429939
0.419489
0.388241
0.401705
0.363593
0.468306
0.426158
0.414102
0.368979
0.380775
0.364752
0.434226
0.375
0.352527
0.425487
0.398934
0.403142
0.439057
0.404483
0.406454
0.460851
0.397795
0.38857
0.427367
0.438213
0.51142
0.35599
0.419719
0.310025
0.460439
0.415858
0.393394
0.464045
0.382528
0.401776
0.361344
0.405879
0.388266
0.383558
0.40968
0.392716
0.370037
0.706471
0.640951
0.709159
0.714033
0.653366
0.601136
0.697917
0.821716
0.6075
0.772078
0.805483
0.712237
0.681755
0.708156
0.835816
0.810295
1
1
1
1
1
1
1
1
1
1
1
1
1
1
1
1
1
1
1
1
1
1
1
1
1
1
1
1
1
1
1
1
1
1
1
1
1
1
1
1
1
1
1
1
1
1
1
1
1
1
1
1
1
1
1
1
1
1
1
1
1
1
1
1
1
1
1
1
1
1
1
1
1
1
1
1
1
1
1
1
1
1
1
1
1
1
1
1
1
1
1
1
1
1
1
1
1
1
1
1
1
1
1
1
1
1
1
1
1
1
1
1
1
1
1
1
1
1
1
1
1
1
1
1
1
1
1
1
1
1
1
1
1
1
1
1
1
1
1
1
1
1
1
1
1
1
1
1
1
1
1
1
1
1
1
1
1
1
1
1
1
1
1
1
1
1
1
1
1
1
1
1
1
1
1
1
1
1
1
1
1
1
1
1
1
1
1
1
1
1
1
1
1
1
1
1
1
1
1
1
1
1
1
1
1
1
1
1
1
1
1
1
1
1
1
1
1
1
1
1
1
1
1
1
1
1
1
1
1
1
1
1
1
1
1
1
1
1
1
1
1
1
1
1
1
1
1
1
1
1
1
1
1
1
1
1
1
1
1
1
1
1
1
1
1
1
1
1
1
1
1
1
)
;

boundaryField
{
    inlet
    {
        type            fixedValue;
        value           uniform 1;
    }
    outlet
    {
        type            fixedValue;
        value           uniform 1;
    }
    wall
    {
        type            zeroGradient;
    }
    procBoundary1to0
    {
        type            processor;
        value           nonuniform List<scalar> 
192
(
0.362729
0.404863
0.420663
0.412763
0.373263
0.381163
0.378529
0.45753
0.315329
0.444363
0.45753
0.365363
0.407496
0.423296
0.331129
0.483863
0.41803
0.373263
0.470697
0.378529
0.431196
0.468063
0.452263
0.45753
0.581297
0.523364
0.676098
0.541797
1
1
1
1
1
1
1
1
1
1
1
1
1
1
1
1
1
1
1
1
1
1
1
1
1
1
1
1
1
1
1
1
1
1
1
1
1
1
1
1
1
1
1
1
1
1
1
1
1
1
1
1
1
1
1
1
1
1
1
1
1
1
1
1
1
1
1
1
0.393302
0.416454
0.476008
0.371029
0.402251
0.479754
0.361039
0.463745
0.479206
0.42041
0.367672
0.423652
0.455941
0.428323
0.440633
0.401099
0.448782
0.410519
0.372094
0.436181
0.497103
0.382826
0.440633
0.438687
0.599114
0.630091
0.756797
0.66672
1
1
1
1
1
1
1
1
1
1
1
1
1
1
1
1
1
1
1
1
1
1
1
1
1
1
1
1
1
1
1
1
1
1
1
1
1
1
1
1
1
1
1
1
1
1
1
1
1
1
1
1
1
1
1
1
1
1
1
1
1
1
1
1
1
1
1
1
)
;
    }
    procBoundary1to3
    {
        type            processor;
        value           nonuniform List<scalar> 
192
(
0.560231
0.428563
0.415396
0.341663
0.518097
0.41803
0.475963
0.439097
0.378529
0.360096
0.381163
0.454897
0.241595
0.357463
0.431196
0.375896
0.331129
0.499664
0.391696
0.344296
0.499664
0.446997
0.40223
0.446997
0.494397
0.49703
0.562864
0.657665
1
0.997367
1
1
1
1
1
1
1
1
1
1
1
1
1
1
1
1
1
1
1
1
1
1
1
1
1
1
1
1
1
1
1
1
1
1
1
1
1
1
1
1
1
1
1
1
1
1
1
1
1
1
1
1
1
1
1
1
1
1
1
1
1
1
1
1
1
1
0.488804
0.524649
0.418432
0.436254
0.476275
0.358828
0.477776
0.473837
0.401099
0.356617
0.412498
0.434465
0.411122
0.411891
0.45206
0.432675
0.41864
0.383149
0.372935
0.396882
0.451216
0.438422
0.467885
0.409409
0.649179
0.690469
0.693391
0.643856
1
1
1
1
1
1
1
1
1
1
1
1
1
1
1
1
1
1
1
1
1
1
1
1
1
1
1
1
1
1
1
1
1
1
1
1
1
1
1
1
1
1
1
1
1
1
1
1
1
1
1
1
1
1
1
1
1
1
1
1
1
1
1
1
1
1
1
1
)
;
    }
}


// ************************************************************************* //
