FoamFile
{version 2.0; format ascii;class Cloud<passiveParticle>; location 0;object  positions;}
1000
(
( 0.0287104 0.0356584 0.0882586 ) 0 
( 0.0320807 0.0811198 0.0990249 ) 0 
( 0.0404648 0.0923164 0.097308 ) 0 
( 0.0923906 0.00891957 0.0891612 ) 0 
( 0.0075923 0.0038425 0.099331 ) 0 
( 0.0947962 0.0400707 0.0993174 ) 0 
( 0.0184186 0.0613562 0.08911 ) 0 
( 0.0204019 0.094262 0.0975187 ) 0 
( 0.023502 0.0972807 0.0995002 ) 0 
( 0.0649918 0.0170136 0.0922039 ) 0 
( 0.00156662 0.0301633 0.0936879 ) 0 
( 0.020439 0.0184885 0.0901468 ) 0 
( 0.050637 0.0566128 0.0995002 ) 0 
( 0.0183178 0.0673761 0.0995002 ) 0 
( 0.0753183 0.0747278 0.0942825 ) 0 
( 0.0586253 0.0159152 0.0995002 ) 0 
( 0.0185712 0.0262131 0.0982691 ) 0 
( 0.0210311 0.069631 0.0994991 ) 0 
( 0.00614947 0.0542021 0.0989991 ) 0 
( 0.0151829 0.0794021 0.0891918 ) 0 
( 0.0830791 0.0102947 0.0892424 ) 0 
( 0.0621296 0.0128783 0.0931351 ) 0 
( 0.0994523 0.0953367 0.0892322 ) 0 
( 0.0801185 0.0519936 0.0961161 ) 0 
( 0.0303269 0.0034686 0.0995002 ) 0 
( 0.0834279 0.0728479 0.0955796 ) 0 
( 0.028118 0.0760603 0.0995002 ) 0 
( 0.0898694 0.0353168 0.0992509 ) 0 
( 0.103393 0.00199291 0.0986849 ) 0 
( 0.0880664 0.0320384 0.099208 ) 0 
( 0.0646222 0.00457085 0.0891739 ) 0 
( 0.064296 0.0231697 0.0888961 ) 0 
( 0.0158421 0.0714337 0.0994861 ) 0 
( 0.0720746 0.0582478 0.099139 ) 0 
( 0.0725404 0.0865603 0.0889645 ) 0 
( 0.0115369 0.00131155 0.0926408 ) 0 
( 0.065431 0.0987042 0.0891061 ) 0 
( 0.0405652 0.0788911 0.0897777 ) 0 
( 0.0837183 0.0536989 0.089286 ) 0 
( 0.0932868 0.0715921 0.0938247 ) 0 
( 0.0909576 0.0244531 0.0994389 ) 0 
( 0.0271829 0.0624781 0.0991617 ) 0 
( 0.0492923 0.0562255 0.0992439 ) 0 
( 0.0749323 0.0866027 0.0895418 ) 0 
( 0.0750015 0.0497546 0.0901912 ) 0 
( 0.035744 0.048901 0.0991335 ) 0 
( 0.0624324 0.000944971 0.0993471 ) 0 
( 0.0225493 0.0852625 0.0892058 ) 0 
( 0.0759994 0.0226156 0.0895787 ) 0 
( 0.0228151 0.053469 0.0934866 ) 0 
( 0.0241705 0.0341179 0.0896858 ) 0 
( 0.0227001 0.0199199 0.0995002 ) 0 
( 0.0223719 0.00472051 0.0916287 ) 0 
( 0.00765034 0.0793298 0.0995002 ) 0 
( 0.0733205 0.0970288 0.098278 ) 0 
( 0.0322576 0.0540702 0.09642 ) 0 
( 0.0716514 0.0449743 0.099412 ) 0 
( 0.0514745 0.032082 0.088943 ) 0 
( 0.0819915 0.0317811 0.0914107 ) 0 
( 0.011964 0.0786306 0.0914518 ) 0 
( 0.03153 0.0248071 0.0899412 ) 0 
( 0.0788201 0.0286294 0.0990196 ) 0 
( 0.0234632 0.0461479 0.0887629 ) 0 
( 0.0423195 0.064393 0.0931415 ) 0 
( 0.0884539 0.0451147 0.0912767 ) 0 
( 0.0894784 0.0888389 0.0995002 ) 0 
( 0.0109052 0.0834227 0.0994782 ) 0 
( 0.0546285 0.0414812 0.0990382 ) 0 
( 0.00701064 0.0278073 0.0959033 ) 0 
( 0.0527626 0.0805332 0.089154 ) 0 
( 0.0143884 0.0255734 0.0889266 ) 0 
( 0.0904253 0.0775489 0.0985845 ) 0 
( 0.0419063 0.0189716 0.0955271 ) 0 
( 0.0347331 0.0600158 0.0994667 ) 0 
( 0.0816975 0.0895706 0.0889715 ) 0 
( 0.0274541 0.0218883 0.0990907 ) 0 
( 0.0685251 0.00117523 0.0946119 ) 0 
( 0.0937992 0.0827842 0.09353 ) 0 
( 0.0859386 0.0705507 0.091776 ) 0 
( 0.0874445 0.0798753 0.0980394 ) 0 
( 0.0231988 0.00148629 0.0991626 ) 0 
( 0.0571997 0.0559475 0.0877319 ) 0 
( 0.0906796 0.0527227 0.0890645 ) 0 
( 0.0376628 0.0992345 0.0898263 ) 0 
( 0.0416267 0.0207105 0.0993943 ) 0 
( 0.0192372 0.0196156 0.0991832 ) 0 
( 0.0203222 0.056035 0.0992667 ) 0 
( 0.0472625 0.0405482 0.0995002 ) 0 
( 0.0432011 0.0816094 0.0892019 ) 0 
( 0.0487808 0.0592328 0.0893126 ) 0 
( 0.0746873 0.0694394 0.0984195 ) 0 
( 0.0723916 0.0854046 0.0995002 ) 0 
( 0.0033592 0.017421 0.0994668 ) 0 
( 0.0572888 0.0520277 0.0904417 ) 0 
( 0.0876101 0.0623906 0.0995002 ) 0 
( 0.087883 0.0498091 0.0911072 ) 0 
( 0.0918823 0.0659859 0.0893444 ) 0 
( 0.00884397 0.0178846 0.0995002 ) 0 
( 0.0960453 0.0336567 0.0993638 ) 0 
( 0.079965 0.0722799 0.0878361 ) 0 
( 0.0641145 0.0725542 0.0890855 ) 0 
( 0.050557 0.0111316 0.0995002 ) 0 
( 0.0715052 0.0878363 0.0989364 ) 0 
( 0.066001 0.0781395 0.0995002 ) 0 
( 0.0257842 0.0553848 0.0941788 ) 0 
( 0.0895639 0.0293518 0.0978284 ) 0 
( 0.0616895 0.0158206 0.0995002 ) 0 
( 0.0337862 0.091545 0.0995002 ) 0 
( 0.0904769 0.0446793 0.0887315 ) 0 
( 0.0889488 0.0125632 0.0959905 ) 0 
( 0.0367416 0.0153139 0.0992697 ) 0 
( 0.00627855 0.0236693 0.0891885 ) 0 
( 0.0838138 0.0583762 0.0892279 ) 0 
( 0.00384148 0.063796 0.0889874 ) 0 
( 0.0220386 0.00322524 0.0885969 ) 0 
( 0.0619647 0.0399894 0.0894262 ) 0 
( 0.0245969 0.0651104 0.0995002 ) 0 
( 0.0652351 0.00683316 0.0912862 ) 0 
( 0.0703018 0.0626824 0.0888323 ) 0 
( 0.0472711 0.085948 0.0895417 ) 0 
( 0.0299979 0.0754903 0.0972302 ) 0 
( 0.0163363 0.0635218 0.0891551 ) 0 
( 0.0791742 0.0809988 0.0918198 ) 0 
( 0.0936351 0.0257977 0.0990237 ) 0 
( 0.0255015 0.0970639 0.0924622 ) 0 
( 0.0757318 0.0246705 0.0915299 ) 0 
( 0.0255407 0.0631954 0.0896669 ) 0 
( 0.0231694 0.00753439 0.0896092 ) 0 
( 0.0340158 0.00325132 0.0915692 ) 0 
( 0.059091 0.0431884 0.0981555 ) 0 
( 0.013181 0.0322268 0.0914558 ) 0 
( 0.0971452 0.0194986 0.0890822 ) 0 
( 0.070721 0.00717237 0.0917723 ) 0 
( 0.0798419 0.00201192 0.0889118 ) 0 
( 0.0929425 0.0840022 0.0891153 ) 0 
( 0.0374813 0.0481409 0.0895208 ) 0 
( 0.0935402 0.0299455 0.0995002 ) 0 
( 0.0402615 0.0747781 0.0995002 ) 0 
( 0.0430293 0.0934076 0.088412 ) 0 
( 0.0653862 0.0453935 0.0904049 ) 0 
( 0.0370485 0.0736081 0.0906675 ) 0 
( 0.0270526 0.0729589 0.0879884 ) 0 
( 0.0442655 0.0697484 0.0976282 ) 0 
( 0.0897711 0.082739 0.0995002 ) 0 
( 0.0765448 0.087935 0.0899569 ) 0 
( 0.0391814 0.0213972 0.0891761 ) 0 
( 0.0641181 0.0326592 0.0882862 ) 0 
( 0.0483104 0.0524148 0.0896925 ) 0 
( 0.0300298 0.0915646 0.0923635 ) 0 
( 0.0607954 0.0881711 0.0995002 ) 0 
( 0.0798552 0.0258046 0.0995002 ) 0 
( 0.00972659 0.0748281 0.0914601 ) 0 
( 0.0704762 0.092897 0.0897588 ) 0 
( 0.0955959 0.0795605 0.0990382 ) 0 
( 0.0624449 0.011526 0.0891091 ) 0 
( 0.0927114 0.00090215 0.0960543 ) 0 
( 0.0232423 0.0332863 0.0910239 ) 0 
( 0.0794884 0.0613429 0.0995002 ) 0 
( 0.0527272 0.0862997 0.0902138 ) 0 
( 0.0935295 0.0511419 0.0918844 ) 0 
( 0.054389 0.0162691 0.0908488 ) 0 
( 0.0357707 0.0979922 0.0951187 ) 0 
( 0.0559095 0.071085 0.0892864 ) 0 
( 0.0947873 0.0900212 0.0995003 ) 0 
( 0.0264999 0.0834319 0.0917469 ) 0 
( 0.0691938 0.0407666 0.0977827 ) 0 
( 0.0490203 0.0846719 0.0991711 ) 0 
( 0.0190611 0.0591466 0.099023 ) 0 
( 0.0285035 0.0586076 0.0891058 ) 0 
( 0.0842889 0.0441397 0.0954821 ) 0 
( 0.0364423 0.00114205 0.0995002 ) 0 
( 0.0968432 0.0442069 0.0994979 ) 0 
( 0.0221915 0.0718568 0.0995002 ) 0 
( 0.0910408 0.022317 0.0993663 ) 0 
( 0.0159775 0.0332158 0.0948607 ) 0 
( 0.0400828 0.0716053 0.0990627 ) 0 
( 0.0663305 0.0174003 0.0917807 ) 0 
( 0.0733905 0.0546878 0.0909119 ) 0 
( 0.0916485 0.0355825 0.0912493 ) 0 
( 0.0403907 0.0830857 0.0995002 ) 0 
( 0.0837042 0.0160309 0.0896336 ) 0 
( 0.0731045 0.0678459 0.0994665 ) 0 
( 0.0259709 0.0923657 0.0995002 ) 0 
( 0.025649 0.0824913 0.089722 ) 0 
( 0.0206719 0.0329809 0.0888497 ) 0 
( 0.0733839 0.0630116 0.0901993 ) 0 
( 0.088666 0.00988114 0.099099 ) 0 
( 0.0391351 0.0432808 0.0891061 ) 0 
( 0.0695327 0.035783 0.0892126 ) 0 
( 0.000503586 0.0637636 0.0989864 ) 0 
( 0.0552847 0.0701025 0.0891022 ) 0 
( 0.0384851 0.0191438 0.0923339 ) 0 
( 0.0957911 0.0613028 0.089089 ) 0 
( 0.0283003 0.0427339 0.0895265 ) 0 
( 0.0521797 0.0835107 0.0989075 ) 0 
( 0.0411227 0.0498421 0.0995002 ) 0 
( 0.025441 0.0869233 0.0890465 ) 0 
( 0.0106878 0.0297887 0.0963697 ) 0 
( 0.0861941 0.0650345 0.091162 ) 0 
( 0.0885192 0.0883882 0.0995002 ) 0 
( 0.0641289 0.0138866 0.0995002 ) 0 
( 0.0451511 0.0548696 0.0995002 ) 0 
( 0.053183 0.046213 0.0895663 ) 0 
( 0.0444331 0.033982 0.0994645 ) 0 
( 0.0853668 0.0593592 0.0936139 ) 0 
( 0.0580701 0.0846064 0.0989472 ) 0 
( 0.0689265 0.047637 0.0901459 ) 0 
( 0.0757007 0.00182443 0.0963132 ) 0 
( 0.0830678 0.0200772 0.0910548 ) 0 
( 0.00145529 0.059017 0.0995002 ) 0 
( 0.0621164 0.090053 0.0890896 ) 0 
( 0.0847636 0.0215657 0.0936083 ) 0 
( 0.0712287 0.0400209 0.0897422 ) 0 
( 0.0144266 0.068559 0.0992171 ) 0 
( 0.0279571 0.0753822 0.0937953 ) 0 
( 0.018506 0.0305747 0.0993813 ) 0 
( 0.01404 0.0699826 0.0995002 ) 0 
( 0.00927066 0.0477774 0.0952478 ) 0 
( 0.0375814 0.0298821 0.0894585 ) 0 
( 0.0230209 0.0124033 0.0981251 ) 0 
( 0.0967625 0.0877727 0.0995002 ) 0 
( 0.00573044 0.0114574 0.0979708 ) 0 
( 0.0825991 0.0423176 0.0895621 ) 0 
( 0.0480331 0.0927323 0.0928171 ) 0 
( 0.0238714 0.0643404 0.0989851 ) 0 
( 0.0149373 0.0516622 0.0995001 ) 0 
( 0.0554368 0.0261564 0.088976 ) 0 
( 0.0342479 0.00484432 0.0874344 ) 0 
( 0.0769021 0.00314815 0.0943713 ) 0 
( 0.00589412 0.062553 0.0893537 ) 0 
( 0.104936 0.0972985 0.096438 ) 0 
( 0.0507898 0.0386455 0.0995002 ) 0 
( 0.0153365 0.0597231 0.0994981 ) 0 
( 0.0842644 0.0324593 0.0913933 ) 0 
( 0.0862334 0.0252568 0.0995002 ) 0 
( 0.0714118 0.0174182 0.0921178 ) 0 
( 0.0764406 0.0365524 0.0903213 ) 0 
( 0.00686217 0.0324704 0.0893951 ) 0 
( 0.0430893 0.00255608 0.0953057 ) 0 
( 0.00240118 0.056569 0.0951755 ) 0 
( 0.0943479 0.00521651 0.0990351 ) 0 
( 0.0321436 0.0378166 0.0994739 ) 0 
( 0.0820543 0.0865034 0.0959144 ) 0 
( 0.0143307 0.0553893 0.0894724 ) 0 
( 0.396759 0.00231284 0.0995002 ) 0 
( 0.0948119 0.00368946 0.0889095 ) 0 
( 0.0747282 0.0572098 0.089912 ) 0 
( 0.0218146 0.0159948 0.0918465 ) 0 
( 0.0360583 0.0319718 0.0927276 ) 0 
( 0.0744561 0.0551698 0.0954372 ) 0 
( 0.0712045 0.0336555 0.0921097 ) 0 
( 0.155937 0.0375554 0.0995002 ) 0 
( 0.185443 0.0386442 0.0995002 ) 0 
( 0.119507 0.0554654 0.0893469 ) 0 
( 0.165293 0.0806276 0.0886801 ) 0 
( 0.111395 0.013617 0.0971118 ) 0 
( 0.149435 0.0521292 0.0901429 ) 0 
( 0.194548 0.0605188 0.0918377 ) 0 
( 0.132422 0.0216145 0.099019 ) 0 
( 0.138915 0.0414598 0.089077 ) 0 
( 0.131707 0.0580839 0.0918915 ) 0 
( 0.150501 0.0707887 0.0927574 ) 0 
( 0.13868 0.0992956 0.0958967 ) 0 
( 0.122645 0.0948039 0.0985287 ) 0 
( 0.195262 0.0658765 0.0994905 ) 0 
( 0.13703 0.0704701 0.0995002 ) 0 
( 0.119997 0.095333 0.0968849 ) 0 
( 0.139081 0.0336211 0.0992784 ) 0 
( 0.187373 0.0850846 0.0889812 ) 0 
( 0.152381 0.0633166 0.0957826 ) 0 
( 0.166105 0.0213381 0.0894935 ) 0 
( 0.121618 0.0338686 0.0895504 ) 0 
( 0.144604 0.0548614 0.0955579 ) 0 
( 0.167347 0.00330511 0.0933716 ) 0 
( 0.106885 0.0177316 0.0995002 ) 0 
( 0.114297 0.0875416 0.0888743 ) 0 
( 0.136992 0.0205434 0.0990644 ) 0 
( 0.157776 0.0486288 0.0887696 ) 0 
( 0.148495 0.0598598 0.0982877 ) 0 
( 0.191792 0.0445249 0.0896077 ) 0 
( 0.189705 0.0636543 0.0913252 ) 0 
( 0.127129 0.0642214 0.0995137 ) 0 
( 0.184088 0.0587693 0.0908855 ) 0 
( 0.150344 0.0301615 0.0888516 ) 0 
( 0.120685 0.0485395 0.0882277 ) 0 
( 0.108531 0.0801351 0.0896229 ) 0 
( 0.104847 0.0676853 0.0994788 ) 0 
( 0.177853 0.0824369 0.0874565 ) 0 
( 0.116504 0.0894226 0.0900194 ) 0 
( 0.141962 0.056328 0.0894586 ) 0 
( 0.128567 0.0276661 0.0994678 ) 0 
( 0.104485 0.07621 0.0973558 ) 0 
( 0.178685 0.0553423 0.0916175 ) 0 
( 0.163112 0.097596 0.096435 ) 0 
( 0.140367 0.0452398 0.0926112 ) 0 
( 0.190003 0.079626 0.0990611 ) 0 
( 0.165119 0.060862 0.08912 ) 0 
( 0.171736 0.0637956 0.0888257 ) 0 
( 0.101691 0.0232342 0.0995002 ) 0 
( 0.123278 0.0300649 0.089526 ) 0 
( 0.123198 0.0887974 0.0890165 ) 0 
( 0.194291 0.0464886 0.0907869 ) 0 
( 0.106856 0.034251 0.0956718 ) 0 
( 0.137615 0.0366473 0.0995002 ) 0 
( 0.108405 0.0560444 0.0905477 ) 0 
( 0.160557 0.088916 0.0888305 ) 0 
( 0.149227 0.055017 0.0992078 ) 0 
( 0.103633 0.0656555 0.0990895 ) 0 
( 0.144585 0.0417346 0.08985 ) 0 
( 0.0941476 0.0729764 0.0989114 ) 0 
( 0.133742 0.00501677 0.088884 ) 0 
( 0.108536 0.0725293 0.0884747 ) 0 
( 0.103478 0.0618177 0.0991712 ) 0 
( 0.100528 0.0676536 0.095122 ) 0 
( 0.150224 0.00640563 0.0962527 ) 0 
( 0.111943 0.0177215 0.0929661 ) 0 
( 0.1699 0.00329854 0.0905584 ) 0 
( 0.185422 0.089675 0.0995134 ) 0 
( 0.109356 0.0505981 0.0894976 ) 0 
( 0.11603 0.0129397 0.099001 ) 0 
( 0.131885 0.0855492 0.0900788 ) 0 
( 0.195566 0.0721903 0.0888709 ) 0 
( 0.153936 0.00317859 0.0891995 ) 0 
( 0.140892 0.0784088 0.0890978 ) 0 
( 0.192056 0.0818203 0.0936279 ) 0 
( 0.199095 0.0905956 0.0916887 ) 0 
( 0.125812 0.0232561 0.0987247 ) 0 
( 0.133204 0.06631 0.0990584 ) 0 
( 0.148391 0.00884039 0.0990367 ) 0 
( 0.11956 0.0369642 0.096344 ) 0 
( 0.128382 0.0164214 0.0995002 ) 0 
( 0.100573 0.038126 0.0994802 ) 0 
( 0.145091 0.0396979 0.0894429 ) 0 
( 0.102312 0.057896 0.0944826 ) 0 
( 0.193762 0.0548488 0.0926209 ) 0 
( 0.177441 0.0569211 0.0990441 ) 0 
( 0.16936 0.0350692 0.089063 ) 0 
( 0.13088 0.00595841 0.0924388 ) 0 
( 0.167595 0.0640433 0.099032 ) 0 
( 0.101982 0.0131654 0.0991843 ) 0 
( 0.145743 0.0436933 0.0993401 ) 0 
( 0.160734 0.0590974 0.0927636 ) 0 
( 0.14725 0.0372582 0.0995002 ) 0 
( 0.194957 0.0444327 0.0993052 ) 0 
( 0.183916 0.0753267 0.0889351 ) 0 
( 0.150546 0.0214674 0.0895089 ) 0 
( 0.132127 0.0605393 0.0994842 ) 0 
( 0.143336 0.0544395 0.0984185 ) 0 
( 0.196902 0.0304993 0.0896199 ) 0 
( 0.189424 0.0411871 0.0897188 ) 0 
( 0.103845 0.0209402 0.0910511 ) 0 
( 0.174299 0.0371635 0.0888742 ) 0 
( 0.192464 0.0362547 0.0905103 ) 0 
( 0.112022 0.0468558 0.0890947 ) 0 
( 0.12043 0.0686441 0.089486 ) 0 
( 0.155578 0.095322 0.0990145 ) 0 
( 0.10384 0.0464496 0.0990349 ) 0 
( 0.198403 0.0510728 0.0992876 ) 0 
( 0.160824 0.070302 0.0991984 ) 0 
( 0.13676 0.0333415 0.0991174 ) 0 
( 0.130788 0.05524 0.0897186 ) 0 
( 0.177934 0.0351739 0.0993135 ) 0 
( 0.185011 0.0834997 0.0992773 ) 0 
( 0.114084 0.0124507 0.0964873 ) 0 
( 0.196889 0.0192257 0.0888377 ) 0 
( 0.169704 0.0316816 0.0969871 ) 0 
( 0.174802 0.090709 0.091839 ) 0 
( 0.12944 0.092745 0.0990676 ) 0 
( 0.177393 0.0445486 0.0894636 ) 0 
( 0.190279 0.0265656 0.0995002 ) 0 
( 0.198715 0.00302211 0.0995002 ) 0 
( 0.108247 0.00226036 0.0995002 ) 0 
( 0.194211 0.00881811 0.0889878 ) 0 
( 0.154155 0.0875429 0.0909782 ) 0 
( 0.193624 0.0445985 0.0990253 ) 0 
( 0.153593 0.0417789 0.0989833 ) 0 
( 0.145066 0.0288981 0.0995002 ) 0 
( 0.183434 0.0793914 0.0908172 ) 0 
( 0.200187 0.0717611 0.0960156 ) 0 
( 0.168857 0.0724951 0.0893101 ) 0 
( 0.127605 0.0506759 0.089204 ) 0 
( 0.110906 0.0956812 0.0890228 ) 0 
( 0.159245 0.0251828 0.0935413 ) 0 
( 0.162784 0.0137896 0.0976264 ) 0 
( 0.176252 0.0665951 0.096259 ) 0 
( 0.127384 0.0469617 0.0994993 ) 0 
( 0.143015 0.0521152 0.0995002 ) 0 
( 0.124379 0.0407712 0.0917466 ) 0 
( 0.184833 0.0565865 0.0995002 ) 0 
( 0.143353 0.036692 0.09948 ) 0 
( 0.173923 0.026452 0.099069 ) 0 
( 0.199207 0.0723396 0.0889605 ) 0 
( 0.149301 0.00983526 0.0894959 ) 0 
( 0.191712 0.00447203 0.0975859 ) 0 
( 0.130743 0.00384598 0.0906583 ) 0 
( 0.122161 0.0533082 0.0941706 ) 0 
( 0.15145 0.0239862 0.0901797 ) 0 
( 0.124753 0.0168972 0.0995002 ) 0 
( 0.16984 0.0982761 0.0886137 ) 0 
( 0.118918 0.088476 0.0952452 ) 0 
( 0.18734 0.0209113 0.0941654 ) 0 
( 0.136004 0.0181767 0.0995002 ) 0 
( 0.130407 0.0537247 0.0944129 ) 0 
( 0.125048 0.0748332 0.0890487 ) 0 
( 0.192124 0.0207285 0.0993043 ) 0 
( 0.121231 0.0292283 0.0920918 ) 0 
( 0.182629 0.0451924 0.0935991 ) 0 
( 0.136845 0.0524438 0.0890781 ) 0 
( 0.105746 0.0648408 0.0990947 ) 0 
( 0.158268 0.0155287 0.0995002 ) 0 
( 0.183066 0.090409 0.0895251 ) 0 
( 0.1528 0.00809685 0.0992932 ) 0 
( 0.131633 0.0533218 0.0991839 ) 0 
( 0.107948 0.0877357 0.0989933 ) 0 
( 0.167645 0.0165869 0.099024 ) 0 
( 0.152061 0.0810661 0.0990355 ) 0 
( 0.145673 0.0233333 0.0963669 ) 0 
( 0.112674 0.0125767 0.0990408 ) 0 
( 0.115376 0.020534 0.0887186 ) 0 
( 0.188478 0.0518331 0.096615 ) 0 
( 0.164276 0.0856778 0.0995003 ) 0 
( 0.116213 0.0839248 0.0892564 ) 0 
( 0.126458 0.0814896 0.0995002 ) 0 
( 0.181209 0.0856244 0.0995002 ) 0 
( 0.130974 0.0812704 0.0891806 ) 0 
( 0.145174 0.0521535 0.0995002 ) 0 
( 0.1763 0.075833 0.0901804 ) 0 
( 0.186533 0.0660874 0.0895786 ) 0 
( 0.138587 0.0244728 0.088639 ) 0 
( 0.144152 0.0693933 0.0995002 ) 0 
( 0.105893 0.0434974 0.0952771 ) 0 
( 0.146318 0.0724796 0.0983525 ) 0 
( 0.127339 0.0932229 0.0995002 ) 0 
( 0.164448 0.0694601 0.0890672 ) 0 
( 0.109282 0.0980346 0.0995108 ) 0 
( 0.117844 0.0112261 0.0990237 ) 0 
( 0.18159 0.0823524 0.0995002 ) 0 
( 0.180085 0.0853254 0.0974778 ) 0 
( 0.126973 0.0406667 0.0994659 ) 0 
( 0.143542 0.00741092 0.0953415 ) 0 
( 0.173799 0.0386185 0.0971059 ) 0 
( 0.138475 0.0847533 0.0981283 ) 0 
( 0.104228 0.0599079 0.0991699 ) 0 
( 0.100894 0.0218455 0.0952371 ) 0 
( 0.192642 0.0263324 0.0993211 ) 0 
( 0.109895 0.00946238 0.0900164 ) 0 
( 0.113243 0.0759084 0.0995002 ) 0 
( 0.167084 0.0785162 0.0891404 ) 0 
( 0.163534 0.0184453 0.0876782 ) 0 
( 0.112394 0.00580366 0.0924317 ) 0 
( 0.103531 0.0522504 0.0990969 ) 0 
( 0.187092 0.052573 0.0995002 ) 0 
( 0.181313 0.032344 0.0893533 ) 0 
( 0.173642 0.00644855 0.0989513 ) 0 
( 0.136565 0.0560079 0.0901344 ) 0 
( 0.197411 0.0816514 0.0889707 ) 0 
( 0.158175 0.0527977 0.099201 ) 0 
( 0.114796 0.0794521 0.0944987 ) 0 
( 0.155374 0.0696498 0.0888704 ) 0 
( 0.153868 0.0558555 0.0966688 ) 0 
( 0.191914 0.0991542 0.0994656 ) 0 
( 0.110322 0.0775127 0.0957163 ) 0 
( 0.132057 0.0314041 0.0995002 ) 0 
( 0.191974 0.0133155 0.0995002 ) 0 
( 0.112546 0.0540977 0.0895956 ) 0 
( 0.116617 0.0863451 0.0893267 ) 0 
( 0.186413 0.048973 0.0995002 ) 0 
( 0.136521 0.0041568 0.0983244 ) 0 
( 0.114287 0.014618 0.0994755 ) 0 
( 0.137398 0.0458785 0.0992329 ) 0 
( 0.154555 0.0978335 0.0995002 ) 0 
( 0.194408 0.020324 0.0994616 ) 0 
( 0.179007 0.061186 0.0966631 ) 0 
( 0.154878 0.0378825 0.0995002 ) 0 
( 0.135705 0.095418 0.0995002 ) 0 
( 0.131482 0.0156897 0.0995002 ) 0 
( 0.155993 0.0727157 0.089595 ) 0 
( 0.156423 0.00906751 0.0995002 ) 0 
( 0.102347 0.0413855 0.0987355 ) 0 
( 0.105952 0.0392549 0.0955596 ) 0 
( 0.142627 0.0332794 0.0897495 ) 0 
( 0.145471 0.0314929 0.0893648 ) 0 
( 0.193388 0.0747728 0.0892492 ) 0 
( 0.125658 0.0330824 0.0891022 ) 0 
( 0.176568 0.0719945 0.0890814 ) 0 
( 0.181355 0.029996 0.09252 ) 0 
( 0.138789 0.0295884 0.0995002 ) 0 
( 0.121186 0.0695508 0.092171 ) 0 
( 0.194183 0.028027 0.094232 ) 0 
( 0.156881 0.000908526 0.0994128 ) 0 
( 0.149098 0.0903263 0.0883005 ) 0 
( 0.180931 0.000856838 0.0896777 ) 0 
( 0.117578 0.0311744 0.0926413 ) 0 
( 0.171042 0.0985148 0.0903741 ) 0 
( 0.186976 0.0138749 0.0995002 ) 0 
( 0.166773 0.0570248 0.0886596 ) 0 
( 0.105344 0.0152054 0.0946064 ) 0 
( 0.178409 0.01386 0.0915578 ) 0 
( 0.197987 0.0642907 0.0909463 ) 0 
( 0.184097 0.0109859 0.0907703 ) 0 
( 0.169376 0.0083073 0.0891284 ) 0 
( 0.101691 0.0286892 0.0990345 ) 0 
( 0.283164 0.0394524 0.099042 ) 0 
( 0.238805 0.0961686 0.0893328 ) 0 
( 0.298549 0.0186144 0.0929972 ) 0 
( 0.238196 0.0523356 0.0894605 ) 0 
( 0.215197 0.0233915 0.0919777 ) 0 
( 0.20568 0.0657525 0.0896255 ) 0 
( 0.280451 0.0429022 0.0960824 ) 0 
( 0.268693 0.0267755 0.0889634 ) 0 
( 0.241343 0.0459483 0.0932228 ) 0 
( 0.212838 0.0659059 0.0992291 ) 0 
( 0.276692 0.0707849 0.0992728 ) 0 
( 0.280563 0.0230888 0.0950247 ) 0 
( 0.226724 0.0419784 0.0908285 ) 0 
( 0.226972 0.0222317 0.0920785 ) 0 
( 0.215205 0.0570252 0.0879564 ) 0 
( 0.215436 0.025025 0.0995002 ) 0 
( 0.264766 0.0203151 0.0913851 ) 0 
( 0.218964 0.0210351 0.090205 ) 0 
( 0.272012 0.0130401 0.0969469 ) 0 
( 0.259564 0.090767 0.0890538 ) 0 
( 0.27008 0.0297978 0.0890968 ) 0 
( 0.243784 0.0724005 0.09014 ) 0 
( 0.207969 0.0406059 0.0995002 ) 0 
( 0.204367 0.00314162 0.089164 ) 0 
( 0.247812 0.0721037 0.0933639 ) 0 
( 0.291374 0.0987983 0.0989654 ) 0 
( 0.284114 0.00577002 0.0990437 ) 0 
( 0.221639 0.0948513 0.0985433 ) 0 
( 0.208924 0.0876812 0.0964765 ) 0 
( 0.218961 0.0844789 0.0903848 ) 0 
( 0.215113 0.0041389 0.0959711 ) 0 
( 0.2231 0.0500692 0.0890765 ) 0 
( 0.238066 0.0903899 0.0992625 ) 0 
( 0.229833 0.0957675 0.0983145 ) 0 
( 0.251631 0.061566 0.0915668 ) 0 
( 0.269129 0.0564795 0.0926079 ) 0 
( 0.271989 0.0111748 0.0891002 ) 0 
( 0.239722 0.00725309 0.0895827 ) 0 
( 0.292967 0.0882029 0.0892887 ) 0 
( 0.259677 0.0961945 0.0907838 ) 0 
( 0.282437 0.0240818 0.0912109 ) 0 
( 0.220981 0.0296729 0.0875997 ) 0 
( 0.24499 0.0415785 0.088898 ) 0 
( 0.217574 0.058307 0.0992699 ) 0 
( 0.207689 0.0364615 0.0891251 ) 0 
( 0.267472 0.00497561 0.0892838 ) 0 
( 0.277587 0.0988172 0.0889164 ) 0 
( 0.279212 0.0123505 0.0990344 ) 0 
( 0.223856 0.0402099 0.0892071 ) 0 
( 0.224024 0.0728743 0.0995002 ) 0 
( 0.280931 0.0136475 0.0990173 ) 0 
( 0.240392 0.0714732 0.0942768 ) 0 
( 0.262576 0.0161907 0.0890993 ) 0 
( 0.245158 0.0671146 0.0995002 ) 0 
( 0.269153 0.06054 0.0995002 ) 0 
( 0.239123 0.0460508 0.098989 ) 0 
( 0.28649 0.0314035 0.0995002 ) 0 
( 0.275737 0.00650381 0.0890637 ) 0 
( 0.21035 0.0548398 0.0995002 ) 0 
( 0.282318 0.010746 0.0890977 ) 0 
( 0.225165 0.0456406 0.0993149 ) 0 
( 0.213383 0.0304184 0.0922944 ) 0 
( 0.29015 0.0518845 0.0889288 ) 0 
( 0.245818 0.0713301 0.092825 ) 0 
( 0.216874 0.00763576 0.0900337 ) 0 
( 0.287037 0.0260639 0.0940185 ) 0 
( 0.264524 0.0354971 0.095598 ) 0 
( 0.228287 0.0236472 0.0916771 ) 0 
( 0.290153 0.00690776 0.0995002 ) 0 
( 0.229036 0.0110826 0.0988312 ) 0 
( 0.280418 0.0844688 0.0994113 ) 0 
( 0.215269 0.064451 0.0992817 ) 0 
( 0.290312 0.0808565 0.0954471 ) 0 
( 0.212251 0.0106404 0.089606 ) 0 
( 0.268586 0.0899303 0.0995002 ) 0 
( 0.24321 0.0311338 0.0986834 ) 0 
( 0.239582 0.0617333 0.0944193 ) 0 
( 0.233734 0.0662412 0.0890822 ) 0 
( 0.266084 0.0801201 0.0990632 ) 0 
( 0.262978 0.0760919 0.0990081 ) 0 
( 0.252519 0.0801614 0.0990678 ) 0 
( 0.262997 0.0950814 0.0898169 ) 0 
( 0.240922 0.0798333 0.0967245 ) 0 
( 0.267201 0.0536625 0.0886458 ) 0 
( 0.20762 0.073294 0.0942429 ) 0 
( 0.295519 0.0885289 0.0892616 ) 0 
( 0.21298 0.052684 0.0964128 ) 0 
( 0.260502 0.0586471 0.0993254 ) 0 
( 0.231573 0.0409262 0.0918085 ) 0 
( 0.270285 0.0826205 0.0894012 ) 0 
( 0.264179 0.0534568 0.0995002 ) 0 
( 0.206891 0.0121259 0.0995002 ) 0 
( 0.202031 0.0390563 0.0887468 ) 0 
( 0.27595 0.0846674 0.0894349 ) 0 
( 0.201102 0.0221993 0.0894743 ) 0 
( 0.25528 0.0940803 0.0891935 ) 0 
( 0.290627 0.0752223 0.0972992 ) 0 
( 0.213839 0.0887187 0.0995002 ) 0 
( 0.214733 0.0098199 0.0911948 ) 0 
( 0.249308 0.0185247 0.0930521 ) 0 
( 0.236185 0.0540441 0.0874174 ) 0 
( 0.248339 0.0406581 0.0922198 ) 0 
( 0.218926 0.0943699 0.0990204 ) 0 
( 0.298259 0.0383269 0.0969023 ) 0 
( 0.278555 0.0813021 0.0915294 ) 0 
( 0.279171 0.0214675 0.0893502 ) 0 
( 0.281752 0.00356923 0.0994977 ) 0 
( 0.217204 0.04822 0.0906977 ) 0 
( 0.207621 0.0831575 0.0901898 ) 0 
( 0.284907 0.0252902 0.0931579 ) 0 
( 0.267242 0.0430138 0.089844 ) 0 
( 0.277762 0.0521039 0.088566 ) 0 
( 0.252026 0.00655188 0.0891114 ) 0 
( 0.247984 0.0637742 0.0942673 ) 0 
( 0.266204 0.0849119 0.0893936 ) 0 
( 0.264464 0.0517753 0.0995002 ) 0 
( 0.231146 0.0631884 0.0885526 ) 0 
( 0.279301 0.0187356 0.0995001 ) 0 
( 0.224788 0.013607 0.0995002 ) 0 
( 0.264223 0.0896094 0.0988572 ) 0 
( 0.223743 0.0141013 0.09868 ) 0 
( 0.222858 0.078723 0.0995002 ) 0 
( 0.258168 0.024543 0.0995002 ) 0 
( 0.232579 0.0504152 0.0892647 ) 0 
( 0.261708 0.0260016 0.0890078 ) 0 
( 0.284017 0.0760233 0.0892642 ) 0 
( 0.252444 0.0628668 0.0995002 ) 0 
( 0.207777 0.0155944 0.0995002 ) 0 
( 0.261932 0.0986833 0.0992233 ) 0 
( 0.240568 0.0254917 0.0914908 ) 0 
( 0.284488 0.0941795 0.0990226 ) 0 
( 0.24197 0.0893504 0.0891408 ) 0 
( 0.225547 0.0663634 0.0992172 ) 0 
( 0.288087 0.0794384 0.0890522 ) 0 
( 0.275906 0.0500867 0.0885184 ) 0 
( 0.212242 0.058412 0.0905499 ) 0 
( 0.211739 0.000515818 0.0992668 ) 0 
( 0.233765 0.0804172 0.0991093 ) 0 
( 0.248981 0.0306222 0.0994721 ) 0 
( 0.221706 0.00858352 0.0963382 ) 0 
( 0.222352 0.0640472 0.0993649 ) 0 
( 0.258075 0.070165 0.0978961 ) 0 
( 0.259422 0.0982733 0.0992539 ) 0 
( 0.219306 0.0762849 0.0891459 ) 0 
( 0.209781 0.0403948 0.0994903 ) 0 
( 0.207746 0.0235917 0.0995002 ) 0 
( 0.242105 0.0598013 0.0992644 ) 0 
( 0.26965 0.00798974 0.0994867 ) 0 
( 0.239231 0.0496227 0.0885913 ) 0 
( 0.297339 0.08287 0.0995002 ) 0 
( 0.204204 0.0489257 0.0995002 ) 0 
( 0.276412 0.0567929 0.0889979 ) 0 
( 0.298369 0.0959234 0.0994699 ) 0 
( 0.257384 0.0487643 0.0993263 ) 0 
( 0.261005 0.00817066 0.0890954 ) 0 
( 0.262974 0.0971137 0.0995002 ) 0 
( 0.212531 0.00408508 0.0963184 ) 0 
( 0.28016 0.0537458 0.0879811 ) 0 
( 0.257102 0.0134125 0.0892549 ) 0 
( 0.280766 0.0330653 0.0903775 ) 0 
( 0.210223 0.00973296 0.0993817 ) 0 
( 0.215613 0.0302125 0.0994846 ) 0 
( 0.236766 0.0232117 0.0888971 ) 0 
( 0.246703 0.0347049 0.0995006 ) 0 
( 0.286271 0.0485019 0.0990875 ) 0 
( 0.245639 0.0620238 0.0909903 ) 0 
( 0.272285 0.0875201 0.0924157 ) 0 
( 0.296845 0.0665457 0.0909624 ) 0 
( 0.246463 0.0969284 0.0990385 ) 0 
( 0.266246 0.00176505 0.0970131 ) 0 
( 0.231709 0.0271487 0.0995002 ) 0 
( 0.210234 0.0959927 0.0938504 ) 0 
( 0.261875 0.0406621 0.089274 ) 0 
( 0.24453 0.0198268 0.0944554 ) 0 
( 0.221865 0.0909354 0.0940074 ) 0 
( 0.276509 0.0927741 0.0934182 ) 0 
( 0.279092 0.096925 0.0888724 ) 0 
( 0.281418 0.0965924 0.0904143 ) 0 
( 0.245551 0.0703272 0.0995002 ) 0 
( 0.204601 0.0227556 0.0934302 ) 0 
( 0.238681 0.0191488 0.0899262 ) 0 
( 0.266666 0.0525936 0.0919078 ) 0 
( 0.22903 0.00395445 0.0968135 ) 0 
( 0.20834 0.00605948 0.089067 ) 0 
( 0.24518 0.0330576 0.0995002 ) 0 
( 0.236127 0.0858135 0.0994642 ) 0 
( 0.26707 0.0441024 0.0894942 ) 0 
( 0.224045 0.021424 0.0990175 ) 0 
( 0.290637 0.0348677 0.0891714 ) 0 
( 0.253443 0.0175697 0.0995002 ) 0 
( 0.231799 0.0447193 0.0995002 ) 0 
( 0.209759 0.0679722 0.0995003 ) 0 
( 0.299109 0.0175603 0.0907586 ) 0 
( 0.280156 0.0770818 0.0888366 ) 0 
( 0.249608 0.0601803 0.0923829 ) 0 
( 0.24416 0.00282267 0.090776 ) 0 
( 0.294349 0.0320015 0.0935678 ) 0 
( 0.215798 0.0220281 0.0893336 ) 0 
( 0.247974 0.0919979 0.0892448 ) 0 
( 0.23835 0.0483564 0.0892276 ) 0 
( 0.260659 0.0977207 0.0995002 ) 0 
( 0.261912 0.0496311 0.0926635 ) 0 
( 0.221001 0.058933 0.0994902 ) 0 
( 0.195759 0.0372417 0.0976923 ) 0 
( 0.261918 0.0535379 0.0891587 ) 0 
( 0.218354 0.0329966 0.0995002 ) 0 
( 0.225895 0.0156658 0.0995002 ) 0 
( 0.24065 0.00377088 0.0990307 ) 0 
( 0.247263 0.0481161 0.0993297 ) 0 
( 0.209293 0.0802826 0.0891075 ) 0 
( 0.245619 0.0216581 0.0892741 ) 0 
( 0.299064 0.0767428 0.0890921 ) 0 
( 0.249415 0.0150044 0.0990807 ) 0 
( 0.217491 0.0767611 0.0892048 ) 0 
( 0.255992 0.0512488 0.0904224 ) 0 
( 0.206585 0.0776207 0.0991542 ) 0 
( 0.219195 0.00270765 0.0892876 ) 0 
( 0.252697 0.0556392 0.0994774 ) 0 
( 0.23546 0.0784316 0.0995002 ) 0 
( 0.205552 0.0168326 0.089302 ) 0 
( 0.278033 0.00398439 0.0989081 ) 0 
( 0.203379 0.0842096 0.0891664 ) 0 
( 0.206218 0.0983304 0.0902504 ) 0 
( 0.226069 0.0376728 0.0994134 ) 0 
( 0.285673 0.01099 0.0892136 ) 0 
( 0.256473 0.0391737 0.0995002 ) 0 
( 0.207519 0.00521475 0.0994017 ) 0 
( 0.277738 0.0405871 0.0920187 ) 0 
( 0.219701 0.0156952 0.0995002 ) 0 
( 0.298799 0.0202179 0.0895774 ) 0 
( 0.217748 0.084689 0.098101 ) 0 
( 0.236088 0.0291044 0.094491 ) 0 
( 0.275606 0.00326268 0.0913687 ) 0 
( 0.202512 0.0170864 0.0991396 ) 0 
( 0.265082 0.0409079 0.0919131 ) 0 
( 0.229546 0.0815705 0.0939166 ) 0 
( 0.276695 0.00743658 0.0994721 ) 0 
( 0.255847 0.0275216 0.0952874 ) 0 
( 0.234489 0.0566206 0.0891907 ) 0 
( 0.23997 0.0825326 0.0901341 ) 0 
( 0.294017 0.0508376 0.0893477 ) 0 
( 0.281619 0.0640005 0.0949573 ) 0 
( 0.216142 0.0941492 0.0983364 ) 0 
( 0.247879 0.0463071 0.0993253 ) 0 
( 0.313652 0.09424 0.0960888 ) 0 
( 0.240344 0.0586594 0.0994822 ) 0 
( 0.267355 0.0398197 0.0938389 ) 0 
( 0.263694 0.0108619 0.0942659 ) 0 
( 0.310391 0.0413494 0.096359 ) 0 
( 0.392167 0.053693 0.0895723 ) 0 
( 0.377592 0.0817634 0.0995002 ) 0 
( 0.311098 0.0240436 0.0896463 ) 0 
( 0.319 0.033166 0.0890317 ) 0 
( 0.311122 0.0285933 0.0993174 ) 0 
( 0.311467 0.0336752 0.0990606 ) 0 
( 0.347638 0.092678 0.0995002 ) 0 
( 0.350263 0.0702821 0.0896976 ) 0 
( 0.386761 0.090352 0.0929586 ) 0 
( 0.317912 0.0857905 0.0982165 ) 0 
( 0.310625 0.0753889 0.0975406 ) 0 
( 0.314767 0.0846612 0.0895922 ) 0 
( 0.343285 0.0433356 0.094652 ) 0 
( 0.335149 0.0481739 0.0946402 ) 0 
( 0.387863 0.0173661 0.099048 ) 0 
( 0.31793 0.0467372 0.0890339 ) 0 
( 0.304944 0.0924591 0.0972028 ) 0 
( 0.331754 0.0964495 0.090309 ) 0 
( 0.390984 0.0693603 0.0903642 ) 0 
( 0.374055 0.0382575 0.0995002 ) 0 
( 0.365949 0.0109324 0.0908737 ) 0 
( 0.373574 0.0605969 0.0929608 ) 0 
( 0.341388 0.00297813 0.0948548 ) 0 
( 0.380004 0.0217316 0.0911408 ) 0 
( 0.382764 0.00712656 0.0990478 ) 0 
( 0.331236 0.0909966 0.0991096 ) 0 
( 0.385503 0.0410737 0.0887302 ) 0 
( 0.369353 0.0155026 0.0947559 ) 0 
( 0.346131 0.024433 0.0929509 ) 0 
( 0.340521 0.0446235 0.0994791 ) 0 
( 0.319072 0.0359169 0.0939476 ) 0 
( 0.308113 0.0598123 0.0986042 ) 0 
( 0.305951 0.0173638 0.0898963 ) 0 
( 0.331713 0.0434196 0.0984323 ) 0 
( 0.394731 0.0429969 0.0926948 ) 0 
( 0.333411 0.0452736 0.0889525 ) 0 
( 0.366124 0.0399128 0.0890819 ) 0 
( 0.36294 0.0250836 0.0991128 ) 0 
( 0.343971 0.0200778 0.092016 ) 0 
( 0.331336 0.0580422 0.0888855 ) 0 
( 0.31487 0.0161789 0.0891154 ) 0 
( 0.38619 0.0928214 0.0923419 ) 0 
( 0.393971 0.0696321 0.0892686 ) 0 
( 0.349613 0.0379172 0.0991521 ) 0 
( 0.345144 0.036988 0.0945333 ) 0 
( 0.35026 0.012061 0.0891098 ) 0 
( 0.363209 0.0461556 0.0900241 ) 0 
( 0.354972 0.0214912 0.0892842 ) 0 
( 0.356732 0.00146672 0.0944207 ) 0 
( 0.324433 0.050355 0.0890063 ) 0 
( 0.326727 0.0608518 0.0995025 ) 0 
( 0.375996 0.0936053 0.0942053 ) 0 
( 0.373928 0.00869542 0.0921324 ) 0 
( 0.377735 0.0972509 0.0995002 ) 0 
( 0.381911 0.0781848 0.0944715 ) 0 
( 0.377993 0.024769 0.0995002 ) 0 
( 0.317689 0.0031856 0.0918649 ) 0 
( 0.323752 0.00778989 0.089958 ) 0 
( 0.34784 0.0473521 0.0920639 ) 0 
( 0.376115 0.067945 0.0943376 ) 0 
( 0.361745 0.043045 0.0945811 ) 0 
( 0.316588 0.0862644 0.0929128 ) 0 
( 0.348702 0.0273585 0.0889334 ) 0 
( 0.323288 0.099019 0.0885501 ) 0 
( 0.379772 0.0361153 0.0995002 ) 0 
( 0.341413 0.0362545 0.0903443 ) 0 
( 0.321806 0.09755 0.088792 ) 0 
( 0.294719 0.0515488 0.0995002 ) 0 
( 0.32749 0.0178781 0.09898 ) 0 
( 0.347218 0.0966964 0.0990562 ) 0 
( 0.364277 0.000875857 0.0890681 ) 0 
( 0.326188 0.036616 0.0894588 ) 0 
( 0.323302 0.0374298 0.0993887 ) 0 
( 0.3069 0.0657591 0.0875981 ) 0 
( 0.385627 0.032876 0.091865 ) 0 
( 0.388569 0.0798926 0.0954518 ) 0 
( 0.325408 0.0306852 0.0893098 ) 0 