FoamFile
{version 2.0; format ascii;class vectorField; location 0;object  v;}
1000
(
( 0 0 -0.153037 )  
( 0 0 0.0291874 )  
( 0 0 0.306697 )  
( 0 0 -0.119564 )  
( 0 0 0.0730088 )  
( 0 0 -0.0838579 )  
( 0 0 -0.102822 )  
( 0 0 0.310329 )  
( 0 0 -5.70552e-08 )  
( 0 0 0.168013 )  
( 0 0 0.223525 )  
( 0 0 0.070917 )  
( 0 0 -5.88013e-08 )  
( 0 0 -8.89123e-07 )  
( 0 0 0.212989 )  
( 0 0 -1.02618e-06 )  
( 0 0 0.331524 )  
( 0 0 0.00443246 )  
( 0 0 -0.0218539 )  
( 0 0 -0.123144 )  
( 0 0 -0.0292033 )  
( 0 0 0.17222 )  
( 0 0 -0.0287296 )  
( 0 0 0.271169 )  
( 0 0 -5.70552e-08 )  
( 0 0 0.254364 )  
( -0.0418076 -0.0357897 -5.70535e-08 )  
( 0 0 -0.0748772 )  
( 0.166544 -0.00726277 0.0758392 )  
( 0 0 -0.0700747 )  
( 0 0 -0.03814 )  
( 0 0 -0.117477 )  
( -0.317714 -0.143534 -0.00128528 )  
( 0 0 -0.0507692 )  
( 0 0 -0.0607176 )  
( 0 0 0.151673 )  
( 0 0 -0.0400794 )  
( 0 0 -0.0173053 )  
( 0 0 -0.0644921 )  
( 0 0 0.197105 )  
( 0 0 0.0866082 )  
( 0 0 0.36129 )  
( 0 0 0.0690607 )  
( 0 0 0.0330382 )  
( 0 0 0.00733282 )  
( 0 0 0.0452017 )  
( 0 0 0.0801951 )  
( 0 0 -0.149047 )  
( 0 0 -0.198444 )  
( 0 0 0.21533 )  
( 0 0 -0.039277 )  
( 0 0 -5.70517e-08 )  
( 0 0 0.103945 )  
( 0 0 -5.70551e-08 )  
( 0 0 0.327836 )  
( 0 0 0.281677 )  
( 0 0 0.0872803 )  
( 0 0 -0.199562 )  
( 0 0 0.141942 )  
( 0 0 0.138315 )  
( 0 0 0.0476057 )  
( 0 0 -0.0371006 )  
( 0 0 -0.156915 )  
( 0 0 0.20413 )  
( 0 0 0.127395 )  
( -0.0107573 -0.0282739 7.09602e-06 )  
( 0 0 0.0160675 )  
( 0 0 -0.0216707 )  
( 0 0 0.266039 )  
( 0 0 -0.0471262 )  
( 0 0 -0.11416 )  
( 0 0 0.335273 )  
( 0 0 0.253326 )  
( 0 0 -0.000201946 )  
( 0 0 -0.108476 )  
( 0 0 0.0300713 )  
( 0 0 0.225931 )  
( 0 0 0.217494 )  
( 0 0 0.150263 )  
( 0 0 0.328075 )  
( 0 0 0.0509899 )  
( 0 0 -0.171976 )  
( 0 0 -0.134124 )  
( 0 0 0.0491976 )  
( 0 0 0.0824791 )  
( 0 0 0.0513199 )  
( 0 0 0.0698828 )  
( 0 0 -5.70537e-08 )  
( 0 0 -0.130878 )  
( 0 0 -0.00862034 )  
( 0 0 0.351588 )  
( 0 0 -5.70552e-08 )  
( -0.0315384 0.00243721 0.00952104 )  
( 0 0 0.0309385 )  
( 0 0 -5.70546e-08 )  
( 0 0 0.119052 )  
( 0 0 -0.0117827 )  
( -0.00152064 -0.106532 -3.926e-07 )  
( 0 0 -0.0848729 )  
( 0 0 -0.183637 )  
( 0 0 -0.0639733 )  
( 0 0 8.18996e-05 )  
( 0 0 0.344224 )  
( 0 0 -6.89746e-08 )  
( 0 0 0.216346 )  
( 0.0106099 0.289579 0.0308526 )  
( 0 0 -5.70551e-08 )  
( 0.0802938 -0.0177783 -4.67413e-06 )  
( 0 0 -0.0309661 )  
( -0.00593799 -0.162067 0.00291108 )  
( 0 0 0.0655604 )  
( 0 0 -0.132912 )  
( 0 0 0.00666577 )  
( 0 0 -0.0637365 )  
( 0 0 -0.175416 )  
( 0 0 -0.189538 )  
( 0.00619799 -0.149224 3.09532e-06 )  
( 0 0 0.135798 )  
( 0 0 -0.193294 )  
( 0 0 0.011464 )  
( 0 0 0.323773 )  
( 0 0 -0.122946 )  
( 0 0 0.156331 )  
( 0 0 0.0243386 )  
( -0.097305 -0.108284 -0.0138523 )  
( 0 0 0.100178 )  
( 0 0 -0.00805758 )  
( 0 0 0.0237505 )  
( 0 0 0.141161 )  
( 0 0 0.34581 )  
( 0 0 0.0942299 )  
( 0 0 -0.106355 )  
( 0 0 0.150043 )  
( 0 0 -0.102583 )  
( 0 0 -0.0200629 )  
( 0 0 -0.173752 )  
( 0 0 -5.71015e-08 )  
( 0 0 -5.70547e-08 )  
( 0 0 -0.230538 )  
( 0 0 0.0299507 )  
( 0 0 0.0528992 )  
( 0 0 -0.0801 )  
( 0 0 0.311097 )  
( 0 0 -5.70547e-08 )  
( 0 0 -0.0115124 )  
( 0 0 -0.037766 )  
( 0 0 -0.221379 )  
( 0 0 0.0518949 )  
( -0.119958 0.295387 -0.0359907 )  
( 0 0 -5.44469e-07 )  
( 0 0 -5.70544e-08 )  
( 0 0 0.0950333 )  
( 0 0 -0.0394273 )  
( 0 0 -0.0198118 )  
( 0 0 -0.0785933 )  
( 0 0 0.292484 )  
( 0 0 0.116636 )  
( 0 0 -5.70628e-08 )  
( 0 0 0.0808767 )  
( 0 0 0.128658 )  
( 0 0 0.074485 )  
( 0 0 0.244437 )  
( 0 0 -0.016559 )  
( 0 0 0.000370268 )  
( 0 0 0.120081 )  
( 0 0 0.322065 )  
( 0 0 0.0523184 )  
( 0 0 0.00732717 )  
( 0 0 -0.0749181 )  
( 0 0 0.253258 )  
( 0.384579 -0.0113463 -1.45284e-06 )  
( 0 0 0.00107822 )  
( 0 0 -5.70541e-08 )  
( 0 0 0.0779741 )  
( 0 0 0.258765 )  
( 0 0 0.366484 )  
( 0 0 0.152941 )  
( -0.00234967 -0.0010629 0.0657989 )  
( 0 0 0.0849693 )  
( 0.147707 0.105785 -5.70517e-08 )  
( 0 0 0.0283319 )  
( 0 0 -0.00267076 )  
( 0 0 -2.91587e-05 )  
( 0 0 0.0296881 )  
( 0 0 -0.132087 )  
( 0 0 0.0691937 )  
( 0 0 -0.0514968 )  
( 0 0 -0.0572112 )  
( 0 0 -0.166879 )  
( 0 0 0.00159617 )  
( 0 0 -0.103449 )  
( 0 0 0.175462 )  
( 0 0 -0.0897728 )  
( 0 0 0.0121703 )  
( 0 0 0.343504 )  
( 0 0 -5.7055e-08 )  
( 0 0 -0.0592152 )  
( 0 0 0.280092 )  
( 0 0 0.0805541 )  
( -0.0211612 -0.0157889 -5.70882e-08 )  
( 0 0 -5.70547e-08 )  
( 0 0 -5.69021e-08 )  
( 0 0 -0.188376 )  
( -0.05261 -0.038596 -0.0982575 )  
( 0 0 0.198523 )  
( 0 0 -0.00922161 )  
( 0 0 0.0629913 )  
( 0 0 0.299343 )  
( 0 0 0.0896426 )  
( 0 0 -5.70551e-08 )  
( 0 0 -0.0544149 )  
( 0 0 0.219595 )  
( 0 0 0.0351093 )  
( 0 0 -0.071226 )  
( 0 0 0.19913 )  
( 0 0 -0.0923118 )  
( 0 0 -5.70543e-08 )  
( 0.00566028 0.396544 0.129886 )  
( 0 0 0.00280379 )  
( 0 0 0.324443 )  
( 0 0 -5.70547e-08 )  
( 0 0 0.329296 )  
( 0 0 0.0330903 )  
( 0 0 0.191638 )  
( -0.0756007 -0.154737 -0.0241827 )  
( 0 0 -0.00121852 )  
( 0 0 -0.130139 )  
( 0 0 -0.108732 )  
( -0.454967 0.0198406 -0.027322 )  
( 0 0 0.00437701 )  
( 0.150819 -0.0630857 0.214725 )  
( 0.00791386 0.00580579 -5.70551e-08 )  
( 0 0 -0.0998262 )  
( 0 0 0.132899 )  
( 0 0 -9.39722e-08 )  
( 0 0 0.164532 )  
( 0 0 0.0747764 )  
( 0 0 0.0150127 )  
( 0 0 0.271689 )  
( 0 0 0.247944 )  
( 0 0 -0.0162185 )  
( 0 0 -0.0138115 )  
( 0 0 0.288628 )  
( 0 0 0.00623151 )  
( -0.174778 0.00515652 -5.70524e-08 )  
( 0 0 -0.146987 )  
( 0 0 -0.000414262 )  
( 0.219711 -0.0169787 0.0823789 )  
( 0 0 0.189462 )  
( 0.000718868 0.000325187 0.249537 )  
( 0 0 0.165438 )  
( 0 0 -5.70575e-08 )  
( 0 0 -5.70596e-08 )  
( 0 0 -0.152042 )  
( 0 0 -0.161425 )  
( 0 0 0.300975 )  
( 0 0 0.0624961 )  
( 0 0 0.114171 )  
( 0 0 -0.0167771 )  
( 0 0 -0.099118 )  
( -0.177925 0.182414 -0.000678095 )  
( 0 0 0.161821 )  
( 0 0 0.288151 )  
( 0 0 0.354312 )  
( 0 0 0.0213387 )  
( 0 0 -5.63584e-08 )  
( 0 0 0.303691 )  
( 0 0 -0.073925 )  
( 0 0 -0.0866486 )  
( 0 0 0.285033 )  
( 0 0 0.0100567 )  
( 0 0 0.0157165 )  
( 0 0 0.254712 )  
( 0 0 0.191229 )  
( -0.142536 -0.0774212 -5.70534e-08 )  
( 0 0 -0.122711 )  
( 0 0 -0.0455604 )  
( 0 0 -0.193702 )  
( 0 0 0.32983 )  
( 0 0 0.0193947 )  
( 0 0 0.0975639 )  
( 0 0 -0.0428028 )  
( 0 0 0.0778007 )  
( 0 0 -0.0327439 )  
( 0 0 -0.216842 )  
( 0 0 0.0279664 )  
( 0 0 0.0179993 )  
( 0 0 -0.122044 )  
( 0 0 0.00258178 )  
( 0 0 -0.167778 )  
( 0 0 -0.00654412 )  
( 0 0 0.307576 )  
( 0 0 0.105049 )  
( 0.331763 0.172943 0.094757 )  
( 0 0 0.157622 )  
( 0 0 -0.0449617 )  
( 0 0 -0.148975 )  
( 0 0 -0.115414 )  
( 0 0 -5.70543e-08 )  
( 0 0 -0.1976 )  
( 0 0 -0.0725473 )  
( 0 0 0.0700782 )  
( 0 0 0.263181 )  
( -0.159135 0.0246255 -5.7052e-08 )  
( 0 0 0.0894418 )  
( 0 0 -0.134289 )  
( 0 0 -0.0709477 )  
( 0 0 -0.0467842 )  
( 0 0 0.0473223 )  
( -0.134373 -0.0840809 0.120446 )  
( 0 0 -0.0844455 )  
( 0 0 -0.238512 )  
( 0 0 -0.0557879 )  
( 0 0 0.242676 )  
( 0 0 0.282418 )  
( 0 0 0.168006 )  
( 0 0 0.0891672 )  
( 0 0 0.0210132 )  
( 0 0 -0.193142 )  
( 0 0 0.012745 )  
( 0 0 0.000425458 )  
( 0 0 -0.200453 )  
( 0 0 -0.0364601 )  
( 0 0 -0.0779301 )  
( 0 0 0.220598 )  
( 0 0 0.115582 )  
( 0 0 0.339244 )  
( 0 0 -0.0309593 )  
( 0 0 0.0325893 )  
( 0 0 0.276527 )  
( 0 0 -5.70547e-08 )  
( 0 0 0.015353 )  
( 0 0 -0.181483 )  
( 0 0 0.248997 )  
( 0 0 0.15097 )  
( 0 0 -0.0355599 )  
( 0 0 -0.150929 )  
( 0 0 0.146223 )  
( 0 0 -0.0240077 )  
( 0 0 -0.0587474 )  
( 0.140626 -0.144174 0.286693 )  
( 0 0 0.189837 )  
( 0 0 -5.70545e-08 )  
( 0 0 0.0693781 )  
( 0 0 -0.0940151 )  
( 0 0 -0.18509 )  
( 0 0 -0.0200587 )  
( 0 0 0.33494 )  
( 0 0 -0.188446 )  
( 0 0 0.0290807 )  
( 0 0 0.118813 )  
( 0 0 -0.167061 )  
( 0 0 0.056604 )  
( 0 0 -0.169678 )  
( 0 0 -0.198147 )  
( 0 0 0.0204666 )  
( 0 0 0.0286496 )  
( 0 0 0.0727481 )  
( 0 0 0.352666 )  
( 0 0 -0.0532362 )  
( 0 0 -0.0456172 )  
( 0 0 -0.0825919 )  
( 0 0 0.0658219 )  
( 0 0 0.280742 )  
( 0 0 -0.0222229 )  
( 0.462776 -0.0716131 0.154825 )  
( 0 0 0.152852 )  
( 0 0 0.347272 )  
( 0 0 0.0114281 )  
( 0 0 -1.61164e-08 )  
( 0 0 -5.70848e-08 )  
( 0 0 -5.04929e-08 )  
( 0 0 -0.168343 )  
( 0 0 0.0670584 )  
( 0 0 0.351009 )  
( 0 0 0.00430783 )  
( 0 0 -5.7419e-08 )  
( 0 0 0.0558174 )  
( 0.349502 0.174506 -0.00669627 )  
( 0 0 -0.0109337 )  
( 0 0 -0.127678 )  
( 0 0 -0.10537 )  
( 0 0 0.186636 )  
( 0 0 0.315334 )  
( 0 0 0.297906 )  
( 0 0 0.0264832 )  
( 0 0 -5.70541e-08 )  
( 0 0 0.128312 )  
( 0.190005 0.0212383 -5.70516e-08 )  
( 0 0 0.091104 )  
( 0 0 0.036966 )  
( 0 0 -0.120437 )  
( 0 0 -0.196046 )  
( 0 0 0.310221 )  
( 0 0 0.0949156 )  
( 0 0 0.215749 )  
( 0 0 0.0666439 )  
( 0 0 5.91447e-08 )  
( 0 0 -0.0218755 )  
( 0.359862 0.225175 0.0564551 )  
( 0 0 0.240073 )  
( 0 0 -5.70547e-08 )  
( 0 0 0.217364 )  
( 0 0 -0.0437536 )  
( 0 0 0.0727745 )  
( 0 0 0.126382 )  
( 0 0 0.191111 )  
( 0 0 -0.0307571 )  
( 0 0 0.0416536 )  
( 0 0 -5.70605e-08 )  
( 0 0 -0.174229 )  
( 0 0 0.0759656 )  
( 0 0 0.051692 )  
( 0 0 -0.0115267 )  
( 0 0 0.0079432 )  
( 0 0 0.02633 )  
( 0 0 0.301776 )  
( 0 0 0.00908729 )  
( 0 0 -0.0990141 )  
( 0 0 0.288786 )  
( 0 0 -0.000236346 )  
( 0 0 -0.0261803 )  
( 0 0 -5.70551e-08 )  
( 0 0 -1.6207e-05 )  
( 0 0 -0.121415 )  
( -0.419976 -0.0469438 1.92277e-07 )  
( 0 0 0.00641211 )  
( 0 0 0.0305037 )  
( 0 0 -0.103738 )  
( 0 0 -5.65965e-08 )  
( 0 0 0.270897 )  
( 0 0 0.336701 )  
( 0 0 -5.7055e-08 )  
( 0 0 -0.0847025 )  
( 0 0 0.183275 )  
( 0 0 0.021849 )  
( 0 0 -5.70547e-08 )  
( 0 0 0.31764 )  
( 0 0 0.000267286 )  
( 0 0 0.251432 )  
( 0 0 0.304674 )  
( -0.159169 -0.0829723 0.134795 )  
( 0 0 -0.058386 )  
( 0 0 0.258567 )  
( 0 0 -0.0801449 )  
( 0 0 0.0543661 )  
( 0 0 -6.0857e-08 )  
( 0 0 -0.0428795 )  
( 0 0 -0.16402 )  
( 0 0 0.141845 )  
( 0 0 -0.039657 )  
( 0 0 -5.70545e-08 )  
( 0 0 -0.154305 )  
( 0 0 0.00382583 )  
( 0 0 0.00246697 )  
( 0 0 -0.0959006 )  
( 0 0 -0.0615597 )  
( 0 0 0.223968 )  
( 0 0 -0.194312 )  
( 0 0 0.308642 )  
( 0 0 0.0039378 )  
( 0 0 0.258405 )  
( 0.267364 0.145224 -5.70498e-08 )  
( 0 0 -5.70552e-08 )  
( 0 0 -0.0476774 )  
( 0 0 -0.19254 )  
( 0 0 -5.70846e-08 )  
( 0 0 0.328652 )  
( 0 0 0.012653 )  
( 0 0 0.0658305 )  
( 0 0 5.81545e-07 )  
( 0 0 -0.000306927 )  
( -0.171817 -0.0857882 0.0148668 )  
( 0 0 -5.67068e-08 )  
( 0 0 -4.84005e-08 )  
( 0 0 -5.70547e-08 )  
( 0 0 0.0378426 )  
( 0 0 -5.7055e-08 )  
( 0 0 0.342543 )  
( 0 0 0.264198 )  
( 0 0 0.00520602 )  
( 0 0 -0.19899 )  
( 0 0 -0.149587 )  
( 0 0 -0.0886012 )  
( 0 0 -0.118047 )  
( 0 0 0.146235 )  
( 0 0 -5.70551e-08 )  
( 0 0 0.130074 )  
( 0 0 0.211783 )  
( 0 0 -0.096614 )  
( 0 0 -0.124651 )  
( 0 0 -0.193545 )  
( 0 0 0.17682 )  
( 0 0 0.0794286 )  
( 0 0 -5.70554e-08 )  
( 0 0 -0.0959923 )  
( 0 0 0.251195 )  
( 0 0 0.140729 )  
( 0 0 0.0658087 )  
( 0 0 0.101389 )  
( 0 0 -0.0496391 )  
( 0 0 0.0289135 )  
( 0 0 0.0100747 )  
( 0 0 -0.162794 )  
( 0 0 0.198262 )  
( 0 0 -0.166827 )  
( 0 0 0.126572 )  
( 0 0 -0.18586 )  
( 0 0 0.269792 )  
( 0 0 -0.0892889 )  
( 0 0 0.208217 )  
( 0 0 0.0597608 )  
( 0 0 0.0669079 )  
( 0 0 0.237252 )  
( 0 0 0.0565691 )  
( 0 0 0.163177 )  
( 0 0 -0.0685941 )  
( 0 0 -5.70547e-08 )  
( 0 0 0.0922906 )  
( 0 0 0.0742203 )  
( 0 0 0.315719 )  
( 0 0 -0.0458701 )  
( 0 0 -0.11853 )  
( 0 0 0.0624456 )  
( -0.0166196 -0.254081 -5.70512e-08 )  
( 0 0 -0.208115 )  
( 0 0 0.181341 )  
( -0.145582 0.0297881 0.198335 )  
( 0 0 0.0180713 )  
( 0 0 0.338743 )  
( 0 0 0.280416 )  
( 0 0 0.0784877 )  
( 0 0 0.291469 )  
( 0 0 -0.112587 )  
( 0.200121 0.335489 0.204036 )  
( 0 0 0.329346 )  
( 0 0 0.115727 )  
( 0 0 0.184464 )  
( 0 0 -0.0902329 )  
( 0 0 -0.180458 )  
( 0 0 -0.0122162 )  
( 0 0 0.102881 )  
( 0 0 0.12635 )  
( 0 0 -0.150879 )  
( 0 0 -0.138659 )  
( 0 0 0.351601 )  
( 0 0 -0.146214 )  
( 0 0 -0.0171251 )  
( 0 0 -0.0609624 )  
( 0 0 -0.00997713 )  
( 0 0 -0.139627 )  
( 0 0 -5.7055e-08 )  
( 0 0 -0.0287782 )  
( 0 0 0.212891 )  
( 0 0 -0.0766159 )  
( 0 0 -5.70546e-08 )  
( 0 0 -5.70553e-08 )  
( 0 0 -0.00284056 )  
( 0 0 -5.70553e-08 )  
( 0 0 -0.136614 )  
( 0 0 -5.70417e-08 )  
( 0 0 -0.149021 )  
( 0 0 0.0722533 )  
( 0 0 0.136151 )  
( 0 0 -0.044099 )  
( 0 0 0.161812 )  
( 0 0 0.0546353 )  
( 0 0 0.234625 )  
( 0.183423 -0.415557 0.108372 )  
( 0 0 0.112302 )  
( 0 0 -5.70547e-08 )  
( 0 0 0.341192 )  
( 0 0 -0.0899618 )  
( 0.0298195 0.130704 -0.0179458 )  
( 0 0 0.250496 )  
( 0 0 0.0390584 )  
( 0.068397 0.308761 -5.70498e-08 )  
( 0 0 0.341642 )  
( 0 0 0.217665 )  
( 0 0 -0.0923058 )  
( 0 0 0.0347102 )  
( 0 0 0.0155853 )  
( 0 0 -0.0427674 )  
( 0 0 0.0465637 )  
( 0 0 0.287227 )  
( 0 0 -0.184677 )  
( 0 0 0.217544 )  
( 0 0 -0.161372 )  
( 0 0 0.285363 )  
( 0 0 0.0779863 )  
( 0 0 0.151531 )  
( 0 0 -0.182543 )  
( -9.8502e-06 -0.165552 -5.70523e-08 )  
( 0 0 -5.70542e-08 )  
( 0 0 -0.0711163 )  
( 0 0 -0.164468 )  
( 0 0 -0.170473 )  
( 0 0 -0.144792 )  
( 0 0 0.306149 )  
( 0 0 -5.70546e-08 )  
( 0 0 0.124962 )  
( 0 0 0.169292 )  
( 0 0 -0.0994907 )  
( 0 0 0.132438 )  
( 0 0 -0.0345484 )  
( 0 0 0.292548 )  
( 0 0 0.13986 )  
( 0 0 -0.166743 )  
( 0 0 -0.00123421 )  
( 0 0 0.0604236 )  
( 0 0 0.0249364 )  
( 0 0 0.203995 )  
( 0 0 0.041795 )  
( 0 0 -0.150811 )  
( 0 0 -0.0737144 )  
( 0 0 0.222555 )  
( 0 0 -0.0911204 )  
( 0 0 5.62918e-05 )  
( 0 0 -0.169393 )  
( 0 0 0.000446947 )  
( 0 0 -5.70546e-08 )  
( 0 0 0.344552 )  
( 0.110439 -0.220396 0.249145 )  
( 0 0 -5.70549e-08 )  
( 0 0 -5.70554e-08 )  
( 0 0 0.00706943 )  
( 0 0 -0.150012 )  
( 0 0 -0.0254793 )  
( -0.0489738 0.110953 -5.70528e-08 )  
( 0 0 -5.70542e-08 )  
( 0 0 -0.0664371 )  
( 0 0 0.107766 )  
( 0 0 -0.0320402 )  
( 0 0 -0.107958 )  
( 0 0 -0.0707282 )  
( 0 0 -0.0466068 )  
( 0 0 -0.169083 )  
( 0 0 0.0464955 )  
( 0 0 -0.0720075 )  
( 0 0 -0.051844 )  
( 0 0 -0.100473 )  
( 0 0 0.300071 )  
( -0.0977935 -0.163944 0.00884549 )  
( 0 0 0.32491 )  
( 0 0 0.0623252 )  
( 0 0 -0.0547266 )  
( -0.055162 -0.241785 -0.00473837 )  
( -0.00857979 -0.00722042 -5.70544e-08 )  
( 0 0 0.0642508 )  
( 0 0 -0.0201797 )  
( 0 0 -0.156072 )  
( 0 0 -5.70546e-08 )  
( 0 0 -5.70551e-08 )  
( 0 0 -0.074123 )  
( 0 0 0.0118327 )  
( 0 0 0.0740478 )  
( 0 0 -0.0263896 )  
( 0 0 -3.02207e-06 )  
( 0 0 0.277357 )  
( 0 0 -0.198896 )  
( 0 0 -0.0229104 )  
( 0 0 0.0243972 )  
( 0 0 0.0803268 )  
( 0.0556764 0.0468551 0.0897396 )  
( 0 0 -0.0642737 )  
( 0 0 0.00232378 )  
( 0 0 -0.0473288 )  
( 0 0 0.0720679 )  
( 0 0 0.17887 )  
( 0 0 0.0731762 )  
( 0 0 0.00697686 )  
( 0 0 0.317449 )  
( 0 0 -0.000233082 )  
( 0 0 0.202242 )  
( 0 0 -0.140324 )  
( -0.0417856 -0.39812 0.0629027 )  
( 0 0 0.212978 )  
( 0 0 0.213499 )  
( 0 0 -0.0747151 )  
( 0 0 0.026488 )  
( 0 0 -4.55809e-08 )  
( 0 0 0.21362 )  
( 0 0 0.0501386 )  
( 0 0 0.120857 )  
( 0 0 0.303114 )  
( 0.00270277 0.00278093 -0.0468652 )  
( 0 0 -5.70547e-08 )  
( 0 0 -0.0994433 )  
( 0 0 0.00725949 )  
( 0 0 -0.0280806 )  
( 0 0 -0.0414978 )  
( 0 0 -5.70552e-08 )  
( 0 0 -5.70546e-08 )  
( 0.00896765 0.137098 -0.00117962 )  
( 0 0 0.0756085 )  
( 0 0 -0.102475 )  
( 0 0 0.177849 )  
( 0 0 0.104348 )  
( 0 0 0.194006 )  
( 0 0 -0.0088438 )  
( 0 0 -0.138413 )  
( 0 0 -0.0149999 )  
( 0 0 -5.71004e-08 )  
( 0 0 0.186506 )  
( 0 0 0.0221609 )  
( -0.302358 0.154018 0.250812 )  
( 0 0 -0.114542 )  
( -0.0255242 0.154839 -5.70527e-08 )  
( 0 0 -5.70546e-08 )  
( 0 0 0.0100975 )  
( -0.00103825 0.093717 0.0200081 )  
( 0 0 -0.136308 )  
( 0 0 -0.141286 )  
( 0 0 -0.0875094 )  
( 0 0 0.0313592 )  
( 0 0 -0.0287458 )  
( 0 0 0.0827678 )  
( 0 0 -0.0596196 )  
( 0 0 -0.146981 )  
( -0.180711 -0.237651 0.0624576 )  
( 0 0 -5.70551e-08 )  
( 0 0 -0.160931 )  
( 0 0 0.345794 )  
( 0 0 -0.117862 )  
( 0 0 0.0834637 )  
( 0 0 0.357987 )  
( 0 0 -0.130913 )  
( 0 0 -5.70505e-08 )  
( 0.00112337 0.00115585 0.0851921 )  
( 0 0 0.160899 )  
( 0 0 -5.69075e-08 )  
( 0 0 -0.179849 )  
( 0 0 0.344095 )  
( 0 0 0.247659 )  
( 0 0 0.0900561 )  
( 0 0 -0.0571427 )  
( 0 0 0.117945 )  
( 0 0 0.229558 )  
( 0 0 0.0123817 )  
( 0 0 0.251129 )  
( 0 0 -0.0323955 )  
( 0 0 0.00892651 )  
( 0 0 -0.00520797 )  
( 0 0 0.246628 )  
( 0 0 0.335649 )  
( 0.0212546 -0.0268939 -0.036728 )  
( 0.314905 -0.0644339 0.130679 )  
( 0 0 0.0200505 )  
( 0 0 0.201235 )  
( 0 0 0.24078 )  
( 0 0 0.280824 )  
( 0 0 -0.0579359 )  
( 0 0 -5.70546e-08 )  
( 0 0 -0.191503 )  
( 0 0 -0.0538796 )  
( 0 0 -0.0832924 )  
( 0 0 0.0353962 )  
( 0.0242955 -0.0017933 -5.70544e-08 )  
( 0 0 0.0296285 )  
( 0 0 0.170619 )  
( 0.0596442 -0.0869635 0.251373 )  
( 0 0 0.309679 )  
( 0 0 -0.189761 )  
( 0.225228 -0.0944714 0.0290799 )  
( 0 0 0.252188 )  
( 0 0 -0.0387305 )  
( 0 0 -0.117285 )  
( 0 0 0.300694 )  
( 0 0 0.018136 )  
( 0 0 0.0820771 )  
( 0 0 -5.7055e-08 )  
( 0 0 0.108644 )  
( 0 0 0.19689 )  
( 0 0 0.235552 )  
( 0 0 0.121921 )  
( 0 0 0.0141871 )  
( 0 0 0.0467544 )  
( 0 0 -0.0216469 )  
( 0 0 0.229334 )  
( 0 0 0.164087 )  
( 0 0 0.0160058 )  
( 0 0 0.23173 )  
( 0 0 0.336956 )  
( 0 0 0.0455316 )  
( -0.15448 0.00901677 0.165444 )  
( 0 0 0.179833 )  
( 0 0 -0.106571 )  
( 0 0 -0.101614 )  
( 0 0 0.046042 )  
( 0 0 0.160354 )  
( 0 0 -0.0897068 )  
( 0 0 -0.0615324 )  
( 0 0 0.173638 )  
( 0 0 -0.158286 )  
( 0 0 -0.067194 )  
( 0 0 0.249941 )  
( 0 0 -0.144037 )  
( 0 0 0.0718408 )  
( 0 0 -0.186553 )  
( 0 0 0.218431 )  
( 0 0 -0.0855808 )  
( 0.0100222 0.0120642 -0.0348979 )  
( 0.209949 0.31899 0.00637871 )  
( 0 0 0.145851 )  
( 0 0 -5.70541e-08 )  
( 0 0 0.219321 )  
( 0 0 -5.70596e-08 )  
( 0 0 0.122769 )  
( 0 0 -0.00420714 )  
( 0 0 0.162353 )  
( 0 0 0.219791 )  
( 0 0 0.250466 )  
( 0 0 0.1663 )  
( 0 0 -0.0969358 )  
( 0 0 -0.126676 )  
( 0 0 -5.70708e-08 )  
( 0 0 0.0366412 )  
( 0 0 -0.0423387 )  
( -0.124014 0.0356696 -5.70533e-08 )  
( 0 0 -0.0237308 )  
( 0 0 -0.0493577 )  
( 0 0 -0.0529355 )  
( 0 0 -0.167038 )  
( 0 0 0.0849001 )  
( 0 0 -0.152876 )  
( 0 0 0.15394 )  
( 0 0 0.252024 )  
( 0 0 -0.00718979 )  
( 0 0 0.320197 )  
( 0 0 0.253259 )  
( 0.11931 -0.133438 -5.70527e-08 )  
( 0 0 -0.0454692 )  
( 0 0 0.294491 )  
( 0 0 -0.0677409 )  
( 0 0 0.125724 )  
( 0 0 -0.131584 )  
( 0 0 0.168155 )  
( 0 0 -0.0927852 )  
( 0 0 0.0241461 )  
( 0 0 -0.213958 )  
( -0.0370428 -0.224465 0.0496564 )  
( 0 0 0.00173954 )  
( 0 0 -0.0403602 )  
( 0 0 -0.0824022 )  
( 0 0 -5.70553e-08 )  
( 0 0 -5.70547e-08 )  
( 0 0 0.273018 )  
( 0 0 -5.70594e-08 )  
( 0 0 -0.175432 )  
( 0 0 0.036688 )  
( 0 0 0.252516 )  
( 0 0 -0.00220386 )  
( 0 0 0.254706 )  
( 0 0 -0.0286886 )  
( 0 0 -5.70547e-08 )  
( 0 0 -0.000140894 )  
( 0 0 -0.0860978 )  
( 0 0 -0.11033 )  
( 0 0 -0.0682589 )  
( 0 0 -0.136783 )  
( 0 0 -5.70546e-08 )  
( -0.105872 0.0478658 0.00249725 )  
( 0 0 -0.0078628 )  
( 0 0 0.0874987 )  
( 0 0 -5.70554e-08 )  
( 0 0 0.329608 )  
( 0 0 -0.0149482 )  
( 0 0 -0.0744542 )  
( 0 0 0.159051 )  
( -0.0328353 -0.105751 0.245171 )  
( 0 0 0.0320275 )  
( 0 0 0.113798 )  
( -0.0106684 -0.00444404 0.0468988 )  
( 0 0 0.149066 )  
( 0.0943314 -0.0174462 -0.0191014 )  
( 0 0 -0.173708 )  
( 0 0 0.0893273 )  
( 0 0 -0.00109889 )  
( 0 0 0.178851 )  
( 0 0 -0.0712062 )  
( -0.0831305 -0.126306 0.0980023 )  
( 0 0 0.256773 )  
( 0 0 0.0743981 )  
( -0.0261834 0.00652177 -5.70543e-08 )  
( 0 0 0.0838966 )  
( 0.317948 0.132445 -0.0257005 )  
( 0 0 -5.59126e-08 )  
( 0 0 0.00301353 )  
( 0 0 -0.115638 )  
( 0 0 -5.70544e-08 )  
( 0 0 0.211369 )  
( 0 0 -5.70546e-08 )  
( 0 0 0.0805183 )  
( 0 0 -0.000506841 )  
( 0 0 0.174079 )  
( 0 0 -0.097337 )  
( 0 0 0.173433 )  
( 0 0 0.00424834 )  
( 0 0 0.289056 )  
( 0 0 0.0132908 )  
( 0 0 0.165661 )  
( -0.157194 -0.391026 0.0279619 )  
( 0 0 -0.0212731 )  
( 0.00911648 0.000982155 -0.0658626 )  
( 0 0 1.34044e-08 )  
( 0 0 -0.0101768 )  
( 0 0 0.0196849 )  
( 0 0 0.12006 )  
( 0 0 -0.103099 )  
( 0 0 0.108045 )  
( 0 0 0.346188 )  
( 0 0 0.0926758 )  
( 0 0 0.341566 )  
( 0.0798452 0.0217997 -5.70538e-08 )  
( 0 0 -0.0712441 )  
( 0 0 0.325113 )  
( 0 0 0.298572 )  
( 0 0 0.0144895 )  
( -0.230237 0.0169942 -0.093453 )  
( 0 0 -5.70547e-08 )  
( 0 0 -0.0916255 )  
( 0.0717837 -0.0355743 0.177215 )  
( 0 0 0.0648753 )  
( 0 0 -5.69047e-08 )  
( 0 0 0.0655935 )  
( 0 0 -0.0556993 )  
( 0 0 9.0973e-07 )  
( 0 0 -0.0592185 )  
( 0 0 0.221488 )  
( 0 0 -5.60216e-08 )  
( 0 0 0.241738 )  
( 0 0 -0.125222 )  
( 0 0 -0.0295719 )  
( 0 0 0.331393 )  
( 0 0 -0.0936631 )  
( 0 0 -0.146367 )  
( 0 0 -0.0996266 )  
( -0.0455937 0.0509929 -5.70541e-08 )  
( 0 0 -0.00976698 )  
( 0 0 0.0248218 )  
( 0 0 0.266503 )  
( 0 0 0.236476 )  
( 0 0 0.18237 )  
( 0 0 0.0535149 )  
( 0 0 -0.175253 )  
( 0 0 0.110013 )  
( 0 0 0.0175232 )  
( 0 0 -5.70546e-08 )  
( 0 0 0.246923 )  
( 0.018744 -0.147408 -5.70538e-08 )  
( 0 0 -0.120661 )  
( 0 0 0.301396 )  
( 0 0 0.297536 )  
( 0 0 -5.70551e-08 )  
( 0.220739 0.0511573 0.240689 )  
( 0 0 0.11602 )  
( 0 0 0.0138624 )  
( 0 0 0.0304123 )  
( 0 0 5.35837e-08 )  
( 0 0 0.147845 )  
( 0 0 -0.0845003 )  
( 0 0 -0.0113527 )  
( -0.129943 -0.185714 -5.70513e-08 )  
( 0 0 0.0863207 )  
( 0 0 -0.0913333 )  
( 0 0 0.223267 )  
( 0 0 0.152426 )  
( 0 0 -0.18919 )  
( 0 0 0.0831381 )  
( 0 0 -0.0447396 )  
( 0 0 -0.111006 )  
( 0 0 -0.134159 )  
( 0 0 0.080445 )  
( 0 0 0.018033 )  
( 0 0 0.212613 )  
( 0 0 0.0795243 )  
( 0.094737 -0.111173 -5.6013e-08 )  
( 0 0 -0.0443496 )  
( 0 0 -0.00275728 )  
( 0 0 -5.70545e-08 )  
( 0 0 -0.0969549 )  
( 0 0 0.314174 )  
( 0 0 0.0725579 )  
( -0.0588869 -0.298097 -3.07817e-05 )  
( 0 0 0.0330063 )  
( -0.115713 -0.0172298 -5.7053e-08 )  
( 0 0 -0.0614273 )  
( 0 0 0.067373 )  
( 0.103766 0.0242232 -5.70527e-08 )  
( 0 0 0.289459 )  
( 0 0 0.282964 )  
( 0.345857 0.0514986 5.87131e-06 )  
( 0 0 0.223077 )  
( 0 0 -0.157928 )  
( 0 0 -0.192967 )  
( 0 0 0.112559 )  
( 0 0 -0.0810053 )  
( -0.00167111 -0.0310435 0.0168551 )  
( 0 0 -0.202825 )  
( 0 0 0.00451232 )  
)
