/*--------------------------------*- C++ -*----------------------------------*\
| =========                 |                                                 |
| \\      /  F ield         | OpenFOAM: The Open Source CFD Toolbox           |
|  \\    /   O peration     | Version:  2506                                  |
|   \\  /    A nd           | Website:  www.openfoam.com                      |
|    \\/     M anipulation  |                                                 |
\*---------------------------------------------------------------------------*/
FoamFile
{
    version     2.0;
    format      ascii;
    arch        "LSB;label=32;scalar=64";
    class       volScalarField;
    location    "0.01";
    object      p;
}
// * * * * * * * * * * * * * * * * * * * * * * * * * * * * * * * * * * * * * //

dimensions      [0 2 -2 0 0 0 0];

internalField   nonuniform List<scalar> 
512
(
-0.16977
-0.0202605
-0.311789
-0.583401
-0.316665
-0.110246
-0.311452
-0.712692
-0.660189
-0.360985
-0.184065
-0.199229
-0.346445
-0.4586
-0.279386
-0.0886344
0.0594213
0.151306
0.130869
0.0525958
0.0702084
0.207824
0.161632
0.0217404
-0.01153
0.0794276
0.0347256
-0.0779538
0.00963303
0.0277687
-0.238141
-0.375634
-0.200454
-0.142403
-0.307194
-0.422099
-0.381324
-0.34335
-0.311814
-0.572861
-0.658583
-0.385519
-0.259236
-0.317748
-0.218115
-0.240274
-0.250682
-0.0477455
0.120577
0.163612
0.0767902
0.0368014
0.142774
0.292997
0.162425
0.0351093
0.0618912
0.062446
-0.0142359
-0.0345889
0.0317812
-0.0830804
-0.233763
-0.275683
-0.162466
-0.103074
-0.180358
-0.212832
-0.286564
-0.333662
-0.327782
-0.465937
-0.602656
-0.450953
-0.323707
-0.27722
-0.231411
-0.31643
-0.258082
-0.0195704
0.104354
-0.00717988
-0.104156
0.035745
0.0725508
0.165385
0.166462
0.0465536
0.0120376
0.0621746
-0.00062658
-0.0563938
0.0198589
-0.127867
-0.29549
-0.255864
-0.701782
-0.249038
-0.154212
-0.235516
-0.254539
-0.317662
-0.280747
-0.364326
-0.423496
-0.510501
-0.402118
-0.214707
-0.23949
-0.326012
-0.120457
0.110608
0.112392
-0.08804
-0.125337
0.0867862
0.199788
0.226589
0.130694
-0.0498325
0.00179919
0.16016
0.0811525
-0.0594399
-0.0631283
0.115694
-0.0970451
-0.56254
-0.20212
-0.161683
-0.212626
-0.168959
-0.158224
-0.282172
-0.363098
-0.47248
-0.523655
-0.497242
-0.357058
-0.305016
-0.260996
-0.23482
-0.0469086
0.0204026
-0.0851207
-0.205005
-0.0198316
0.108692
0.115245
0.108498
-0.00549486
0.00903477
0.110604
0.126848
0.130718
0.0721543
-0.142584
-0.270924
-0.209389
-0.219886
-0.512389
-0.221709
-0.0935716
-0.0948902
-0.117832
-0.182817
-0.248287
-0.369453
-0.719884
-0.677215
-0.221688
-0.192676
-0.274111
-0.217238
-0.0727461
-0.085932
-0.170487
-0.0995726
0.039181
0.0917079
0.0636534
-0.0130787
-0.122072
0.0153584
0.300343
0.229478
-0.013559
-0.0266373
-0.0235652
-0.0848857
-0.215856
-0.475214
-0.302345
-0.210046
-0.239748
-0.153514
-0.136762
-0.320907
-0.374058
-0.313524
-0.479082
-0.534861
-0.369934
-0.346837
-0.370493
-0.201237
0.0222776
0.00719999
-0.100556
-0.179635
-0.15502
-0.0927323
0.0818157
0.119909
0.0341069
0.0456354
0.134199
0.0744075
-0.0959241
-0.090296
-0.0583289
-0.0825533
-0.0846335
-0.246649
-0.324515
-0.306322
-0.161481
-0.0345882
-0.117814
-0.311835
-0.36639
-0.336788
-0.481365
-0.541195
-0.448771
-0.361003
-0.254132
-0.0729619
-0.0471403
-0.111985
-0.0617303
-0.0601088
-0.156651
-0.00159424
0.104003
0.00689288
-0.138386
-0.0709938
0.08032
0.0480221
-0.0743259
-0.0293863
0.0111603
-0.0181371
-0.076286
-0.161566
-0.361858
-0.111338
-0.160656
-0.447028
-0.383193
-0.0944936
-0.267593
-0.623519
-0.637759
-0.432093
-0.244837
-0.0762861
-0.0854304
-0.365165
-0.460713
-0.145234
0.175774
0.222152
0.154829
0.115912
0.060601
0.12839
0.20607
0.0715034
-0.0823343
-0.00799512
-0.0988762
-0.136643
0.0714952
0.0473916
-0.140574
-0.379913
-0.480677
-0.0811058
-0.0653058
-0.451804
-0.514281
-0.0694456
-0.137821
-0.630545
-0.847536
-0.626147
-0.326863
-0.137304
0.00749516
-0.0749153
-0.0548396
0.126097
0.138927
0.0099889
0.0830948
0.162751
0.0797822
0.0477474
0.0337219
0.0718025
0.188474
0.0524632
-0.139526
-0.199962
-0.1812
0.0430159
-0.038924
-0.43965
-0.325968
-0.0753862
-0.202096
-0.374659
-0.277019
-0.175006
-0.384072
-0.799355
-0.691623
-0.320568
-0.210515
-0.201742
-0.218904
-0.227258
-0.134344
-0.0281512
0.0750119
-0.134039
-0.442699
-0.13583
0.286023
0.417315
0.181895
0.048615
0.011551
0.0848407
0.127846
-0.0857111
-0.265518
-0.0693909
0.0460676
-0.283232
-0.744596
-0.363851
-0.0634305
-0.0760478
-0.0971535
-0.0677388
-0.132689
-0.385348
-0.570293
-0.702684
-0.453899
-0.0938388
-0.189937
-0.205769
0.0308982
0.166336
0.108065
0.0105799
0.0379676
0.0642861
0.187394
0.243259
-0.130788
-0.284659
-0.146595
0.165998
0.142044
-0.0596402
-0.0875209
0.00323476
-0.118676
-0.468842
-0.346909
-0.301475
-0.278658
-0.188534
-0.241759
-0.173583
-0.178303
-0.459483
-0.610984
-0.318307
-0.165836
-0.224975
-0.222157
-0.24411
-0.352869
-0.271319
-0.0538943
0.0972245
0.0372117
0.0518651
0.123134
-0.0448266
-0.237668
-0.195099
0.050354
0.278679
0.20749
-0.0982636
-0.284691
-0.0760402
-0.00490991
-0.16297
-0.557676
-0.41307
-0.246089
-0.26601
-0.238616
-0.162501
-0.34748
-0.713265
-0.583465
-0.283619
-0.250471
-0.105161
0.0857562
-0.129353
-0.134747
0.00236029
-0.092231
-0.221633
-0.0995729
0.131276
0.0944141
-0.355729
-0.649639
-0.074301
0.363088
0.284464
0.0977923
0.144196
0.229018
0.249056
0.0625084
-0.344102
-0.556038
0.0855654
0.0690187
-0.299596
-0.409698
-0.287982
-0.285459
-0.387178
-0.405677
-0.461048
-0.561448
-0.44062
-0.120995
0.0989008
-0.00836947
-0.192975
-0.0889012
-0.160752
-0.0920424
-0.134089
-0.135636
0.193376
0.0712421
-0.0690148
0.251914
0.244262
-0.115018
-0.31779
-0.209107
0.152468
0.0428255
-0.517626
-0.519069
-0.35354
-0.08572
-0.139628
-0.235612
-0.219032
-0.26652
-0.363011
-0.4363
-0.442465
-0.562121
-0.507517
-0.134684
0.0183727
-0.182655
-0.236667
0.0463662
0.00793721
-0.132848
0.00195379
0.0994068
-0.00739795
-0.0702384
-0.104443
0.0320015
0.0606448
0.0412613
-0.00460714
-0.0988798
0.0185309
0.0923582
-0.250737
)
;

boundaryField
{
    wall
    {
        type            zeroGradient;
    }
    outlet
    {
        type            cyclic;
    }
    inlet
    {
        type            cyclic;
    }
    procBoundary3to2
    {
        type            processor;
        value           nonuniform List<scalar> 
256
(
-0.372123
-0.163706
-0.239504
-0.398698
-0.316345
-0.191724
-0.222165
-0.379859
-0.652579
-0.525254
-0.302013
-0.204635
-0.145764
-0.282311
-0.192465
0.0777865
0.0992022
0.0726338
0.0913391
0.021933
0.00624719
0.100542
0.0172735
-0.134857
-0.0294457
0.103777
0.0446666
-0.0493543
0.12071
0.247558
0.0116075
-0.336145
-0.131221
-0.22009
-0.40454
-0.39926
-0.356869
-0.322563
-0.211644
-0.350667
-0.607372
-0.488315
-0.298506
-0.287519
-0.255022
-0.260338
-0.1247
0.0475196
0.154281
0.155202
0.0733616
-0.0560058
-0.0836537
0.115289
0.156379
0.0311732
0.0299453
0.161512
0.117787
-0.0941304
-0.0603112
-0.0505461
-0.23721
-0.232559
-0.191303
-0.275877
-0.292567
-0.21205
-0.224656
-0.277739
-0.239593
-0.330971
-0.573424
-0.601752
-0.353034
-0.223699
-0.224358
-0.336123
-0.21674
0.0196105
0.120347
0.0520686
-0.0144929
0.0428068
0.0903078
0.117643
0.0434375
-0.081844
-0.00642641
0.0766806
0.0551884
0.0430458
0.115153
0.0595278
-0.160558
-0.294383
-0.582322
-0.345386
-0.172235
-0.175265
-0.282016
-0.345256
-0.204484
-0.137007
-0.371143
-0.593371
-0.540471
-0.300532
-0.219495
-0.284633
-0.108966
0.0890574
0.0649744
0.00243102
-0.0051974
0.125484
0.142007
0.0859137
0.00187304
-0.112232
-0.0271895
0.0681868
0.0795117
0.0777627
0.0561307
0.0664405
-0.0861653
-0.40061
-0.206785
-0.271658
-0.200423
-0.157683
-0.248144
-0.357261
-0.322997
-0.297159
-0.39436
-0.490512
-0.421489
-0.277697
-0.212286
-0.224347
-0.0714145
-0.00782137
-0.016669
0.00587349
0.035787
0.174106
0.150263
0.00794154
-0.117912
-0.0920989
0.0447633
0.0378849
-0.0371047
0.00907614
-0.0263547
-0.0890442
-0.159795
-0.168325
-0.340751
-0.518754
-0.259642
-0.0237404
-0.0163908
-0.310418
-0.454584
-0.404385
-0.383938
-0.368369
-0.355413
-0.315119
-0.234114
-0.134831
0.0409339
-0.06669
-0.1827
-0.0736138
0.0352142
0.0734463
0.0363071
-0.0421555
-0.0561085
-0.000915334
0.142391
0.157838
0.0478538
0.00583479
-0.0168806
-0.0567899
-0.0482844
-0.0766208
-0.366568
-0.381064
-0.185989
0.13933
0.114806
-0.398161
-0.698372
-0.496516
-0.450076
-0.425578
-0.309025
-0.310158
-0.31607
-0.0605638
0.23927
0.244363
-0.0191297
-0.213138
-0.112782
-0.0901342
-0.138804
-0.0922224
0.0273596
0.142796
0.1569
0.145362
0.128497
0.0379976
-0.0276097
-0.185672
-0.28922
-0.327237
-0.259748
-0.424684
-0.269519
0.111195
-0.0159169
-0.349082
-0.423859
-0.4416
-0.507098
-0.545154
-0.555894
-0.410618
-0.165681
0.0153392
0.126693
0.0614293
-0.104307
-0.144003
-0.115968
-0.0559448
-0.0770435
-0.090446
-0.0394931
0.11812
0.21592
0.162857
0.14914
0.141737
-0.0644854
-0.307768
-0.2349
-0.155752
)
;
    }
}


// ************************************************************************* //
