/*--------------------------------*- C++ -*----------------------------------*\
| =========                 |                                                 |
| \\      /  F ield         | OpenFOAM: The Open Source CFD Toolbox           |
|  \\    /   O peration     | Version:  2506                                  |
|   \\  /    A nd           | Website:  www.openfoam.com                      |
|    \\/     M anipulation  |                                                 |
\*---------------------------------------------------------------------------*/
FoamFile
{
    version     2.0;
    format      ascii;
    arch        "LSB;label=32;scalar=64";
    class       surfaceScalarField;
    location    "0.01";
    object      phi;
}
// * * * * * * * * * * * * * * * * * * * * * * * * * * * * * * * * * * * * * //

dimensions      [0 3 -1 0 0 0 0];

oriented        oriented;

internalField   nonuniform List<scalar> 
1200
(
0.00154679
-7.58034e-07
2.30963e-06
0.00154285
1.37242e-06
4.74691e-06
0.00153839
3.18026e-06
1.66248e-06
0.00154078
-1.58203e-06
-2.12854e-06
0.00154416
-2.64851e-06
-3.7449e-06
0.00154402
9.17757e-07
-4.31048e-06
0.00153849
1.01621e-06
-3.58153e-06
0.00153837
-7.99856e-07
-5.06282e-06
0.0015448
-1.42168e-06
-1.04392e-06
0.00154539
-1.53613e-06
3.88797e-06
0.00154228
-5.5148e-07
8.91324e-06
0.00154105
1.6282e-06
6.73353e-06
0.00154187
2.16793e-06
5.10739e-07
0.00154183
-1.52867e-07
-7.13993e-07
0.00153838
7.16929e-07
-1.38548e-07
0.00153843
3.06024e-07
-1.3593e-06
0.00154278
-1.77469e-06
-2.83987e-06
0.00154386
-1.55441e-06
-1.54079e-06
0.00154353
-8.79502e-07
-1.12369e-06
0.00154309
-5.7374e-07
-2.04491e-06
0.00154366
-4.88731e-07
-3.28118e-06
0.00154306
-1.15047e-07
-8.38244e-08
0.00154364
3.68672e-07
1.9311e-06
0.00154391
-4.88212e-07
-1.30587e-07
0.00154451
-1.63083e-06
-2.34154e-06
0.0015454
-1.33431e-06
-2.3322e-06
0.00154526
-8.86124e-07
-3.81347e-07
0.00154337
-6.10458e-07
2.62709e-06
0.00154209
3.60334e-07
2.00419e-06
0.00153971
1.89092e-06
3.69335e-06
0.00154052
2.17287e-06
1.2106e-06
-4.68801e-07
-5.17846e-07
0.0015819
-1.40156e-06
2.08511e-06
0.00158419
4.42934e-07
9.94805e-07
0.00158357
3.77761e-06
-1.08687e-06
0.00157641
3.11224e-06
1.3283e-06
0.00157189
-8.26271e-07
1.15531e-07
0.00157426
-5.26478e-08
-7.1653e-06
0.00157398
9.18717e-07
-5.59553e-06
0.00157194
4.97925e-07
-2.01031e-06
0.00157369
-2.36568e-06
1.96867e-06
0.00157308
-1.81153e-06
4.01877e-06
0.00156913
5.58898e-07
7.25662e-06
0.00156906
1.73269e-06
6.29665e-06
0.00156845
1.99779e-06
4.83347e-06
0.00156661
2.64529e-07
1.67797e-06
0.00156689
-2.12233e-07
5.27619e-07
0.00156712
2.91802e-07
-1.52709e-06
0.00156851
-1.36191e-06
-3.32756e-06
0.00156639
-1.83697e-07
-5.80082e-07
0.00156427
2.02838e-07
-6.84775e-07
0.00156845
-1.99373e-06
-4.23706e-06
0.00157258
-2.86806e-06
-3.82387e-06
0.00157605
-1.13198e-06
-3.57784e-06
0.00157762
-6.86943e-07
1.20026e-06
0.0015759
3.08086e-07
6.82401e-07
0.00157324
9.7461e-07
-2.15303e-06
0.00157307
-1.30717e-06
-1.18031e-06
0.00157382
-2.08514e-06
1.432e-06
0.00157259
-1.67924e-06
9.74822e-07
0.00157045
-4.21472e-07
1.92321e-06
0.00156981
2.11109e-06
1.831e-06
0.00157368
2.23411e-07
1.64068e-06
-2.85663e-06
1.50824e-06
0.0015707
2.58593e-06
4.99249e-06
0.00157065
3.71534e-07
1.15854e-06
0.00157147
1.88853e-06
-5.15387e-06
0.0015695
3.74807e-06
-4.0762e-06
0.00156799
-1.19689e-07
-2.19215e-06
0.00157081
-2.53889e-06
-2.41124e-06
0.00157219
-1.25616e-06
-2.80147e-06
0.00157292
-9.18467e-07
-1.22438e-06
0.00157323
-1.89846e-06
5.59654e-06
0.00157326
-2.29952e-07
5.28402e-06
0.00157332
2.06735e-06
6.02391e-07
0.00157637
1.4064e-06
-1.37942e-06
0.00157702
2.04819e-06
-7.08252e-07
0.00157411
1.57211e-06
-1.46156e-06
0.00157393
-7.48931e-07
-2.41155e-06
0.00157705
-2.14087e-06
-1.8155e-06
0.00157878
-1.71537e-06
-8.79741e-07
0.00157803
4.75751e-07
-6.87578e-07
0.00157405
3.32392e-07
6.31772e-07
0.00156631
-7.70185e-07
3.05809e-06
0.0015646
-3.04566e-06
1.69639e-06
0.00156704
-2.61875e-06
2.75653e-07
0.0015661
-3.94668e-07
2.49361e-06
0.00156461
2.07998e-06
5.22476e-07
0.00156519
1.50393e-06
-9.14593e-07
0.00156614
-2.38328e-07
-1.76664e-06
0.00156856
-3.96629e-07
-4.85804e-06
0.00156702
-2.67524e-07
-1.6206e-06
0.00156336
-1.19879e-06
2.70779e-06
0.00156721
-2.02183e-06
1.49107e-06
0.00157461
-3.60179e-06
-3.45369e-07
-2.83405e-07
1.29476e-06
0.00156972
-4.40626e-06
8.02928e-07
0.0015698
-2.09847e-06
2.70536e-06
0.00156913
1.45488e-06
5.69955e-07
0.00157248
7.90449e-07
-6.11674e-07
0.00157259
-5.48712e-07
-4.46088e-07
0.00157035
-1.1847e-06
-4.14823e-07
0.00157092
-2.64935e-06
-4.93884e-06
0.00157416
-4.28182e-06
-5.1097e-06
0.00157681
-5.18055e-07
-1.63692e-06
0.00157174
4.46123e-06
3.73326e-06
0.00156613
5.07794e-06
6.2288e-06
0.00156907
1.31987e-07
3.53376e-06
0.00157257
-8.5351e-08
3.68809e-06
0.00157122
2.81194e-06
2.9211e-06
0.00157025
1.13591e-07
6.69031e-07
0.00157011
-2.75734e-06
-5.52502e-07
0.00156925
-1.76003e-06
-4.65517e-07
0.00157242
4.30711e-08
-3.61296e-06
0.00157736
-7.5754e-07
-5.58415e-06
0.00157752
-1.02383e-07
-3.91379e-06
0.00157631
4.82022e-07
-3.77648e-06
0.00157634
-9.73884e-08
-2.63235e-06
0.00157414
2.29056e-06
-2.15831e-07
0.00157143
1.84991e-06
2.40166e-06
0.00157001
4.55539e-07
2.25337e-06
0.00156561
5.02601e-08
1.77654e-06
0.00156175
3.44009e-07
1.49484e-06
0.00156291
-3.6349e-06
1.0922e-06
0.00156447
-3.16193e-06
-3.09763e-07
0.00156173
-1.61502e-07
1.10113e-06
0.00155725
3.68228e-07
2.07342e-06
-2.0952e-06
5.52477e-07
0.00156882
1.49224e-07
1.56075e-06
0.00156819
-3.74448e-07
7.19451e-07
0.00157201
9.37039e-07
-1.27911e-06
0.00157138
3.54495e-06
-1.96098e-06
0.00156818
2.91668e-06
-8.3048e-07
0.00156722
6.61346e-07
-1.50842e-06
0.00156623
-2.21331e-06
-4.69304e-06
0.00156337
-3.82498e-06
-3.24519e-06
0.00156195
2.71258e-07
1.75006e-06
0.00156342
5.11743e-06
5.62129e-07
0.00156561
3.20431e-06
-1.13193e-06
0.00156995
-3.0402e-06
-9.19317e-07
0.00157509
-4.46055e-07
-5.8464e-08
0.00157711
4.84835e-06
-3.98685e-07
0.00157292
2.86826e-06
1.95712e-06
0.0015672
-3.0661e-06
3.48533e-06
0.00156835
-5.64882e-06
3.14712e-07
0.00157404
-3.5837e-06
-4.84032e-06
0.00157532
-1.54532e-06
-3.13549e-06
0.00157521
-1.28228e-06
-1.35838e-06
0.00157573
-1.06742e-06
-1.73901e-06
0.00157166
2.55043e-06
-1.21113e-07
0.00156772
4.24756e-06
1.5266e-06
0.00156539
2.3534e-06
7.79256e-07
0.00156513
-3.5414e-07
-4.51962e-07
0.00156846
-2.57887e-06
-1.43266e-06
0.00156997
-9.12641e-07
-1.90844e-06
0.00156807
-2.41089e-06
1.61321e-07
0.0015655
-3.56635e-06
3.83433e-06
0.00156761
-1.04834e-06
3.08173e-06
0.00157034
8.17684e-08
2.78344e-06
2.80491e-07
2.12899e-06
0.00157503
-3.14632e-06
6.04118e-07
0.00157454
-2.87505e-07
2.08531e-06
0.001571
2.51137e-06
8.36876e-08
0.00157038
2.82828e-06
-1.79055e-06
0.00157166
1.50101e-06
1.12873e-06
0.00156939
2.8373e-06
2.60446e-06
0.00156135
3.99063e-06
-1.4324e-06
0.00154765
2.31915e-06
2.7033e-06
0.00155193
-3.31441e-06
1.72207e-06
0.00156929
-5.42835e-06
-1.56594e-06
0.00157343
-2.22367e-06
2.06198e-06
0.00156726
1.59862e-06
2.98568e-06
0.00156682
3.39924e-06
-1.64147e-06
0.00157195
3.94934e-06
-6.36725e-06
0.00157257
3.236e-06
-4.37912e-06
0.0015713
-1.02768e-06
-7.77465e-07
0.00157089
-3.72064e-06
-1.01946e-06
0.00157192
-4.18627e-06
-4.37084e-07
0.00157115
-2.36951e-06
1.08465e-06
0.00156912
4.01849e-07
1.09067e-06
0.00157012
-4.2901e-07
-7.8821e-07
0.00157261
1.23381e-06
-6.99881e-07
0.00157265
7.38799e-07
5.65307e-06
0.00157148
7.57328e-07
5.57951e-06
0.00157034
-1.20328e-06
3.83482e-06
0.00156937
-2.45303e-06
2.02503e-06
0.00156698
-1.31195e-06
9.66861e-07
0.00156147
-3.14989e-07
1.14598e-06
0.00155195
3.47632e-06
-5.97766e-07
0.00154661
5.67702e-06
-4.67304e-06
0.00155091
2.62566e-06
-6.79911e-06
-2.38004e-06
-6.25308e-06
0.00156288
1.88758e-07
7.55633e-06
0.00156111
1.76839e-06
4.9433e-07
0.00156784
6.58411e-07
-8.52154e-06
0.00157222
-6.48224e-07
-4.19191e-06
0.00157381
5.36633e-07
1.91082e-06
0.00157461
1.51317e-06
3.07288e-06
0.00157695
1.03428e-06
1.30238e-06
0.00157514
1.75328e-06
2.22559e-06
0.00157171
2.75972e-07
7.36152e-07
0.00157397
-3.47278e-06
-5.06452e-06
0.00157419
-6.70245e-07
-2.74536e-06
0.00156797
3.35685e-06
2.68294e-06
0.0015647
2.9482e-06
1.58201e-06
0.00156952
1.45575e-06
-2.96253e-06
0.00157307
2.04152e-06
-2.67007e-06
0.00157086
2.99217e-06
1.44986e-07
0.00156777
1.09167e-07
2.16384e-06
0.00156602
-3.52494e-06
1.10828e-06
0.00156615
-3.19795e-06
-6.41536e-07
0.00156702
-1.94662e-06
-3.44315e-07
0.00156624
-1.51409e-06
1.38476e-06
0.00156803
-1.10553e-06
-7.00292e-07
0.00157085
3.44286e-07
-2.60026e-06
0.00156956
2.70851e-06
1.1919e-07
0.00156737
5.30924e-08
-2.713e-07
0.0015665
-8.06323e-07
-1.88626e-06
0.00156855
-2.02255e-07
-2.95416e-06
0.00156954
2.3353e-07
-1.49514e-07
0.00157145
8.89875e-07
3.8606e-06
0.00157247
3.412e-06
2.36009e-06
0.00157003
2.68764e-06
9.59293e-07
3.41593e-07
2.67647e-06
0.00154425
6.9543e-06
0.00154228
4.40569e-06
0.00154073
-2.14927e-06
0.00153821
-1.43177e-07
0.00153728
2.82987e-06
0.00154159
1.61668e-06
0.00154494
1.33374e-06
0.00154539
1.71197e-06
0.00154455
-8.44159e-07
0.00154211
-1.69531e-06
0.00154048
1.59973e-06
0.00153941
3.08333e-06
0.0015425
-1.70117e-06
0.00154576
-3.37922e-06
0.00154651
7.78139e-07
0.00154871
3.61765e-06
0.00155089
3.36323e-06
0.00154866
1.64042e-06
0.00154424
-2.7848e-07
0.00154206
-4.72661e-07
0.00153862
1.20642e-06
0.00153426
1.34154e-06
0.00153568
-2.56956e-06
0.00154141
-4.26891e-06
0.0015443
-3.54645e-06
0.00154331
-1.91271e-06
0.00154294
-1.23311e-06
0.00154346
-6.80809e-07
0.00154374
4.33124e-07
0.00154487
1.55134e-07
0.00154646
-2.11959e-06
-3.50409e-07
0.00146074
-8.15053e-07
0.00146933
-3.85366e-06
0.00147487
-3.88812e-06
0.00147505
-2.32064e-06
0.00147067
6.33403e-07
0.00146471
1.56473e-06
0.00146125
-1.61084e-07
0.00145675
-5.95885e-07
0.00145415
1.54317e-06
0.00145741
5.90341e-07
0.00146463
1.66031e-06
0.0014695
1.85186e-06
0.00146851
1.49198e-06
0.00146696
7.7279e-07
0.00146751
-6.91074e-07
0.0014668
-6.3558e-07
0.00146468
-7.16164e-07
0.00146328
-2.72905e-07
0.00146184
3.2052e-07
0.00145908
6.99219e-07
0.00145449
1.30371e-06
0.00145296
1.41688e-06
0.00145419
6.91759e-07
0.00145537
-1.30547e-06
0.00145415
-1.12811e-06
0.00144916
2.646e-06
0.00144689
1.84604e-06
0.00145229
-2.79754e-06
0.00145559
-1.36116e-06
0.0014602
-9.36061e-07
0.00146094
4.51231e-07
2.78075e-06
0.00147589
-4.31713e-06
0.00147515
-2.1291e-06
0.00146785
2.29646e-06
0.00146619
5.94465e-07
0.00146838
-1.45212e-06
0.00146141
1.24136e-06
0.00145238
3.16134e-06
0.00144745
2.32468e-06
0.00145145
-5.24104e-07
0.0014567
-6.69122e-07
0.00146643
-8.14496e-07
0.00147549
-9.57209e-07
0.00148205
-2.47602e-07
0.00148406
4.32417e-07
0.00148225
1.61943e-06
0.00147677
3.29689e-06
0.00147238
3.30826e-07
0.00147327
-1.79696e-06
0.00146939
3.47733e-06
0.00146072
5.10323e-06
0.00145601
2.16415e-06
0.00145402
-1.81301e-07
0.0014568
-9.34909e-07
0.00145562
5.50642e-07
0.00144945
2.81921e-06
0.00144964
1.26873e-06
0.00145561
-2.69063e-06
0.00145761
-3.91259e-06
0.00145766
4.74229e-07
0.00145623
2.31034e-06
0.00145987
-1.56079e-06
-6.19833e-06
0.00146487
3.72099e-07
0.00146189
1.96383e-06
0.00145747
1.51691e-06
0.00145274
1.21029e-06
0.00145129
-2.17296e-06
0.00145467
-4.57414e-06
0.00145823
-3.26086e-06
0.00146096
-1.63883e-06
0.00146618
-1.50808e-07
0.00146863
2.04909e-06
0.001469
-5.74907e-07
0.00147071
-4.04422e-06
0.00147291
-3.1846e-06
0.0014727
-8.37865e-07
0.00147229
-3.87157e-07
0.0014729
8.38681e-07
0.00147055
1.81695e-06
0.00146804
1.39963e-08
0.00147574
-3.59949e-06
0.00148827
-4.38263e-06
0.00149436
-2.23747e-06
0.00149512
-6.79988e-07
0.00149341
3.23735e-06
0.00148734
7.05884e-06
0.00148183
7.38998e-06
0.00147719
4.10256e-06
0.00146742
2.19971e-06
0.00146159
2.21236e-07
0.0014658
-1.02428e-06
0.00147009
-4.9096e-07
0.00146781
3.1484e-07
-1.79414e-06
0.00147447
-5.1228e-06
0.00148205
-2.90725e-06
0.00148452
-3.87727e-07
0.00148437
7.56017e-07
0.00148201
-2.5629e-07
0.00148061
-3.60891e-06
0.00147639
-4.04952e-06
0.00146803
1.56587e-06
0.0014605
5.72633e-06
0.00146613
1.79207e-07
0.0014765
-4.73378e-06
0.00147755
-1.58631e-06
0.0014795
-1.44746e-06
0.00148223
-6.42699e-07
0.00148059
1.89382e-06
0.00147908
1.7684e-06
0.00148026
1.73306e-07
0.00147756
-9.25467e-07
0.00146789
4.57673e-07
0.00146217
-2.63373e-06
0.00145987
-3.71549e-06
0.00145769
-1.26165e-06
0.00145782
2.84603e-06
0.0014626
4.6851e-06
0.00146904
3.1942e-06
0.00147254
2.35102e-06
0.00147383
2.39072e-06
0.00147111
3.99404e-06
0.00146606
3.70676e-06
0.00146438
2.22996e-06
0.00146668
2.66611e-08
-2.7928e-06
0.00147327
1.74652e-06
0.00147079
2.61296e-07
0.00147031
-1.23055e-06
0.00146807
1.03896e-06
0.0014666
3.37865e-07
0.00146299
-1.50944e-06
0.00145336
7.5269e-07
0.00144685
4.79373e-06
0.0014505
3.77771e-06
0.00144758
3.62022e-06
0.0014397
1.95966e-06
0.00143678
3.94728e-07
0.00143578
-5.70448e-07
0.00143563
-8.72715e-07
0.00144638
-6.94356e-06
0.00146353
-1.19729e-05
0.00146903
-5.0169e-06
0.0014659
-2.67862e-06
0.00146321
-4.20182e-09
0.00145853
6.48499e-07
0.00145128
1.74675e-06
0.00144468
5.16928e-06
0.00144072
8.34733e-06
0.00144313
3.04508e-06
0.00144816
-2.30766e-06
0.00145171
-2.65784e-06
0.00145287
-7.33635e-07
0.00145613
8.81622e-07
0.00146339
2.78149e-07
0.00147182
-3.18078e-06
0.00147765
-3.04452e-06
-1.66001e-06
0.00146905
3.61901e-06
0.00147183
-4.34816e-07
0.0014684
2.2772e-06
0.00146312
4.50639e-06
0.00146422
3.55389e-07
0.0014638
1.51445e-06
0.00146097
2.11477e-06
0.00146943
-1.05804e-06
0.00147688
-1.94962e-06
0.00147891
5.29316e-09
0.0014817
1.22989e-06
0.00148131
3.7702e-06
0.00147499
4.03846e-06
0.00146856
-8.31371e-07
0.00146292
-5.71752e-06
0.00145376
-3.63434e-06
0.00145154
-3.85265e-06
0.00145607
-7.64593e-06
0.00146396
-6.80019e-06
0.00146683
-1.21747e-06
0.00146174
6.05405e-06
0.00146608
1.27625e-07
0.00148393
-3.8658e-06
0.00149604
-3.50347e-06
0.00150207
-4.52618e-06
0.00150622
-4.78656e-06
0.00150877
-2.31572e-06
0.00150603
4.77929e-06
0.00149926
6.4128e-06
0.00149028
1.11341e-06
0.00148101
-6.93149e-07
2.72433e-06
0.00148253
3.40645e-06
0.00147479
7.77592e-06
0.00145978
8.71035e-06
0.0014567
3.3706e-06
0.0014621
-3.1553e-06
0.00146781
-1.12945e-06
0.0014687
2.43722e-06
0.00146902
8.32457e-07
0.00146837
-5.97273e-07
0.00146437
-1.08758e-06
0.00146412
-1.28142e-06
0.00147026
3.01945e-07
0.001475
8.75433e-07
0.00147113
7.98095e-08
0.00146422
-1.48738e-06
0.00145946
1.22583e-06
0.00145646
1.29686e-06
0.00145246
-2.55401e-06
0.00145031
-5.30622e-06
0.00145589
-7.1901e-06
0.00146685
-3.52489e-06
0.00146652
-2.41729e-07
0.0014595
5.21067e-07
0.00146032
-4.22251e-06
0.0014589
-3.3854e-06
0.00145203
1.4212e-07
0.00144716
-4.24121e-07
0.0014535
-1.72399e-06
0.00146704
-3.26882e-06
0.0014711
-6.10968e-07
0.00147019
1.1721e-06
8.01826e-07
0.00144896
0.00146114
0.00146766
0.00147088
0.00147055
0.00147104
0.0014748
0.00147734
0.00147589
0.00147309
0.00147341
0.00147679
0.00147595
0.00147263
0.00147191
0.00147675
0.00148135
0.00148043
0.00147485
0.00146716
0.00146483
0.00146591
0.00146383
0.00145534
0.0014484
0.0014466
0.00144494
0.0014425
0.00143963
0.00143918
0.00143822
)
;

boundaryField
{
    wall
    {
        type            calculated;
        value           nonuniform List<scalar> 
384
(
1.84366e-09
-3.87172e-09
9.72418e-08
0
4.44379e-08
5.45839e-08
5.43788e-10
4.51236e-17
1.44492e-08
8.14785e-09
4.37284e-08
-2.64642e-39
3.06133e-08
-4.61626e-10
2.32066e-08
-8.65594e-10
9.32139e-09
2.3214e-08
4.90277e-08
1.70492e-09
3.90869e-08
1.28101e-08
6.26486e-08
3.07855e-08
9.98553e-09
7.63962e-08
4.42075e-08
-6.52101e-09
1.08894e-10
2.18443e-08
1.82477e-08
9.38264e-09
-1.89143e-11
1.04114e-08
-2.98809e-08
-5.96743e-09
4.64781e-08
8.79756e-09
2.61047e-08
4.13839e-09
9.07575e-08
1.30368e-07
2.66069e-08
2.05868e-08
4.19895e-10
-4.06698e-09
1.09121e-09
2.48028e-10
3.30665e-08
1.12211e-07
6.35429e-08
7.42491e-08
1.36742e-07
4.1678e-08
9.23898e-08
7.53932e-09
2.7695e-08
-1.69812e-09
9.17144e-09
4.60525e-08
3.2534e-08
9.15858e-08
1.67577e-08
9.79153e-11
7.03984e-09
3.8224e-08
5.34508e-09
1.25426e-08
4.34741e-08
5.76092e-09
2.79509e-08
1.17589e-08
3.72086e-08
2.9616e-08
1.12041e-07
-2.38865e-08
4.38822e-08
1.85234e-08
3.05428e-08
1.97258e-09
3.4886e-08
4.18749e-10
-5.97212e-09
9.99444e-09
5.45397e-08
2.01258e-09
2.04101e-08
-1.70732e-09
8.99931e-09
4.22944e-08
-1.24307e-09
3.12793e-08
2.04458e-08
-4.49107e-10
1.01724e-08
3.4997e-09
1.84036e-08
1.43297e-08
3.0105e-08
5.44629e-10
6.40656e-08
6.88814e-08
1.24245e-09
1.096e-08
5.42729e-08
9.08282e-09
1.10179e-08
-5.93439e-10
-1.89349e-08
1.44291e-08
-3.76291e-09
1.57543e-08
4.37944e-09
2.52826e-08
9.81075e-09
2.75614e-08
4.99685e-08
3.63596e-08
1.50286e-08
1.31525e-08
-1.13701e-08
2.5112e-08
3.27561e-08
2.27251e-08
7.48727e-08
4.96613e-08
3.91242e-08
7.12961e-16
-2.39604e-09
1.40222e-08
-1.45647e-08
5.11544e-10
-4.09454e-17
2.92619e-08
1.57734e-08
5.98781e-08
1.26906e-07
4.81488e-08
1.38175e-08
2.58668e-08
4.1667e-08
4.67507e-10
1.97613e-08
5.81278e-09
2.05872e-09
4.49962e-08
7.99238e-09
3.11707e-08
2.44302e-08
-8.82898e-09
8.83681e-09
-7.11944e-10
1.39376e-08
2.91105e-08
7.39978e-09
5.50112e-08
3.16199e-08
8.75954e-08
5.23467e-08
-6.264e-09
6.52726e-09
2.49749e-08
1.267e-08
1.61813e-09
5.56139e-08
-6.28016e-10
4.6822e-10
1.44877e-08
2.66927e-08
1.06763e-08
1.33549e-08
1.28472e-07
4.43075e-08
0
5.71733e-09
9.66717e-09
8.63719e-09
4.5711e-08
3.15174e-08
4.14799e-08
-1.78474e-08
1.07497e-08
3.02171e-08
2.85092e-08
-4.83225e-09
6.13169e-39
8.14288e-08
4.28743e-10
1.3613e-08
2.04197e-08
2.16223e-08
-2.21589e-09
5.90711e-09
7.71089e-08
2.67419e-08
1.24273e-08
2.01172e-08
2.56607e-08
-3.1266e-10
1.33902e-08
1.45547e-08
3.96889e-09
3.53129e-08
2.21983e-08
2.73224e-08
-6.4352e-10
6.02049e-08
2.3771e-08
2.89162e-08
3.89006e-10
2.58638e-08
1.5551e-08
5.46045e-08
0
2.3471e-08
4.82958e-09
2.23566e-08
8.68552e-08
7.22924e-08
4.12897e-08
1.44642e-08
-1.32277e-08
1.40681e-08
3.44058e-08
6.63114e-08
3.5716e-08
-1.49627e-09
8.90785e-09
4.5927e-09
4.73439e-08
0
3.80915e-08
1.78172e-08
1.47994e-08
-1.43942e-11
5.81281e-08
5.99097e-08
6.87028e-09
2.64039e-08
-5.75579e-09
2.36122e-08
1.84011e-08
5.82801e-08
6.56614e-08
2.77805e-08
1.21526e-07
7.24533e-09
-1.45458e-09
2.5031e-08
5.8909e-08
3.76502e-08
5.53436e-08
2.42635e-08
-3.88402e-09
2.07361e-08
5.56178e-08
0
4.49848e-12
5.97421e-13
8.74636e-11
2.19374e-11
2.42822e-11
0
3.30825e-10
0
-1.02984e-12
0
-2.29547e-09
0
3.3492e-10
0
1.03113e-08
0
4.70551e-10
0
-1.23871e-10
0
-4.38046e-10
0
-1.3754e-11
0
-1.57944e-10
0
-2.69054e-10
0
7.86943e-11
0
9.24655e-11
7.16908e-13
-9.63772e-11
0
1.03572e-10
0
-1.0665e-12
0
-1.11206e-11
0
-1.11099e-10
0
-3.59946e-10
0
-2.05737e-10
0
-2.08722e-10
0
4.39026e-11
1.33371e-10
4.38727e-10
0
1.25432e-08
0
-3.17911e-12
0
-2.33315e-10
0
-1.01881e-10
0
-9.64639e-11
0
-2.77453e-10
0
-1.04973e-09
0
-3.70575e-11
0
1.16345e-08
-5.04234e-10
-1.43068e-10
0
-5.08567e-11
0
-1.78336e-10
0
2.71734e-10
0
-4.18942e-10
0
-2.09703e-09
0
1.87311e-08
0
1.55883e-10
0
7.01121e-13
8.99066e-11
2.10954e-10
0
7.72536e-09
0
4.56486e-11
0
-6.51339e-13
0
-3.83299e-10
0
-2.08661e-11
0
-1.70714e-15
0
2.86749e-08
0
-3.42998e-10
0
1.22597e-08
0
7.00107e-11
0
3.10229e-09
0
-4.41231e-11
-5.57414e-14
-3.05505e-09
0
-8.56247e-11
0
-4.07552e-10
3.35055e-11
2.39694e-10
0
2.49025e-10
0
1.7477e-08
0
1.34801e-08
)
;
    }
    outlet
    {
        type            cyclic;
        value           nonuniform List<scalar> 
16
(
0.00154595
0.00157861
0.00157375
0.00156135
0.00157138
0.00156566
0.00156753
0.00154743
0.00145762
0.0014703
0.00146467
0.00146817
0.00147862
0.00147038
0.00147477
0.0014386
)
;
    }
    inlet
    {
        type            cyclic;
        value           nonuniform List<scalar> 
16
(
-0.00154595
-0.00157861
-0.00157375
-0.00156135
-0.00157138
-0.00156566
-0.00156753
-0.00154743
-0.00145762
-0.0014703
-0.00146467
-0.00146817
-0.00147862
-0.00147038
-0.00147477
-0.0014386
)
;
    }
    procBoundary3to2
    {
        type            processor;
        value           nonuniform List<scalar> 
256
(
-2.39604e-06
-2.17717e-06
-3.80921e-07
1.32001e-06
3.00692e-06
3.53665e-06
8.09757e-06
5.98373e-06
-3.9671e-06
-2.93828e-06
-5.25672e-06
-7.12741e-06
-3.50227e-06
9.05289e-07
2.8769e-06
1.00025e-06
2.68309e-07
2.01109e-06
2.33498e-06
3.06066e-06
3.20003e-06
7.9916e-07
-2.88794e-06
3.48352e-07
3.37428e-06
2.77948e-06
1.40467e-06
-1.29052e-07
-1.08042e-06
-3.20798e-06
-4.18549e-06
-4.44379e-06
-4.73059e-06
-2.3564e-06
1.11325e-06
1.13444e-06
2.58342e-06
5.76725e-06
5.97259e-06
2.74732e-06
-2.77624e-06
-3.13197e-06
-4.41295e-06
-6.33258e-06
-4.05654e-06
-2.50726e-07
1.22975e-07
1.30548e-06
1.52423e-06
1.3373e-06
1.71794e-06
1.47452e-06
2.07071e-06
1.129e-06
-1.71321e-06
2.39828e-07
2.20655e-06
1.32412e-06
-9.84977e-07
1.3223e-06
9.98038e-07
-1.40452e-06
-3.56056e-06
-4.05262e-06
-5.93045e-06
-1.04144e-06
6.2299e-06
5.40257e-06
2.99851e-06
2.07566e-06
3.60487e-06
1.90694e-06
-6.37241e-06
-6.89839e-06
-2.16902e-06
-1.34779e-06
6.03449e-09
3.0673e-06
3.13126e-06
1.12273e-06
-4.96761e-07
7.83924e-07
3.21601e-06
3.45489e-06
1.96977e-07
-1.22961e-06
-1.84971e-06
-8.04055e-07
-1.97189e-07
-2.4682e-07
7.53116e-07
1.74562e-06
1.72376e-06
-1.20307e-06
-3.22991e-06
-3.0075e-06
-2.18084e-06
-3.17934e-07
5.39802e-07
2.18397e-07
7.6126e-07
1.30022e-06
5.76522e-06
5.23287e-06
-2.39431e-06
-3.35401e-06
-3.62435e-06
-5.20447e-06
-5.04963e-06
-2.81442e-06
-5.61994e-07
1.30785e-06
1.37345e-06
8.71897e-07
1.73635e-06
3.08757e-06
1.45153e-06
8.91051e-08
-2.72937e-07
5.38054e-07
2.13662e-07
2.33249e-06
1.62767e-06
1.11525e-06
7.13976e-07
-2.20706e-07
-1.56822e-06
-2.83822e-06
-3.54934e-06
-1.8212e-06
-2.02123e-06
-1.57472e-07
5.56603e-07
6.22946e-07
5.25001e-06
5.65082e-06
-1.12641e-06
-2.68655e-06
8.17586e-07
-2.48678e-07
-4.71631e-06
-3.66063e-06
-5.20835e-07
2.53977e-06
2.42444e-06
2.77744e-06
2.64304e-06
2.64905e-06
2.76471e-06
1.54801e-06
4.56058e-07
1.04594e-06
1.52784e-06
7.27608e-07
1.65593e-06
5.11996e-07
-8.54707e-07
-4.3068e-06
-5.23323e-06
-5.54261e-06
-6.67986e-06
-1.68389e-06
1.87736e-06
3.12927e-06
-9.92908e-07
-2.51024e-06
3.26773e-06
4.85881e-06
-2.42199e-06
-5.24825e-06
-7.73262e-07
-1.45261e-06
-1.76496e-06
2.13381e-06
3.39487e-06
8.23393e-09
-4.96618e-07
5.16647e-09
5.15847e-07
-7.4461e-07
-8.53664e-07
-4.71763e-07
-2.19019e-06
-2.80579e-06
-1.85228e-06
-1.17559e-06
1.81497e-06
2.27298e-06
3.07322e-06
3.28981e-06
-4.20703e-08
-5.83611e-06
-6.2401e-06
-7.82169e-07
3.64603e-06
3.2923e-06
-2.542e-06
-2.54974e-06
-6.80375e-07
1.48145e-07
-8.93353e-07
8.44046e-07
9.75535e-07
1.77423e-06
2.14166e-06
6.33615e-07
3.15079e-07
-1.94827e-06
-2.90831e-06
-2.15354e-08
1.34242e-06
1.82169e-06
4.84153e-07
1.25191e-06
1.73137e-07
-7.84911e-07
1.20749e-06
1.10839e-06
-2.09022e-07
-1.38607e-06
-3.18568e-06
-1.11586e-06
1.41729e-06
-2.89614e-06
-3.57818e-06
-6.75625e-07
4.36055e-06
2.02245e-06
-1.36897e-06
-4.41473e-06
-3.64855e-06
-4.08112e-07
1.96529e-06
6.61469e-07
-6.43551e-07
1.34348e-06
1.55933e-06
1.57493e-06
5.136e-07
-2.82298e-06
-5.43624e-06
-2.93466e-06
1.4993e-06
7.08095e-07
7.19687e-07
1.90588e-06
1.50055e-06
1.2477e-06
7.11809e-07
2.09189e-06
1.39632e-06
3.95978e-07
1.79686e-07
2.13172e-06
3.21585e-06
-2.85493e-07
)
;
    }
}


// ************************************************************************* //
