/*--------------------------------*- C++ -*----------------------------------*\
| =========                 |                                                 |
| \\      /  F ield         | OpenFOAM: The Open Source CFD Toolbox           |
|  \\    /   O peration     | Version:  2506                                  |
|   \\  /    A nd           | Website:  www.openfoam.com                      |
|    \\/     M anipulation  |                                                 |
\*---------------------------------------------------------------------------*/
FoamFile
{
    version     2.0;
    format      ascii;
    arch        "LSB;label=32;scalar=64";
    class       volVectorField;
    location    "0.01";
    object      U;
}
// * * * * * * * * * * * * * * * * * * * * * * * * * * * * * * * * * * * * * //

dimensions      [0 1 -1 0 0 0 0];

internalField   nonuniform List<vector> 
512
(
(9.95573 -0.00975667 0.0109806)
(9.95593 -0.00466022 0.0128048)
(9.96301 0.00440689 -0.00155324)
(9.95819 -0.0217331 -0.0272968)
(9.95039 -0.0189517 -0.0351013)
(9.94652 -0.00642545 -0.0404392)
(9.95303 0.00742919 -0.0255244)
(9.98942 -0.00194685 -0.0156697)
(10.0097 -0.00837908 0.0151632)
(9.99746 -0.00779092 0.0185824)
(9.9793 -0.00191949 0.0439832)
(9.96972 0.0132724 0.0369653)
(9.97609 0.0327521 -0.00781672)
(9.98084 0.0089716 -0.0300457)
(9.97475 -0.000391806 -0.0251629)
(9.97833 0.00301691 -0.00926852)
(9.96892 0.00147551 -0.0060341)
(9.96413 -0.00120066 -0.0024473)
(9.97627 -0.00280197 -0.00810391)
(9.98163 0.00337354 -0.018814)
(9.9834 0.0170225 -0.0224354)
(9.9639 0.0154424 -0.00345522)
(9.95121 0.0104206 0.0179116)
(9.96613 0.00286508 -0.00946357)
(9.9608 -0.000414744 -0.03186)
(9.94325 0.00412484 -0.0221134)
(9.94765 0.00435012 -0.0102551)
(9.96441 0.00551619 0.000616271)
(9.94352 0.00493484 0.00153252)
(9.91874 0.000544051 0.0184303)
(9.94547 0.0003877 0.0148846)
(9.96788 -0.00837923 0.00493032)
(10.1628 -0.00311471 0.0268704)
(10.173 0.0102245 0.0178884)
(10.1927 0.0267819 -0.00621372)
(10.1841 0.0044613 -0.00696553)
(10.1555 -0.0201578 -0.00610433)
(10.143 0.00485226 -0.0457392)
(10.136 0.00419963 -0.0407806)
(10.1412 -0.00510318 -0.0248799)
(10.1722 -0.0153855 0.0121787)
(10.1674 -0.0142443 0.0205439)
(10.169 -0.00706152 0.0412364)
(10.167 0.00636889 0.0489873)
(10.1809 0.00430356 0.0293995)
(10.1423 -0.00132733 0.00138313)
(10.1432 0.00620991 -0.00904506)
(10.1448 0.0035048 -0.0231905)
(10.1364 -0.0156634 -0.022899)
(10.1226 -0.0103582 0.00134568)
(10.1225 -0.00196084 0.00228329)
(10.1529 -0.0140798 -0.01454)
(10.1536 -0.0175307 -0.0187898)
(10.1412 -0.0106145 -0.0174938)
(10.1555 -0.00685563 -0.00807965)
(10.1665 -0.00905515 -0.0110833)
(10.1506 -0.0144014 -0.0227953)
(10.1241 -0.0192018 -0.0181206)
(10.1242 -0.014962 0.00892252)
(10.1219 -0.0112475 0.00380917)
(10.114 -0.00115358 0.000283532)
(10.1283 0.017435 0.0160075)
(10.1619 0.0240782 0.0122112)
(10.1621 0.00778163 0.0167321)
(10.1357 0.0016143 0.0373048)
(10.1422 0.00758399 0.0106613)
(10.1315 0.0321727 -0.0589316)
(10.1467 0.043566 -0.0563242)
(10.1448 0.0164537 -0.0272655)
(10.0994 0.000690408 -0.0171752)
(10.1148 0.00681582 -0.0144175)
(10.135 0.0109039 -0.0081768)
(10.1848 -0.0147334 0.0600356)
(10.1849 -0.0116709 0.0602634)
(10.1521 0.0105746 0.00913837)
(10.1543 0.0129647 -0.00431293)
(10.1607 0.0136433 -0.0115706)
(10.157 -0.00199455 -0.0165977)
(10.1566 -0.00873693 -0.0159024)
(10.1581 -0.00282237 -0.0167358)
(10.1671 -0.00368882 -0.00981711)
(10.1459 0.00260292 -0.00646833)
(10.148 -0.000876473 -0.000850973)
(10.1464 -0.017772 0.0124595)
(10.1423 -0.0322456 0.0240366)
(10.1097 -0.0126116 0.015859)
(10.1033 0.00171599 0.0225636)
(10.1148 0.0155193 0.00408945)
(10.1238 0.023448 -0.00608646)
(10.1252 0.00368879 -0.00617305)
(10.1266 -0.0139283 -0.0129668)
(10.1062 -0.00871754 -0.0193403)
(10.0956 -0.00351109 -0.0101395)
(10.1227 -0.00208989 -0.000774785)
(10.1641 -0.0295662 -0.00194797)
(10.1618 -0.030778 0.00189398)
(10.1866 -0.00225097 -0.000661376)
(10.171 -0.0116127 0.00190292)
(10.1373 -0.0116425 -0.00375079)
(10.1292 -0.00873682 -0.00634133)
(10.1306 -0.0205472 -0.00112805)
(10.1315 -0.0286934 0.00602333)
(10.1136 -0.0193488 -0.0383567)
(10.1058 -0.0187745 -0.0560368)
(10.1607 -0.00176486 -0.00799473)
(10.1425 0.00732705 0.0169537)
(10.124 0.0151646 0.0344154)
(10.1468 0.00936924 0.0361972)
(10.1742 0.0134744 0.0380004)
(10.2034 0.0227012 0.028849)
(10.1718 0.00420704 0.0106747)
(10.1374 -0.014788 -0.00779868)
(10.1492 -0.00951649 -0.0121478)
(10.1867 0.0060026 -0.0148965)
(10.1876 0.00603446 -0.0283721)
(10.1822 0.0117709 -0.0271235)
(10.1839 0.0113911 -0.0223074)
(10.1551 -0.00477444 -0.00927067)
(10.1522 -0.00375901 -0.000101423)
(10.1568 -0.00209163 0.00500521)
(10.1518 -0.00951458 0.0071977)
(10.0999 -0.00197107 0.00116372)
(10.0902 0.0110447 0.00412652)
(10.1111 -0.00127879 0.0034833)
(10.1237 -0.00855759 -0.00437093)
(10.0817 -0.00210203 0.00191818)
(10.0971 0.00230297 0.0121199)
(10.1687 0.00425731 -0.000271127)
(10.1414 -0.00960907 0.0160927)
(10.1431 -0.00270669 0.00556213)
(10.1354 0.0177882 -0.0056201)
(10.1311 0.0189804 -0.0128575)
(10.1055 0.0156947 -0.00750408)
(10.1093 0.0110322 -0.00648856)
(10.1232 -0.027691 -0.0396983)
(10.1401 -0.0463548 -0.0348485)
(10.1598 -0.014394 -0.000291419)
(10.1298 0.0534533 -0.00177392)
(10.1319 0.0496271 -0.00726544)
(10.1551 -0.0190047 0.0046066)
(10.1696 -0.0128076 0.00840902)
(10.1968 0.0178245 0.0079202)
(10.1648 -0.0014576 0.0034843)
(10.1309 -0.0231789 0.00151463)
(10.1481 -0.0238516 -0.00240366)
(10.1824 -0.0110746 -0.0237359)
(10.1912 -0.0121484 -0.0209977)
(10.1325 -0.0126821 -0.00997877)
(10.1411 -0.0102343 -0.0104662)
(10.1432 -0.000166611 -0.00287952)
(10.0809 0.0252533 0.00255545)
(10.0802 0.0266813 0.00286522)
(10.0776 0.0156071 -2.43644e-05)
(10.0976 -0.00225917 -0.000875177)
(10.1052 -0.0035172 -0.012756)
(10.1325 -0.02278 -0.00845599)
(10.1566 -0.0439246 0.00864201)
(10.1645 -0.0228389 0.024557)
(10.1591 -0.00602497 0.0267253)
(10.1401 -0.00199557 0.0254285)
(10.1743 -0.0145583 0.0217073)
(10.1886 -0.00950286 0.0206799)
(10.1509 0.00924081 -0.00115708)
(10.1395 0.0350666 -0.0194215)
(10.1307 0.0236584 0.00445142)
(10.1342 0.00682657 0.0301372)
(10.0939 0.011116 -0.0140291)
(10.115 0.00488735 -0.0324432)
(10.1218 -0.00535281 0.00456694)
(10.1368 -0.00224246 0.0093004)
(10.1329 -0.00179649 0.0190393)
(10.1437 -0.00248036 0.0287713)
(10.1389 0.00780132 0.0047712)
(10.1432 0.0373505 -0.044162)
(10.1486 0.0335508 -0.0491718)
(10.1411 -0.0242594 -0.0128451)
(10.1429 -0.0440342 -0.00429665)
(10.1597 -0.0239674 -0.00584532)
(10.1541 -0.00323734 -0.00607645)
(10.1432 -0.00248651 0.00789441)
(10.1425 -0.00517725 0.00219097)
(10.153 0.0219544 -0.00270687)
(10.164 0.0180395 0.0198746)
(10.1694 0.00606891 0.0296405)
(10.1051 -0.00827561 0.0194113)
(10.1041 -0.0141755 0.0106538)
(10.1713 -0.0194509 -0.00644271)
(10.1743 -0.0216403 -0.0013867)
(10.1036 0.0123587 -0.0143363)
(10.0608 0.0252232 -0.0416171)
(10.0941 0.00666197 -0.0410388)
(10.1414 -0.0201884 -0.0206874)
(10.1388 -0.00237377 0.051798)
(10.1601 0.00659988 0.00850819)
(10.1418 0.00176981 -0.0487655)
(10.1267 -0.00894827 -0.0436718)
(10.1375 -0.00765264 0.00115367)
(10.1483 0.0142234 0.0213215)
(10.1666 0.0284656 -0.000709797)
(10.1746 0.0268334 -0.00761282)
(10.1761 -0.00692632 -0.003457)
(10.1629 -0.0492075 -0.0322949)
(10.1539 -0.0330404 -0.0212193)
(10.147 0.0099445 0.00722351)
(10.1655 0.0203246 0.00322368)
(10.1665 0.00896108 -0.0191515)
(10.147 0.0141238 -0.026927)
(10.1668 0.0182463 -0.00505586)
(10.1423 -0.00810907 0.0277511)
(10.1149 -0.0406584 0.0199768)
(10.1087 -0.0364497 0.0143021)
(10.0992 -0.00209658 0.0132636)
(10.1006 0.00179216 0.0129771)
(10.1172 0.00486091 -0.00470899)
(10.1463 0.00403531 -0.0121029)
(10.1422 0.0070452 -0.0060778)
(10.1293 -0.0234112 -0.00757779)
(10.1422 -0.0309534 -0.00963111)
(10.1446 0.00143909 -0.0131553)
(10.1281 0.0160006 -0.0129831)
(10.1374 0.0267087 0.00772879)
(10.1559 0.044974 0.0119133)
(10.1342 0.0319793 0.0148775)
(10.1314 0.0155714 0.0344136)
(9.97494 -0.000901674 0.0283543)
(9.97071 0.00804642 0.027821)
(9.94254 0.0133581 -0.0205083)
(9.91025 0.00856596 -0.0102025)
(9.91855 0.0162513 0.0191153)
(9.95414 0.00928943 0.0280485)
(9.9646 -0.00902117 0.0205567)
(9.96993 -0.00938604 0.0168276)
(9.99629 0.000674417 0.00103165)
(9.9948 0.00372229 -0.00875947)
(9.96001 0.0255379 -0.00193646)
(9.95593 0.0357869 0.00559941)
(9.98457 0.025631 -0.0171431)
(9.99446 0.0156672 -0.0270448)
(9.99013 0.00165405 -0.00426504)
(9.99646 0.00678669 0.0248656)
(9.9975 0.0148125 0.0327623)
(9.99535 0.00925657 0.0189791)
(10.003 0.0014235 0.00160954)
(9.96193 -0.0109015 0.00514491)
(9.93015 -0.019885 0.00455112)
(9.95155 -0.0280807 -0.00170665)
(9.96638 -0.0139108 -0.0146221)
(9.94094 0.0172679 -0.0305472)
(9.94915 0.0240015 -0.0280123)
(9.96262 0.0254757 -0.0182863)
(9.94945 -0.00107759 -0.0116893)
(9.94968 -0.00593229 -0.0131261)
(9.93846 -0.00652765 -0.00121164)
(9.93894 -0.00446829 -0.000835824)
(9.94832 -0.00469767 -0.0148616)
(9.95981 -0.0145491 -0.00881824)
(9.46308 0.000490238 -0.00165963)
(9.45585 -0.0196698 0.0326101)
(9.51225 -0.012685 0.0353216)
(9.56919 -0.00621699 0.0212658)
(9.59309 -0.0059615 -0.0115073)
(9.4514 -0.00479123 -0.0123491)
(9.44394 -0.00431792 -0.0103439)
(9.45698 -0.00643421 -0.0318471)
(9.4654 -0.00506242 -0.0294519)
(9.47134 -0.016254 0.0136432)
(9.44509 0.0121477 0.0432732)
(9.48761 0.0314717 0.0508548)
(9.49611 0.0378033 0.0323275)
(9.50477 0.0363127 0.033953)
(9.52776 0.00899827 0.0138814)
(9.49863 -0.00179211 -0.00679174)
(9.49482 -0.00486701 -0.0186143)
(9.41547 0.00135018 -0.0138878)
(9.43447 0.00129424 -0.00234077)
(9.43703 -0.00802438 -0.00897494)
(9.43789 -0.0199719 -0.0244319)
(9.40817 -0.0154073 -0.0105403)
(9.35034 0.0048078 0.00690566)
(9.38049 0.00180801 0.00976789)
(9.44654 0.0148008 -0.00711156)
(9.4059 0.0305678 -0.0113337)
(9.39267 0.0307153 -0.00258733)
(9.4155 -0.0166755 0.0260192)
(9.37337 -0.0294666 0.034881)
(9.38631 -0.0332552 0.0367704)
(9.44954 -0.00651509 0.0126613)
(9.4292 0.0152324 -0.0150269)
(9.5834 -0.0127957 -0.0105053)
(9.54414 -0.0233378 -0.00143294)
(9.54822 -0.0220477 0.00051843)
(9.56599 -0.0214846 0.0234159)
(9.57996 -0.000178814 0.0026083)
(9.52963 0.0218249 -0.0270883)
(9.35723 0.0130121 -0.0154558)
(9.37521 0.00700184 0.00142019)
(9.46467 0.0129991 0.00274159)
(9.46249 0.010417 0.0102921)
(9.5034 0.00282637 0.0266755)
(9.54346 -0.00750038 0.0441739)
(9.54456 -0.00379101 0.0351347)
(9.58771 -0.00230401 0.0277775)
(9.6095 0.00120821 0.0263755)
(9.61929 0.00730644 0.0205125)
(9.59294 -0.0075675 -0.0231181)
(9.53227 -0.0101201 -0.0154528)
(9.51589 0.0124253 -0.0112776)
(9.43391 0.0242987 -0.0271498)
(9.44339 0.0289933 -0.0487402)
(9.4369 0.020495 -0.0425821)
(9.39299 -0.00998343 0.0187627)
(9.44285 -0.0160514 0.0211265)
(9.36179 -0.0123881 0.00661136)
(9.30933 -0.000281752 0.00290405)
(9.39663 -0.0145344 0.0060773)
(9.43258 -0.0296104 0.00143465)
(9.39724 0.00358103 0.00922256)
(9.43136 0.0252261 0.0173736)
(9.4537 0.0197237 0.017742)
(9.54097 0.00828227 -0.00323975)
(9.49867 -0.0177365 0.010442)
(9.46854 0.00314419 -0.00371389)
(9.41438 0.0317755 -0.0194923)
(9.40443 0.0236497 -0.00496886)
(9.37198 -0.0103235 0.00326317)
(9.38803 -0.0122515 0.00129742)
(9.39692 0.00464079 -0.0192624)
(9.41222 0.00478944 -0.0179637)
(9.50192 -0.00570329 -0.000414606)
(9.47342 0.00199676 0.0133819)
(9.48335 0.000373388 0.0010772)
(9.47195 -0.00884833 -0.0041124)
(9.48109 -0.0106385 0.00375816)
(9.537 -0.00663033 0.00251805)
(9.52798 -0.00563731 -0.00440374)
(9.4882 0.00732932 -0.00246876)
(9.50922 0.0119742 -0.00108085)
(9.54758 -0.00809262 -0.00250156)
(9.64711 -0.00153062 -0.00268607)
(9.63352 0.0119405 0.0122443)
(9.64696 0.0066723 0.00817965)
(9.58744 -0.00378174 -0.00028602)
(9.60629 0.0130063 0.00114449)
(9.59201 0.0292308 -0.000109438)
(9.58506 0.0373692 -0.00637158)
(9.58997 0.0150381 -0.011999)
(9.53303 0.00199722 -0.0283335)
(9.45655 -0.00503515 -0.00274169)
(9.45779 -0.00220632 0.026325)
(9.50507 -0.00901923 0.030353)
(9.42712 -0.0292869 0.0137087)
(9.44305 -0.0608722 0.0140154)
(9.58284 -0.00487987 0.0117123)
(9.59567 0.00368955 0.0215826)
(9.58143 0.00821791 0.0185801)
(9.57725 0.00379553 0.00590808)
(9.6016 -0.0198188 0.00117867)
(9.52128 -0.0341147 -0.00275938)
(9.53314 -0.0305181 -0.00582002)
(9.50612 -0.00509841 -0.00627935)
(9.55558 0.0065443 -0.0175425)
(9.58161 -0.00791795 0.00646451)
(9.57736 -0.0280544 0.0246802)
(9.48863 -0.0266535 0.0189874)
(9.50455 -0.0189457 0.0162659)
(9.57578 0.000237915 0.0102146)
(9.57104 0.015397 0.00412995)
(9.51376 0.0216671 0.00269475)
(9.53006 0.0207965 0.00579426)
(9.55542 0.0166596 -0.00792606)
(9.52311 -0.006891 -0.0284669)
(9.39592 -0.0424188 -0.0296326)
(9.43196 -0.0417578 -0.0315132)
(9.35706 -0.0135265 -0.0288075)
(9.38343 0.00884571 -0.0160734)
(9.49183 0.0290788 0.00881699)
(9.52393 0.0346492 0.0135291)
(9.46478 0.0302321 0.0165073)
(9.48565 0.0171608 0.0193637)
(9.46578 0.00469176 0.0139915)
(9.48023 0.0010276 0.000127747)
(9.45476 0.00957807 0.00275838)
(9.46668 0.0212636 0.0149736)
(9.47552 0.0109139 0.0156737)
(9.50646 -0.0223423 -0.00131227)
(9.4926 -0.0245048 -0.00429396)
(9.50662 -0.0257178 -0.00883082)
(9.52385 -0.00535165 -0.012215)
(9.46398 0.00269945 -0.00759166)
(9.49465 -0.0253918 -0.0078228)
(9.40922 -0.0265091 -0.00516944)
(9.41855 0.00832162 -0.00362766)
(9.39722 0.047895 0.0176664)
(9.38319 0.0371052 0.0204287)
(9.31798 0.00100135 0.000189613)
(9.27746 -0.00535415 -0.0118928)
(9.3127 -0.00800253 -0.00628856)
(9.35105 -0.0136574 -0.0133125)
(9.37152 -0.0169397 0.00676278)
(9.39618 -0.0270993 0.0248711)
(9.47335 -0.0251896 0.010842)
(9.46881 -0.0211592 -0.00689835)
(9.46995 0.00617712 -0.00990637)
(9.46663 0.0106701 -0.00877783)
(9.46053 -0.00791488 -0.0108048)
(9.39919 -0.00330676 -0.00648379)
(9.36303 0.0449875 0.00559717)
(9.35053 0.038836 -0.00205586)
(9.35184 0.0116123 -0.00960908)
(9.37265 0.00838828 -0.0132575)
(9.35982 0.0228197 -0.0140193)
(9.35932 0.0371088 0.00173165)
(9.43451 0.0211656 0.0294351)
(9.43516 0.00132124 0.0363955)
(9.48556 -0.013036 0.0228329)
(9.47926 -0.0205679 0.00622058)
(9.53712 0.0242146 -0.0171632)
(9.53374 0.0117855 -0.00769858)
(9.5023 0.00827128 -0.0152925)
(9.49655 0.0186706 -0.0125897)
(9.4626 0.0124541 0.011655)
(9.45238 0.0187431 -0.00172644)
(9.49673 0.0290675 -0.0117246)
(9.5013 0.0169854 0.0473732)
(9.54099 0.00603895 0.0328148)
(9.51149 0.00662876 -0.00746399)
(9.51918 0.0191972 0.00425255)
(9.55827 0.0243223 0.0158509)
(9.54833 0.0182911 0.00294665)
(9.50672 0.00607561 -0.0183909)
(9.52672 -0.0312769 -0.00597474)
(9.42296 -0.0675 0.00934058)
(9.36922 -0.0448431 -0.00589365)
(9.43374 -0.0298237 -0.00539834)
(9.4605 -0.0150476 0.0106548)
(9.43623 0.005856 0.00388039)
(9.49285 0.0348128 -0.0138436)
(9.57706 0.0338634 -0.0240979)
(9.68519 0.0105685 0.0204853)
(9.67318 0.0106991 0.0267152)
(9.66557 -0.0225303 0.0234093)
(9.70056 -0.0411756 0.0168215)
(9.75626 -0.033257 0.0291222)
(9.74844 0.00197547 0.0234272)
(9.69259 0.0154474 0.0196374)
(9.64962 -0.0131151 0.00574085)
(9.60675 -0.0196525 -0.0144778)
(9.59008 -0.00644496 -0.0279735)
(9.6617 0.0302481 0.0124572)
(9.6323 0.0154418 0.013067)
(9.52478 0.0500537 -0.0191902)
(9.46751 0.0342795 -0.013136)
(9.43029 -0.0188977 0.0114502)
(9.45629 -0.0129058 0.010523)
(9.45523 0.00384785 0.0116709)
(9.45497 -0.0129977 0.0269639)
(9.49687 -0.0222965 0.0193341)
(9.49075 -0.0142553 -0.0175968)
(9.47734 -0.0135387 -0.0202063)
(9.49441 0.00290194 0.025337)
(9.53205 0.0135054 0.0305064)
(9.52847 -0.00516209 0.00936731)
(9.50345 -0.024545 0.00128152)
(9.48503 -0.00328639 0.00406507)
(9.46547 -0.0100061 0.0021994)
(9.39644 -0.0424673 -0.00465539)
(9.42161 -0.0597271 -0.0158675)
(9.43155 -0.0392953 -0.0192039)
(9.5414 0.010797 -0.00801267)
(9.53793 0.00474776 -0.00605878)
(9.4824 -0.0128508 -0.0162029)
(9.49251 -0.0529064 0.00478681)
(9.46699 -0.0522648 0.0105161)
(9.34055 -0.0224035 -0.000851486)
(9.36201 -0.00559387 -0.00963301)
(9.41365 0.0106823 0.00373192)
(9.49052 0.0201814 0.0304646)
(9.45895 0.0168749 0.0208389)
(9.53163 0.00700279 0.00106811)
(9.58639 0.0200521 -0.023689)
(9.44072 0.0067011 0.0331443)
(9.48619 0.0317391 0.0250821)
(9.47226 0.0322849 0.00240567)
(9.49663 0.0174552 0.00649132)
(9.52886 0.0042522 0.00608715)
(9.50306 0.00896536 0.00123063)
(9.46853 0.0178037 0.00124574)
(9.49511 0.0175717 -0.00015061)
(9.51834 0.00885535 -0.0101381)
(9.47892 0.00530869 -0.00846748)
(9.48546 0.00571888 0.00766293)
(9.55007 0.00503973 0.0211221)
(9.50512 0.00113681 0.00913162)
(9.51372 -0.00630908 -0.00217275)
(9.5069 -0.00747488 0.0088012)
(9.55314 0.0194225 0.0227553)
(9.53641 0.0315413 0.0136692)
(9.55312 0.0138397 0.00315799)
(9.57862 -0.0125689 -0.00331472)
(9.53242 -0.0295841 -0.013009)
(9.44508 -0.0383093 0.00029553)
(9.46459 -0.0263184 0.0136213)
(9.48203 -0.00319193 -0.000308205)
(9.46797 -0.00809563 -0.0114597)
(9.44975 -0.00706137 -0.0114712)
(9.3618 0.0170447 0.00029379)
(9.37428 0.00999115 0.00659946)
(9.32888 -0.00920198 0.0120523)
(9.36532 -0.0396009 0.000929644)
(9.35022 -0.0294495 -0.00519405)
(9.2958 0.0113926 -0.00632416)
(9.29055 0.00873545 -0.00254361)
)
;

boundaryField
{
    wall
    {
        type            fixedValue;
        value           uniform (0 0 0);
    }
    outlet
    {
        type            cyclic;
    }
    inlet
    {
        type            cyclic;
    }
    procBoundary3to2
    {
        type            processor;
        value           nonuniform List<vector> 
256
(
(10.0165 -0.00453763 0.0401512)
(10.0143 0.00355378 0.0239373)
(9.95228 -0.000835457 -0.00354407)
(9.93559 -0.0161407 -0.000995361)
(9.95054 -0.022405 0.000924919)
(9.95895 -0.0148816 0.000615402)
(9.95196 -0.0104894 -0.090882)
(9.94725 -0.0109578 -0.0710474)
(9.9583 -0.00948336 0.0346988)
(9.94713 -0.011844 0.0369807)
(9.9346 -0.00753887 0.0372083)
(9.93904 0.00851968 0.0454276)
(9.96063 0.0140912 0.0338171)
(9.96133 -0.000745307 0.000587983)
(9.92764 -0.00125388 -0.0151083)
(9.92388 0.00923382 -0.0118349)
(9.93324 0.0116179 -0.00319843)
(9.9564 -0.0172178 -0.0143245)
(9.96376 -0.0130654 -0.0148042)
(9.97624 0.00260715 -0.00672759)
(9.94525 0.0191875 -0.00567369)
(9.9327 0.0195931 0.000708842)
(9.93939 0.0109781 0.024389)
(9.97294 -0.00240248 0.010569)
(9.9678 -0.000638781 -0.00196389)
(9.95953 0.0161545 -0.0102209)
(9.97155 0.00168707 -0.00384221)
(9.99439 -0.00959031 0.00032419)
(9.95896 -0.00670654 0.00144109)
(9.9046 -0.0202286 0.00332772)
(9.92903 -0.0164152 0.0138112)
(9.98675 -0.00643212 0.0560692)
(10.1483 -0.0175463 0.0326826)
(10.1666 -0.0199976 0.0110928)
(10.204 0.0338934 -0.00772724)
(10.1983 0.0387038 -0.00633477)
(10.166 -0.00021478 -0.024846)
(10.1779 0.00134171 -0.0447641)
(10.1769 0.00471933 -0.0506392)
(10.1627 -0.0124032 -0.0156125)
(10.1777 -0.0233921 0.033657)
(10.1741 -0.0161301 0.0316165)
(10.1657 -0.00536171 0.0290535)
(10.1523 -0.00535606 0.0322133)
(10.1568 -0.00485564 0.0216062)
(10.1476 -0.0193396 -0.00166727)
(10.1394 -0.0240578 -0.000457963)
(10.1388 0.00117115 -0.00368359)
(10.1274 -0.00106378 -0.0018777)
(10.1141 -0.00379671 -0.0144589)
(10.1192 0.00330728 -0.0202882)
(10.1446 0.00417251 0.00475624)
(10.1452 0.0141878 0.0103429)
(10.136 0.0172838 0.0157976)
(10.1396 0.0206122 0.0280534)
(10.1603 0.00352202 0.00348359)
(10.1525 -0.00973553 -0.0128983)
(10.1263 0.00538395 -0.00396065)
(10.1356 0.0109353 0.00137685)
(10.1536 -0.00577628 -0.010562)
(10.1371 -0.00744842 -0.00488991)
(10.134 -0.0027641 0.00422289)
(10.1635 0.00475905 0.0302044)
(10.1549 -0.00357471 0.040408)
(10.166 -0.0120499 0.0433776)
(10.1791 -0.0136502 0.0182709)
(10.1792 0.0107472 0.00139214)
(10.1891 0.0351092 -0.0087021)
(10.1977 0.019097 -0.0215441)
(10.1953 0.00790483 -0.0254003)
(10.1818 0.0271375 -0.0350284)
(10.1798 0.017799 -0.00703675)
(10.1789 -0.0253111 0.0285601)
(10.172 -0.0332782 0.0238714)
(10.146 -0.000244781 0.0166403)
(10.1333 0.0213542 0.0155414)
(10.1419 0.0215772 0.00557568)
(10.1626 -0.00529472 -0.024897)
(10.1615 -0.0192983 -0.0228514)
(10.1375 -0.015601 0.00243352)
(10.1224 0.00222498 0.00988486)
(10.1429 0.0157744 -0.0130723)
(10.1479 0.00833143 -0.0355123)
(10.1431 -0.0114869 -0.0483968)
(10.1324 -0.0203324 -0.0353895)
(10.1056 -0.0190429 0.00181402)
(10.1178 -0.00657904 0.0135981)
(10.1812 0.0224361 0.0133704)
(10.1816 0.0182173 0.00836976)
(10.1509 0.00525829 0.00700504)
(10.1473 0.00500612 -0.00483681)
(10.1347 -0.00247155 -0.0109316)
(10.1162 -0.00472139 -0.00652953)
(10.1195 -0.00462194 0.0015384)
(10.1603 -0.0211306 0.0187756)
(10.1642 -0.0188379 0.04246)
(10.194 0.00202377 0.0241193)
(10.1908 -0.00496533 0.00604518)
(10.1413 -0.0108072 -0.0078548)
(10.1412 -0.00218538 -0.00311319)
(10.1696 -0.00182215 -0.0112417)
(10.1727 -0.00973994 -0.0326948)
(10.159 -0.000768318 -0.0441883)
(10.1665 0.00899149 -0.0229883)
(10.1867 -0.00498289 0.0255852)
(10.1654 -0.024262 0.0368848)
(10.1622 -0.00755829 0.0228927)
(10.1728 0.00687302 0.0227848)
(10.1775 0.00323531 0.0238754)
(10.1416 0.0036668 0.00588589)
(10.13 0.0133656 -0.00422408)
(10.1344 0.0215304 -0.00752801)
(10.1535 0.00990479 -0.00501406)
(10.1677 0.00506409 -0.00665925)
(10.1671 -0.0143113 -0.00981097)
(10.1662 -0.0157163 -0.0089236)
(10.1767 -0.00188772 0.00789667)
(10.1549 0.00295917 0.015216)
(10.1476 0.00614031 0.0151106)
(10.1711 0.00818976 -0.000427953)
(10.1713 0.00339908 -0.00384234)
(10.1314 -0.00838714 -0.0207358)
(10.1276 -0.00387079 -0.0259072)
(10.1319 -0.00394613 -0.027818)
(10.1283 -0.00431289 -0.0082715)
(10.129 0.00491339 0.00425897)
(10.1495 0.00990343 0.00371913)
(10.175 0.00796369 0.0248506)
(10.1553 -0.0124243 0.0344793)
(10.1765 0.00242896 0.0303157)
(10.1655 0.0129758 0.0287799)
(10.139 0.043123 0.0143425)
(10.1431 0.0181474 0.00401504)
(10.1487 -0.0215195 -0.00596796)
(10.141 -0.00468605 -0.0382679)
(10.141 0.015177 -0.0488592)
(10.1604 0.0294012 0.00598387)
(10.1564 0.0219207 0.0250616)
(10.1581 -0.0180659 -0.00748056)
(10.1592 -0.0227421 -0.0115733)
(10.1755 0.0171676 0.0399544)
(10.1947 0.0245743 0.0397158)
(10.1888 0.00493647 0.0191233)
(10.1459 -0.0228549 -0.0124415)
(10.1333 -0.0338791 -0.0363076)
(10.1522 -0.027531 -0.0276238)
(10.168 -0.0250841 -0.0234296)
(10.1732 -0.016932 -0.0252487)
(10.1844 -0.00534816 -0.01538)
(10.1659 0.0132102 -0.00529266)
(10.1495 0.0242629 0.00172826)
(10.1514 0.0212136 -0.00641139)
(10.1497 0.010714 -0.0132435)
(10.1326 -0.0177206 -0.0056134)
(10.1344 -0.00748286 0.00183302)
(10.1376 -0.00130101 0.00859143)
(10.1467 -0.00233343 -0.00143234)
(10.1549 0.00540155 0.00272304)
(10.1455 0.00703164 0.016495)
(10.1337 -0.00883235 0.0306632)
(10.1466 -0.0424847 0.059891)
(10.2099 -0.000863929 0.020623)
(10.1976 0.0161613 -0.00342595)
(10.1472 0.0432985 -0.021241)
(10.1565 0.0123871 0.00233043)
(10.1573 -0.0235983 0.0128295)
(10.1579 -0.0086018 -0.00317319)
(10.187 0.00979858 -0.017072)
(10.2048 0.00639971 -0.00113912)
(10.1851 0.0018478 0.0209904)
(10.1456 -0.0160148 -0.00153814)
(10.1448 -0.0207829 -0.00627257)
(10.1506 -0.0123044 0.00733058)
(10.1675 0.0549503 0.00314384)
(10.1706 0.0455752 0.00348026)
(10.169 -0.027062 0.0125963)
(10.1708 -0.0304512 0.00975934)
(10.1664 -0.0253611 0.00352894)
(10.1691 -0.0250568 -0.000533231)
(10.1781 -0.0155256 0.00289642)
(10.1566 0.0220743 0.0105606)
(10.1311 0.0359465 0.0186264)
(10.142 0.017118 0.0180493)
(10.1447 0.00159814 0.0121591)
(10.1339 -0.00238397 0.00607151)
(10.1462 0.00276329 0.00383529)
(10.1493 -0.00800788 -0.0220747)
(10.1431 -0.0187225 -0.0348153)
(10.1457 -0.026648 -0.0371583)
(10.1668 -0.0146196 -0.0056655)
(10.1685 -0.00254244 0.0132421)
(10.1304 -0.0248845 0.0407714)
(10.1504 0.0230065 0.0478397)
(10.1592 0.0209346 0.0114934)
(10.1433 0.0355569 -0.0211565)
(10.1196 0.0264149 -0.0116457)
(10.1324 -0.00945909 0.0118591)
(10.1709 -0.0205755 0.0234928)
(10.2063 -0.0203352 0.0238016)
(10.2012 -0.0202983 0.0138462)
(10.1827 -0.0100844 0.011823)
(10.1856 -0.00176861 0.014109)
(10.1905 0.00359737 0.00519604)
(10.1766 -0.0107015 -0.0329687)
(10.1692 -0.0184101 -0.0410775)
(10.1747 0.0183974 -0.00016995)
(10.187 0.03849 0.0140516)
(10.1677 0.0185349 0.017786)
(10.1114 -0.00396861 0.00755094)
(10.0872 -0.0111109 -0.0132116)
(10.0739 -0.0224331 -0.0381826)
(10.0859 -0.0301871 -0.0328442)
(10.155 -0.0269952 -0.00238743)
(10.1691 -0.00226157 0.00119491)
(10.1833 0.0109245 0.0101417)
(10.1867 0.00121931 0.0116265)
(10.1437 -0.00165082 -0.0173649)
(10.1434 -0.00169054 -0.0132692)
(10.1501 -0.00693182 0.00754366)
(10.1223 -0.0177778 0.0303096)
(10.1299 -0.0217794 0.0325556)
(10.1542 -0.0211088 0.00176091)
(10.1529 -0.0198337 -0.0269928)
(10.1391 0.00767084 0.0193224)
(9.97534 -0.016445 0.0166657)
(9.99893 -0.00884957 -0.018092)
(9.99312 0.00014306 -0.0406139)
(9.96589 0.0031722 -0.0205622)
(9.96815 0.0204393 0.00193148)
(9.97591 0.019288 0.021811)
(9.97152 0.00836053 0.0259633)
(9.96752 -0.00427335 -0.00373392)
(9.96432 -0.0184142 -0.0216316)
(9.97952 -0.0167499 0.0022467)
(9.99094 -0.0066509 0.0201472)
(9.97688 0.0192014 -0.0145834)
(9.9666 0.0213007 -0.0129189)
(9.95687 0.00174304 -0.00328192)
(9.96279 0.00238109 -0.00818329)
(9.97674 0.011794 -0.00691512)
(9.99695 0.0297076 0.0287407)
(9.99221 0.0226164 0.0208422)
(9.98193 0.020285 -0.0154806)
(9.97511 0.0049504 -0.0104548)
(9.96725 -0.0337461 -0.00613162)
(9.97845 -0.0223398 -0.0136309)
(9.97902 0.00387022 -0.0117422)
(9.96382 0.00864274 0.00788927)
(9.96368 0.0084274 0.0116112)
(9.95673 0.00243279 -0.0233096)
(9.94324 -0.000290535 -0.0251265)
(9.9119 -0.00545321 -0.00143059)
(9.93175 -0.0104485 0.0101481)
(9.98065 -0.00992834 -0.00778661)
(9.97605 -0.00958789 -0.0163817)
(9.95109 -0.0127536 0.0109115)
)
;
    }
}


// ************************************************************************* //
