/*--------------------------------*- C++ -*----------------------------------*\
| =========                 |                                                 |
| \\      /  F ield         | OpenFOAM: The Open Source CFD Toolbox           |
|  \\    /   O peration     | Version:  2506                                  |
|   \\  /    A nd           | Website:  www.openfoam.com                      |
|    \\/     M anipulation  |                                                 |
\*---------------------------------------------------------------------------*/
FoamFile
{
    version     2.0;
    format      ascii;
    arch        "LSB;label=32;scalar=64";
    class       volVectorField;
    location    "0.01";
    object      U_0;
}
// * * * * * * * * * * * * * * * * * * * * * * * * * * * * * * * * * * * * * //

dimensions      [0 1 -1 0 0 0 0];

internalField   nonuniform List<vector> 
512
(
(9.96496 -0.0126086 0.0153642)
(9.95876 -0.00433724 0.0102132)
(9.95976 -0.00193255 -0.0138295)
(9.96309 -0.0249301 -0.0348847)
(9.96741 -0.0168169 -0.0407732)
(9.93898 -0.00163319 -0.0355178)
(9.93365 0.00823005 -0.0172133)
(10.0133 -0.00847442 -0.00384091)
(10.0303 -0.008534 0.02892)
(10.0042 -0.0046548 0.0320669)
(9.98055 0.00347283 0.0474437)
(9.96466 0.027784 0.0199475)
(9.97844 0.0399802 -0.0240328)
(9.99462 0.00314553 -0.0414321)
(9.99164 -0.00386108 -0.0269145)
(9.99483 0.00792771 -0.00939682)
(9.97684 0.00238843 0.00160503)
(9.97346 -0.00167745 0.00375265)
(9.99045 -0.0032641 -0.0137055)
(9.98822 0.00689989 -0.0218432)
(9.98533 0.0250093 -0.0148697)
(9.94845 0.0147806 0.0167996)
(9.947 0.00559844 0.0253161)
(9.97288 -0.00298671 -0.0252054)
(9.96408 0.00159609 -0.0363077)
(9.94678 0.00714853 -0.0159418)
(9.96037 0.00449848 -0.00459947)
(9.97354 0.00748102 -0.000186541)
(9.92252 0.00161703 0.00423808)
(9.90818 -0.00593744 0.0145549)
(9.96486 -0.00220491 -0.00157155)
(9.98286 -0.00825554 -0.00254858)
(10.1571 -0.00365105 0.0181588)
(10.1679 0.0238268 0.0104464)
(10.1753 0.0342874 -0.000833887)
(10.1508 -0.011314 -0.0118941)
(10.1302 -0.0202062 -0.0246431)
(10.1133 0.00896424 -0.0527809)
(10.0977 -0.000131726 -0.0296826)
(10.1367 -0.00714037 -0.00806707)
(10.1766 -0.0168256 0.0155268)
(10.1673 -0.015327 0.0277265)
(10.1606 -0.00224708 0.0520699)
(10.1553 0.0101714 0.0550497)
(10.17 0.00766633 0.0196852)
(10.1293 0.00225373 -0.0066987)
(10.1409 0.0127416 -0.0159388)
(10.1459 0.00261884 -0.0265182)
(10.1178 -0.0253002 -0.0133017)
(10.1037 -0.0141688 0.00381873)
(10.1177 -0.0117986 -0.00196672)
(10.1586 -0.0241533 -0.0141033)
(10.1393 -0.0175147 -0.0173185)
(10.1198 -0.00922367 -0.0181706)
(10.1414 -0.00378762 -0.00449379)
(10.1505 -0.00805796 -0.0124985)
(10.1189 -0.0166431 -0.0253051)
(10.1037 -0.0188689 -0.0102399)
(10.1098 -0.0144344 0.00836484)
(10.1064 -0.00549512 -0.0059627)
(10.0992 0.0097538 0.00277826)
(10.1183 0.0211137 0.0274279)
(10.1572 0.0226001 0.0134984)
(10.1514 0.000105823 0.0119425)
(10.119 -0.00231087 0.03888)
(10.1308 0.0192358 -0.0326451)
(10.1278 0.0452924 -0.0794257)
(10.1357 0.0428657 -0.0447669)
(10.1203 0.00195177 -0.0106644)
(10.0829 -0.00107635 -0.0119207)
(10.101 0.016966 -0.020106)
(10.1398 0.0103005 0.010909)
(10.1859 -0.015188 0.0784725)
(10.1693 -0.00591893 0.0415348)
(10.1383 0.0120998 -0.00591965)
(10.1461 0.014894 -0.0102779)
(10.1459 0.00802725 -0.0160049)
(10.145 -0.0096354 -0.0148557)
(10.16 -0.00356087 -0.0126217)
(10.1564 0.00613908 -0.0155452)
(10.1568 -0.00543811 -0.0026973)
(10.1324 -0.00380304 -0.00918777)
(10.1373 -0.0150482 -0.00928414)
(10.1379 -0.0303922 0.0167383)
(10.1179 -0.0292122 0.0328693)
(10.0797 -0.00335157 0.0254956)
(10.0879 0.0139135 0.025505)
(10.1051 0.0237218 -0.00156978)
(10.1132 0.0218423 -0.00561832)
(10.1083 -0.0126095 -0.00739724)
(10.1068 -0.0161566 -0.0185731)
(10.0825 -0.00684845 -0.029964)
(10.0792 -0.00220773 -0.0122105)
(10.1299 -0.00555129 0.00197368)
(10.1567 -0.0343836 0.00587678)
(10.1394 -0.0286328 0.0168772)
(10.1875 -0.00910859 -0.00607983)
(10.1461 -0.0221532 5.78629e-05)
(10.1114 -0.0118344 -0.00236466)
(10.1113 -0.00739156 -0.000159115)
(10.1143 -0.0262875 0.0126679)
(10.1043 -0.02946 0.001073)
(10.0805 -0.0142974 -0.0643725)
(10.0937 -0.0106082 -0.0577119)
(10.17 0.0132673 0.0172451)
(10.1329 0.0100655 0.0373546)
(10.1232 0.0126592 0.0452149)
(10.1687 0.0048945 0.0442008)
(10.185 0.0228802 0.0337634)
(10.1961 0.0284717 0.0231661)
(10.1381 -0.00719097 -0.00291611)
(10.1254 -0.0200094 -0.00928431)
(10.1534 -0.00446049 -0.0130491)
(10.1765 0.00607547 -0.0190523)
(10.1804 0.0131383 -0.0331828)
(10.1838 0.0176357 -0.029211)
(10.1588 -0.000163293 -0.0106764)
(10.1274 -0.0152951 0.0031925)
(10.1341 -0.00747629 0.00195878)
(10.1396 -0.00386588 -0.000139691)
(10.1367 -0.0099244 0.00150343)
(10.0722 0.0121306 -0.00140518)
(10.0734 0.0179295 0.00458207)
(10.1138 -0.00925149 -0.00593042)
(10.1135 -0.0184437 -0.00996484)
(10.0589 -0.00203376 0.00675713)
(10.0956 0.0135572 0.0167838)
(10.1715 0.00308004 -0.00716191)
(10.1265 -0.00321814 0.00359235)
(10.1255 0.0126941 -0.00578916)
(10.1209 0.0272208 -0.0131064)
(10.1188 0.0231793 -0.0167816)
(10.0916 0.0147226 0.00024726)
(10.0907 -0.00667363 -0.0151046)
(10.1024 -0.0406222 -0.0463856)
(10.1296 -0.046653 -0.029882)
(10.1399 0.0241385 0.0103396)
(10.1127 0.0676232 0.00423186)
(10.1452 0.0180476 0.00584998)
(10.159 -0.0390779 0.0105386)
(10.1821 0.0064773 0.00801132)
(10.1889 0.02491 -3.11795e-06)
(10.1253 -0.0214252 -0.0109296)
(10.1094 -0.0370783 -0.00680709)
(10.1573 -0.0264742 -0.012173)
(10.1903 -0.00655807 -0.0250005)
(10.1715 -0.00608987 -0.0153482)
(10.1199 -0.0119737 -0.00942482)
(10.1295 -0.0130908 -0.00893633)
(10.1206 0.00253916 0.00401324)
(10.0684 0.0286766 -0.000719503)
(10.0726 0.0264872 -0.00542758)
(10.0763 0.0112862 -0.00291129)
(10.0937 -0.00606102 0.00608499)
(10.0996 -0.0127076 -0.0111052)
(10.1297 -0.0390575 -0.0049849)
(10.14 -0.045818 0.0121522)
(10.1536 -0.016742 0.0373763)
(10.1354 0.00436186 0.0312293)
(10.1182 0.00390413 0.0216946)
(10.1798 -0.0127312 0.0319936)
(10.1858 -0.000692829 0.0143203)
(10.1242 0.0273579 -0.0221665)
(10.1192 0.0370253 -0.0262679)
(10.1063 0.00509606 0.0275966)
(10.1124 0.00154461 0.0303126)
(10.0655 0.0135552 -0.0463024)
(10.1054 0.00362677 -0.0406829)
(10.1303 -0.00293747 0.0161831)
(10.1434 0.00219689 0.0177367)
(10.1327 0.0017924 0.0336357)
(10.1381 -0.00274786 0.0368623)
(10.1343 0.0212097 -0.0226582)
(10.14 0.0439124 -0.058858)
(10.1379 0.00272281 -0.035854)
(10.1284 -0.0485296 0.0033522)
(10.1377 -0.0496904 -0.0015152)
(10.1649 -0.00758249 -0.0133753)
(10.1416 0.00462042 0.000734777)
(10.1234 -0.00702105 0.0164943)
(10.1252 0.00868012 -0.00428435)
(10.1366 0.0305909 -0.016011)
(10.1651 0.00925948 0.0174544)
(10.1656 5.60268e-05 0.0286132)
(10.08 -0.0184029 0.0189051)
(10.1108 -0.0240032 0.00290222)
(10.1654 -0.0276412 -0.00975573)
(10.1247 -0.00994871 -0.00260606)
(10.0492 0.0344353 -0.0216073)
(10.0359 0.0314767 -0.0369187)
(10.1126 -0.013427 -0.0242433)
(10.1462 -0.027057 -0.00474041)
(10.1292 -0.00303721 0.0463657)
(10.1524 0.00761599 -0.0242593)
(10.1213 -0.00366885 -0.0603448)
(10.1083 -0.0148637 -0.0476699)
(10.1275 -0.00191732 0.0195599)
(10.1342 0.0170693 0.0277755)
(10.1587 0.0308844 0.000195537)
(10.1549 0.0147596 -0.00987556)
(10.1504 -0.0247136 -0.013549)
(10.1498 -0.0518366 -0.0387802)
(10.1377 -0.00768145 -0.0063649)
(10.1375 0.0203043 0.0112045)
(10.173 0.0224776 0.00112339)
(10.1716 0.00849239 -0.0286493)
(10.148 0.0169205 -0.0373508)
(10.1439 0.00373767 0.0101661)
(10.1076 -0.026781 0.0320469)
(10.0956 -0.048647 0.0174334)
(10.0937 -0.0195048 0.0135356)
(10.0907 0.00761119 0.0153862)
(10.0964 0.00569331 0.0119716)
(10.1175 0.00787686 -0.00788439)
(10.1386 0.00307155 -0.0149975)
(10.1221 -0.0118081 -0.00857738)
(10.1131 -0.0431423 -0.00486512)
(10.1316 -0.0256367 -0.0123666)
(10.1231 0.0199576 -0.0258253)
(10.113 0.02247 -0.0237879)
(10.1402 0.0452259 0.0218576)
(10.1383 0.0523412 0.0251155)
(10.0975 0.0270733 0.026926)
(10.114 0.00608465 0.0452889)
(9.98062 0.00359841 0.0343227)
(9.96813 0.0156723 0.00938809)
(9.94497 0.0180019 -0.0311611)
(9.91289 0.0107847 -0.00265167)
(9.92551 0.0158913 0.0258656)
(9.96917 -0.00296001 0.0329751)
(9.97089 -0.0158302 0.0211119)
(9.9823 -0.00206583 0.0117486)
(9.99968 0.00624926 0.00175137)
(9.98513 0.0158912 -0.00513762)
(9.95911 0.0315317 0.00162004)
(9.98099 0.0377255 -0.00108249)
(10.0219 0.0238971 -0.0260036)
(10.0047 0.00729059 -0.0241407)
(9.99059 -0.00391746 -0.00306715)
(10.0039 0.010913 0.0357339)
(10.0084 0.0185272 0.0371812)
(10.0024 0.00574654 0.00724751)
(10.0038 -0.00215374 0.000949771)
(9.93512 -0.0177771 0.0141824)
(9.92461 -0.0245834 0.0101329)
(9.96312 -0.0321054 -0.00785224)
(9.96605 0.00144619 -0.0327276)
(9.94724 0.0229444 -0.0434359)
(9.96885 0.0244411 -0.0296797)
(9.96399 0.0151951 -0.0172974)
(9.94759 -0.0095501 -0.015874)
(9.96094 -0.00472363 -0.0184413)
(9.94511 -0.00403603 0.00920851)
(9.94019 -0.00168708 0.0091415)
(9.95107 -0.00542406 -0.0121622)
(9.96605 -0.0151147 0.00364524)
(9.53071 -0.0225617 0.0160162)
(9.52312 -0.0225858 0.0431544)
(9.58699 -0.000579543 0.0359283)
(9.61338 -0.00990464 0.00534865)
(9.63073 -0.0109017 -0.0243698)
(9.46531 -0.000968959 -0.011796)
(9.47617 -0.0016389 -0.0132963)
(9.51278 -0.010192 -0.0346659)
(9.523 -0.0175006 -0.00575925)
(9.53217 -0.0182559 0.0304501)
(9.52239 0.0317008 0.0547099)
(9.54486 0.0412047 0.0528256)
(9.54976 0.0414526 0.0384452)
(9.56026 0.0400228 0.0299704)
(9.58277 0.0130871 -0.00704751)
(9.55313 0.00351639 -0.020743)
(9.55718 -0.0100778 -0.0196373)
(9.45499 -0.00499308 -0.00819758)
(9.47109 -0.00281799 0.00333383)
(9.48803 -0.0154713 -0.0212587)
(9.4875 -0.0220463 -0.0282378)
(9.44769 -0.0071588 0.004444)
(9.40376 0.00518318 0.0137516)
(9.45715 0.00469594 0.00656302)
(9.50383 0.0273802 -0.0136534)
(9.44752 0.0360123 -0.0121239)
(9.44492 0.00827995 0.00997164)
(9.45518 -0.0379901 0.0336151)
(9.43223 -0.0430251 0.0402623)
(9.43996 -0.0240962 0.0295727)
(9.4994 0.0174017 -0.00302071)
(9.48153 0.0220165 -0.0343355)
(9.63761 -0.0219133 -0.0183956)
(9.56469 -0.0298445 0.0111321)
(9.5906 -0.022897 0.0158129)
(9.6142 -0.0152449 0.0208342)
(9.63158 0.0182821 -0.0188803)
(9.53083 0.0253163 -0.026533)
(9.37391 0.00112431 -0.00128856)
(9.42266 -0.0037385 0.00981179)
(9.54582 0.0131176 -0.00592069)
(9.53123 0.0123876 0.00812183)
(9.57815 -0.00655264 0.0432284)
(9.60154 -0.0151774 0.0540745)
(9.61205 -0.00602213 0.033839)
(9.64172 0.00625099 0.033425)
(9.65687 0.0170526 0.0323652)
(9.66744 0.0113082 0.00866455)
(9.63709 -0.0162528 -0.0428511)
(9.56663 -0.0158227 -0.0163796)
(9.55709 0.00270013 -0.0144151)
(9.4813 0.0235917 -0.0376365)
(9.4938 0.037181 -0.0625553)
(9.46301 0.00878604 -0.0177629)
(9.43332 -0.0208436 0.0346489)
(9.48624 -0.0166033 0.0205448)
(9.39148 0.00124748 -0.000616615)
(9.37445 0.00517277 0.000370138)
(9.47396 -0.0243769 -0.000338118)
(9.50174 -0.0313761 -0.00845624)
(9.44908 0.0170162 0.00915577)
(9.47976 0.0350585 0.0285131)
(9.53801 0.0225133 0.0124907)
(9.61857 0.00626063 -0.0202585)
(9.57827 -0.00689941 -0.00011668)
(9.51194 0.0150122 -0.0196348)
(9.44389 0.0386826 -0.0264278)
(9.43863 0.0199858 0.00290999)
(9.418 -0.00628501 0.00724903)
(9.43523 -0.00924584 -0.00289623)
(9.44376 0.00941222 -0.0332027)
(9.45451 0.0140145 -0.0250842)
(9.59344 -0.000125878 0.0103374)
(9.54029 0.00307111 0.0230835)
(9.54595 -0.00841602 -0.00602425)
(9.52274 -0.0165802 -0.00338592)
(9.53465 -0.0181819 0.0101322)
(9.61066 -0.00708118 0.00274699)
(9.59577 0.00270716 -0.00458341)
(9.54397 0.015054 -0.00112636)
(9.5634 0.0102251 0.000469543)
(9.60103 -0.00848155 -0.00508467)
(9.69479 0.000445946 -0.0107434)
(9.68555 0.0127379 0.014069)
(9.68976 0.00381746 0.010949)
(9.62757 -0.00227601 0.00305802)
(9.64258 0.0207446 0.00171501)
(9.62299 0.0273774 -0.0050171)
(9.62197 0.023598 -0.00797494)
(9.63504 0.00651311 -0.0136427)
(9.55126 6.14971e-06 -0.024775)
(9.48533 -0.00311863 0.00552401)
(9.50124 0.000301957 0.0358976)
(9.54271 -0.0147489 0.0347209)
(9.45534 -0.0416251 0.013418)
(9.51115 -0.0615976 0.00944573)
(9.637 -0.0121724 0.00913305)
(9.63523 0.00204782 0.0244796)
(9.64157 0.00912592 0.018326)
(9.62986 0.00458334 0.00314889)
(9.64997 -0.040821 0.0070021)
(9.55598 -0.037758 0.00111434)
(9.56691 -0.00645705 -0.0058644)
(9.54357 0.017222 -0.00767287)
(9.60318 0.00554054 -0.018444)
(9.62149 -0.0211387 0.0153512)
(9.62663 -0.0317645 0.0274381)
(9.53391 -0.0223845 0.0180776)
(9.54919 -0.00583899 0.0144127)
(9.63176 0.0123698 0.00923344)
(9.62668 0.015774 0.00547592)
(9.55959 0.0153648 0.00582397)
(9.57695 0.0147929 0.00372184)
(9.58688 0.0195122 -0.0127702)
(9.55611 -0.0132238 -0.0375172)
(9.43918 -0.0500775 -0.0332716)
(9.48095 -0.0454298 -0.0338778)
(9.41094 -0.009414 -0.024653)
(9.44843 0.0146843 -0.00814209)
(9.54345 0.0244431 0.00809254)
(9.55999 0.0323186 0.00677764)
(9.5136 0.0317234 0.0189287)
(9.53288 0.010315 0.0203821)
(9.50941 -0.00478603 0.00534303)
(9.52918 -0.000581246 -0.01266)
(9.50243 0.0214842 0.0123069)
(9.49415 0.024166 0.0230914)
(9.52317 0.00492942 0.02043)
(9.56652 -0.0174177 -0.0115983)
(9.55483 -0.0282174 -0.0103299)
(9.55863 -0.02742 -0.0144933)
(9.53661 0.00260778 -0.0137982)
(9.50776 -0.00841588 -0.00706129)
(9.52359 -0.0492407 -0.00334887)
(9.45294 -0.031593 0.00142801)
(9.47463 0.0340517 0.00298832)
(9.45638 0.0614114 0.0207829)
(9.44078 0.0345679 0.0240681)
(9.37402 -0.0100282 -0.00526195)
(9.35341 -0.00406469 -0.0110499)
(9.3906 -0.000538567 -0.00399835)
(9.42124 -0.0144815 -0.011774)
(9.44908 -0.027089 0.00810828)
(9.46865 -0.037329 0.0172854)
(9.53698 -0.0343293 0.00568441)
(9.52599 -0.0144553 -0.00799407)
(9.53238 0.0135423 -0.00926572)
(9.51794 0.0129634 -0.0104794)
(9.50434 -0.0203988 -0.0110394)
(9.42695 -0.00778493 -0.00480902)
(9.40173 0.0382665 -0.000508767)
(9.40597 0.0419388 -0.0178953)
(9.41722 0.0135825 -0.019954)
(9.43468 0.0193023 -0.00897788)
(9.41586 0.041644 -0.00798515)
(9.40976 0.0459801 0.00334593)
(9.49804 0.0161979 0.0473717)
(9.48223 -0.00448206 0.0460365)
(9.53916 -0.0156471 0.0175516)
(9.52597 -0.0193283 -0.00465269)
(9.58161 0.031508 -0.0149608)
(9.57307 0.0226127 -0.0129382)
(9.53946 0.0198769 -0.0245637)
(9.52669 0.0114072 -0.00344695)
(9.49866 0.00102499 0.0135328)
(9.48279 0.0165097 -0.0132671)
(9.53856 0.0285949 -0.00306732)
(9.57502 0.0180148 0.0507159)
(9.59464 0.00856342 0.0205934)
(9.55276 0.00499122 -0.012834)
(9.55951 0.0161387 0.0192847)
(9.61031 0.0178959 0.0240633)
(9.60257 0.013365 -0.00112037)
(9.55951 0.00942777 -0.0212341)
(9.56354 -0.0475228 0.00447445)
(9.44904 -0.0758634 0.0130382)
(9.41826 -0.0402376 -0.0103914)
(9.50573 -0.0225756 -0.00270512)
(9.53166 -0.0100993 0.0114193)
(9.4908 0.0182872 -0.00356481)
(9.54403 0.0447482 -0.0286261)
(9.62526 0.0302786 -0.0230178)
(9.74874 0.0119725 0.0140748)
(9.73061 0.0104506 0.0263186)
(9.70692 -0.0350045 0.0221937)
(9.73311 -0.050433 0.0209735)
(9.78099 -0.0317097 0.0393854)
(9.77587 0.0164027 0.0232529)
(9.69449 0.0141574 0.0209776)
(9.65622 -0.0186395 0.0091023)
(9.63782 -0.0184745 -0.0149884)
(9.62553 -0.00749766 -0.0236861)
(9.72239 0.0325653 0.0200649)
(9.6572 0.0260018 0.0129205)
(9.54312 0.0600975 -0.0177055)
(9.49079 0.00112491 -0.00819078)
(9.47227 -0.0427947 0.0104585)
(9.50656 0.00300439 0.00926863)
(9.50054 0.0174957 0.015677)
(9.49516 -0.0110289 0.0335501)
(9.56309 -0.0202693 0.00351196)
(9.55418 -0.0156194 -0.0321074)
(9.53286 -0.0200416 -0.0118808)
(9.55186 -0.0020213 0.0467117)
(9.59059 0.00722374 0.0373276)
(9.57773 -0.020771 0.00197257)
(9.55997 -0.0297883 0.000742794)
(9.53742 -0.000779129 0.000694175)
(9.52151 -0.0168781 0.000749247)
(9.44277 -0.0516524 -0.00806529)
(9.46642 -0.0602734 -0.0201298)
(9.49723 -0.0128067 -0.0191457)
(9.59708 0.0276295 -0.0119024)
(9.59297 0.0107169 -0.0043557)
(9.54594 -0.0173128 -0.0135635)
(9.53234 -0.0656467 0.00851938)
(9.49993 -0.0556806 0.0151727)
(9.38366 -0.0165265 -0.00238547)
(9.40267 0.00563691 -0.0133793)
(9.4791 0.0172817 0.0125219)
(9.53665 0.0114444 0.0333777)
(9.50231 0.0071862 0.0163315)
(9.60015 0.00554981 -0.0201681)
(9.64353 0.0264736 -0.0266909)
(9.52988 0.0105507 0.0352984)
(9.54262 0.0262051 0.0140987)
(9.53009 0.0273724 -0.00176317)
(9.54224 0.00982228 0.00310105)
(9.56314 0.00417805 -0.000987912)
(9.54176 0.0172192 0.00284335)
(9.51831 0.0208398 0.00322928)
(9.53987 0.0147579 -0.00822616)
(9.56849 0.00683817 -0.0105068)
(9.52354 0.00456769 -0.00106438)
(9.55807 0.00538548 0.0188147)
(9.61017 0.00195199 0.0192329)
(9.5525 -0.00344625 0.00419387)
(9.56302 -0.0150154 -0.00539644)
(9.57128 -0.00561875 0.0171282)
(9.60419 0.0326067 0.0259727)
(9.5884 0.0423495 0.0104212)
(9.60406 -0.00674801 -0.0043795)
(9.61 -0.0233002 -0.00440583)
(9.54517 -0.0358621 -0.0124305)
(9.48795 -0.0315879 0.00527549)
(9.52429 -0.0161547 0.0150316)
(9.54275 -0.000741649 -0.00414862)
(9.52097 -0.0123887 -0.0183997)
(9.45611 -0.00516641 -0.0068518)
(9.39722 0.0172218 0.00333671)
(9.4362 0.01017 0.0138076)
(9.39505 -0.0151932 0.0122136)
(9.42084 -0.050684 -0.0112348)
(9.38026 -0.00604898 -0.00474717)
(9.32571 0.0272499 0.00035526)
(9.38578 0.00939776 0.00501735)
)
;

boundaryField
{
    wall
    {
        type            fixedValue;
        value           uniform (0 0 0);
    }
    outlet
    {
        type            cyclic;
    }
    inlet
    {
        type            cyclic;
    }
    procBoundary3to2
    {
        type            processor;
        value           nonuniform List<vector> 
256
(
(10.0318 0.00392148 0.0337538)
(9.98322 0.00109215 0.012517)
(9.92519 -0.0105399 -0.00529535)
(9.93577 -0.0259165 0.00249354)
(9.97325 -0.0231211 0.00311769)
(9.95328 -0.0134789 -0.0406165)
(9.93024 -0.010098 -0.121232)
(9.92615 -0.010633 -0.026646)
(9.96129 -0.00777621 0.0559372)
(9.95827 -0.0108441 0.0461142)
(9.94149 -0.00160063 0.0452309)
(9.94868 0.0157284 0.0470729)
(9.97285 0.00846064 0.0073693)
(9.95202 -0.00415727 -0.0221141)
(9.9296 0.00473512 -0.0208563)
(9.9358 0.0169837 -0.00835314)
(9.95145 0.00104145 -0.0045548)
(9.9673 -0.023245 -0.0196241)
(9.97467 -0.00290871 -0.0131039)
(9.96736 0.00938439 -0.00589934)
(9.93228 0.0238561 -0.00483848)
(9.92727 0.0173269 0.013821)
(9.94384 0.009749 0.0324785)
(9.98994 -0.00277297 0.00906133)
(9.97114 0.0113542 -0.0101345)
(9.96459 0.0229088 -0.014893)
(9.98811 -0.0133104 -9.14458e-05)
(10.0047 -0.01647 0.00274377)
(9.9185 -0.0201671 0.00361946)
(9.88488 -0.0376203 0.0036208)
(9.95422 -0.0127702 0.032328)
(10.0055 0.00204017 0.0558804)
(10.1318 -0.0199775 0.0186494)
(10.1667 0.000672574 -0.00318981)
(10.192 0.0531627 -0.00806764)
(10.1658 0.0289208 -0.0104411)
(10.1462 -0.010335 -0.0267626)
(10.1665 0.000201597 -0.0584895)
(10.1378 0.00203497 -0.0508634)
(10.1222 -0.0266597 0.00890597)
(10.1679 -0.0223578 0.0474461)
(10.1664 -0.00961326 0.0389508)
(10.1455 -0.0043996 0.0344992)
(10.1324 -0.00708871 0.0294518)
(10.1419 -0.0118738 0.00597411)
(10.1349 -0.0261014 -0.0111403)
(10.1293 -0.0164204 -0.00845041)
(10.1257 0.0097577 -0.0047141)
(10.0992 -0.0036326 0.00203362)
(10.091 -0.00567292 -0.0140172)
(10.1136 0.00629747 -0.0118562)
(10.1335 0.00888145 0.0117516)
(10.1342 0.0216607 0.0134259)
(10.1156 0.0170415 0.0246864)
(10.1229 0.0193912 0.0302577)
(10.151 -0.00545934 -0.0114701)
(10.126 -0.00918597 -0.0173036)
(10.1031 0.0140552 -0.00275563)
(10.125 0.00700275 -0.00405305)
(10.1333 -0.011297 -0.00965907)
(10.11 -0.0105493 0.0063297)
(10.121 -0.00301219 0.0134486)
(10.1509 0.00247791 0.0308492)
(10.1338 -0.00965229 0.0368977)
(10.1562 -0.0218581 0.0446534)
(10.1681 -0.00371211 0.00482964)
(10.1699 0.0369011 -0.00657105)
(10.1772 0.0431244 -0.0131246)
(10.1816 0.00710367 -0.0202429)
(10.1617 0.0115272 -0.0309757)
(10.1455 0.0349815 -0.0389564)
(10.1373 0.00260318 0.0181289)
(10.1571 -0.0351442 0.0336223)
(10.1584 -0.0373954 0.021989)
(10.1215 0.0194184 0.0137672)
(10.1191 0.0242839 0.0126902)
(10.1371 0.0120485 -0.0123313)
(10.1538 -0.013892 -0.0372185)
(10.1513 -0.0264125 -0.0203007)
(10.111 -0.00420985 0.0154677)
(10.1033 0.0084151 0.0118833)
(10.1381 0.0163968 -0.0319035)
(10.1322 -0.00471211 -0.0533469)
(10.1245 -0.0123023 -0.0565854)
(10.0965 -0.019824 -0.0138218)
(10.0777 -0.0206034 0.0141105)
(10.1319 0.00975291 0.0223681)
(10.1821 0.0271528 0.0162244)
(10.1549 0.00616112 0.00789588)
(10.127 -0.000686661 0.00293698)
(10.1263 0.00381119 -0.0109884)
(10.103 -0.00279514 -0.0121932)
(10.0951 -2.06699e-05 -0.0032621)
(10.1114 -0.00685607 0.00743065)
(10.1432 -0.0204432 0.0243688)
(10.1449 -0.0247232 0.0485758)
(10.1854 -0.00193192 0.0135811)
(10.16 -0.0127652 -0.00582218)
(10.1121 -0.00906774 -0.0105055)
(10.1355 0.00388425 -0.00573485)
(10.1593 -0.00816584 -0.0149986)
(10.1548 -0.016455 -0.0441606)
(10.1305 0.00346602 -0.0500982)
(10.1437 0.0130207 0.00776308)
(10.1435 -0.00804689 0.0436493)
(10.1428 -0.0267099 0.0435183)
(10.1653 0.00516164 0.0218231)
(10.1726 0.00790346 0.0222607)
(10.1476 0.00714165 0.00939811)
(10.1172 0.0141481 -0.00665715)
(10.124 0.0259526 -0.0118661)
(10.1335 0.0176713 -0.00424442)
(10.1425 1.61501e-05 0.00272909)
(10.1535 -0.00191965 -0.00475976)
(10.1544 -0.0183415 -0.0122876)
(10.1569 -0.00708983 -0.00235817)
(10.1489 0.000969186 0.0173949)
(10.1194 -0.00101592 0.0201126)
(10.1328 0.00657618 0.01221)
(10.1626 0.00998715 -0.00360317)
(10.1404 -0.00370281 -0.00993029)
(10.1046 -0.0138308 -0.0260307)
(10.1116 -0.0036686 -0.0311645)
(10.1163 -0.00672909 -0.0246871)
(10.11 -0.00758532 0.00384729)
(10.1104 0.00423465 0.00888127)
(10.1339 0.0133675 0.00478878)
(10.1574 0.0101864 0.0195527)
(10.154 -0.00396354 0.0352945)
(10.1638 0.00253965 0.0305822)
(10.1326 0.0347589 0.0211598)
(10.1119 0.0563179 0.0100152)
(10.1236 -0.0122988 0.00332275)
(10.1243 -0.0354466 -0.00825549)
(10.1158 -0.00463618 -0.0589855)
(10.1213 0.0297399 -0.039217)
(10.1414 0.0373176 0.0269915)
(10.1371 0.0129414 0.0262895)
(10.1557 -0.0301612 -0.0165052)
(10.1635 -0.00569317 0.00953467)
(10.1708 0.0311263 0.0516408)
(10.1896 0.0266576 0.0301496)
(10.1531 -0.0145694 -0.00492677)
(10.1118 -0.040613 -0.0323666)
(10.1204 -0.0439127 -0.0473651)
(10.1572 -0.0232706 -0.0243611)
(10.1612 -0.0206511 -0.0208613)
(10.158 -0.0129387 -0.0256979)
(10.1546 0.00100089 -0.0141601)
(10.1269 0.0185791 -0.00220382)
(10.1297 0.0241936 0.00326863)
(10.1424 0.0219694 -0.0061882)
(10.1247 -0.00258137 -0.0074241)
(10.1078 -0.0218089 -0.00339905)
(10.1225 0.00284947 0.00570061)
(10.1227 0.000706429 0.00952537)
(10.13 -0.00413778 -0.00980536)
(10.1369 0.00645191 0.0115283)
(10.1164 0.00650777 0.0298601)
(10.1136 -0.00336546 0.0365265)
(10.1577 -0.0413688 0.0514263)
(10.2207 0.0136272 0.00481)
(10.1666 0.04232 -0.0244094)
(10.1163 0.054034 -0.0243325)
(10.1276 -0.0150775 0.020077)
(10.1229 -0.0388056 0.0224965)
(10.1547 -0.00257575 -0.0119087)
(10.1817 0.00911984 -0.0194784)
(10.1859 0.00333052 0.00364977)
(10.1379 -0.00140352 0.0184499)
(10.1199 -0.0202255 -0.00594966)
(10.1451 -0.0190124 0.000882973)
(10.1531 0.0183271 0.0108606)
(10.1635 0.0779571 -0.00285263)
(10.1526 0.0159149 0.00213765)
(10.1441 -0.0414073 0.00945293)
(10.1586 -0.0308994 0.00759913)
(10.1541 -0.0288556 0.00593864)
(10.1561 -0.0273192 0.00335864)
(10.1529 -0.00556944 0.0111222)
(10.1154 0.0307726 0.0166119)
(10.1042 0.034485 0.0181928)
(10.1405 0.00778339 0.0119746)
(10.1327 -0.00210572 0.0115685)
(10.1185 0.000304715 0.0153654)
(10.1355 0.00720439 -0.0034261)
(10.128 -0.010549 -0.0452536)
(10.1223 -0.021378 -0.0440435)
(10.1321 -0.0256996 -0.032426)
(10.1579 -0.0079835 0.0133858)
(10.1271 -0.0122793 0.0387208)
(10.0886 -0.0410323 0.0481886)
(10.1461 0.034791 0.0555099)
(10.1535 0.0287079 -0.0173124)
(10.1349 0.0382132 -0.0318601)
(10.0933 0.00546542 0.0011898)
(10.1025 -0.0249948 0.0189482)
(10.1624 -0.0246882 0.0347062)
(10.1978 -0.0185048 0.0320256)
(10.1759 -0.0203224 0.0109397)
(10.1589 -0.0136397 0.00898873)
(10.178 -0.00120434 0.0130255)
(10.1753 -0.00227738 -0.00249984)
(10.1573 -0.0194798 -0.0434806)
(10.1661 -0.00931217 -0.0382172)
(10.1849 0.0459812 0.0152134)
(10.1684 0.0441851 0.0102472)
(10.0994 0.00251103 0.00300132)
(10.0559 -0.0106773 -0.00663979)
(10.0594 -0.0224709 -0.0361865)
(10.0607 -0.0304956 -0.0487346)
(10.1025 -0.0352139 -0.0134787)
(10.1633 -0.021564 0.0171031)
(10.1695 0.0132803 0.00723241)
(10.1789 0.0176817 0.0109114)
(10.154 -0.00324789 0.00503027)
(10.1133 -0.000172252 -0.0231215)
(10.1316 -0.00185637 -0.00994712)
(10.1197 -0.0109979 0.0167041)
(10.0927 -0.018138 0.0288362)
(10.1207 -0.0275615 0.0211881)
(10.1343 -0.0286073 -0.0121549)
(10.123 -0.0173798 -0.0209879)
(10.1067 0.0233704 0.0527836)
(10.0006 -0.0126992 0.00995845)
(10.0116 -0.00224379 -0.0273886)
(10.0019 0.00103401 -0.043008)
(9.94912 0.00785097 -0.00481263)
(9.95248 0.0237308 0.0113763)
(9.96549 0.0200291 0.0265657)
(9.96313 0.00526235 0.0238406)
(9.95925 -0.0148623 -0.0183111)
(9.96304 -0.0281912 -0.020895)
(9.99694 -0.0146436 0.0226618)
(9.99877 -0.00304072 0.0218326)
(9.98608 0.0295588 -0.0277302)
(9.97964 0.0172907 -0.0105545)
(9.96605 -0.00412198 -0.0052666)
(9.97003 6.59808e-05 -0.0152987)
(9.98425 0.0204724 0.00669329)
(9.99775 0.0320386 0.0397265)
(9.98883 0.0175819 -0.00359526)
(9.97958 0.0163876 -0.0302013)
(9.96556 -0.0176211 0.00232458)
(9.96754 -0.0406806 0.00455234)
(9.99388 -0.00379312 -0.0119662)
(9.98342 0.0127637 -0.0118208)
(9.9658 0.0114122 0.0099275)
(9.96258 0.00791217 -0.00725189)
(9.95261 0.00119785 -0.0414789)
(9.92221 -0.0023408 -0.0204773)
(9.90127 -0.00461455 0.00378653)
(9.95186 -0.0159572 0.0106263)
(9.99034 -0.0146132 -0.0121217)
(9.96353 -0.00743062 -0.00759208)
(9.94076 -0.00868622 0.0219534)
)
;
    }
}


// ************************************************************************* //
