/*--------------------------------*- C++ -*----------------------------------*\
| =========                 |                                                 |
| \\      /  F ield         | OpenFOAM: The Open Source CFD Toolbox           |
|  \\    /   O peration     | Version:  2506                                  |
|   \\  /    A nd           | Website:  www.openfoam.com                      |
|    \\/     M anipulation  |                                                 |
\*---------------------------------------------------------------------------*/
FoamFile
{
    version     2.0;
    format      ascii;
    arch        "LSB;label=32;scalar=64";
    class       volVectorField;
    location    "0.01";
    object      Us;
}
// * * * * * * * * * * * * * * * * * * * * * * * * * * * * * * * * * * * * * //

dimensions      [0 1 -1 0 0 0 0];

internalField   nonuniform List<vector> 
512
(
(0 0 0)
(0.163035 -3.33862e-05 -0.0910951)
(0.247993 -0.000234944 -0.0271713)
(0 0 0)
(0 0 0)
(0 0 0)
(0 0 0)
(0 0 0)
(0 0 0)
(0 0 0)
(0 0 0)
(0 0 0)
(0 0 0)
(0 0 0)
(0 0 0)
(0 0 0)
(0.169873 -0.000273818 -0.123157)
(0 0 0)
(0 0 0)
(0 0 0)
(0 0 0)
(0 0 0)
(0 0 0)
(0 0 0)
(0 0 0)
(0.534586 -0.00210556 -0.0303245)
(0 0 0)
(0 0 0)
(0 0 0)
(0 0 0)
(0 0 0)
(0 0 0)
(0 0 0)
(0 0 0)
(0 0 0)
(0 0 0)
(0 0 0)
(0 0 0)
(0 0 0)
(0 0 0)
(0 0 0)
(0 0 0)
(0 0 0)
(0 0 0)
(0 0 0)
(0.535587 0.000926153 -0.0781236)
(0 0 0)
(0 0 0)
(0 0 0)
(0 0 0)
(0 0 0)
(0 0 0)
(0 0 0)
(0 0 0)
(0 0 0)
(0 0 0)
(0 0 0)
(0 0 0)
(0 0 0)
(0 0 0)
(0.529977 0.0013135 -0.0877551)
(0 0 0)
(0 0 0)
(0 0 0)
(0 0 0)
(0 0 0)
(0.541959 -0.00126472 -0.0688318)
(0 0 0)
(0.530861 -0.00147169 -0.114439)
(0.520633 -0.00152241 -0.137309)
(0 0 0)
(0 0 0)
(0 0 0)
(0 0 0)
(0 0 0)
(0 0 0)
(0 0 0)
(0 0 0)
(0.505329 0.000309656 -0.0823279)
(0 0 0)
(0 0 0)
(0.538101 -0.00105922 -0.0682151)
(0 0 0)
(0 0 0)
(0 0 0)
(0 0 0)
(0 0 0)
(0 0 0)
(0 0 0)
(0 0 0)
(0 0 0)
(0 0 0)
(0 0 0)
(0 0 0)
(0 0 0)
(0 0 0)
(0 0 0)
(0 0 0)
(0.54515 -0.000522634 -0.0717315)
(0 0 0)
(0 0 0)
(0 0 0)
(0 0 0)
(0 0 0)
(0 0 0)
(0.534037 -0.000369071 -0.12541)
(0 0 0)
(0 0 0)
(0.530725 0.00175504 -0.106959)
(0 0 0)
(0 0 0)
(0 0 0)
(0 0 0)
(0 0 0)
(0 0 0)
(0.535202 -0.00129921 -0.0717111)
(0 0 0)
(0 0 0)
(0.537418 -0.000700306 -0.0826914)
(0 0 0)
(0 0 0)
(0.534175 0.000542257 -0.129185)
(0 0 0)
(0 0 0)
(0 0 0)
(0.53922 0.00176221 -0.0194157)
(0 0 0)
(0 0 0)
(0 0 0)
(0 0 0)
(0 0 0)
(0 0 0)
(0.527419 -0.00501008 -0.0872859)
(0.523793 -0.00237041 -0.109947)
(0 0 0)
(0 0 0)
(0 0 0)
(0 0 0)
(0 0 0)
(0 0 0)
(0 0 0)
(0 0 0)
(0 0 0)
(0 0 0)
(0 0 0)
(0.533718 0.000428619 0.0103962)
(4.1987e-16 -3.87632e-19 -2.49563e-17)
(0.536647 -0.000424648 -0.0182453)
(0 0 0)
(0.536737 -0.000199798 -0.0977586)
(0.53749 -0.00199542 -0.0982322)
(0 0 0)
(0 0 0)
(0 0 0)
(0 0 0)
(0 0 0)
(0 0 0)
(0 0 0)
(0 0 0)
(0 0 0)
(0 0 0)
(0 0 0)
(0.542098 -0.000277438 0.00168827)
(0 0 0)
(0 0 0)
(0.523793 -0.00237041 -0.109947)
(0.529205 -0.0010557 -0.102757)
(0 0 0)
(0.532936 0.00286896 -0.148677)
(0 0 0)
(0 0 0)
(0 0 0)
(0.534408 0.000302931 -0.108611)
(0 0 0)
(0 0 0)
(0.531611 -0.00374247 -0.112918)
(0 0 0)
(0 0 0)
(0.534414 0.00194199 -0.084266)
(0 0 0)
(0 0 0)
(0 0 0)
(0 0 0)
(0 0 0)
(0.544836 -0.00238497 -0.0666615)
(0 0 0)
(0 0 0)
(0 0 0)
(0 0 0)
(0 0 0)
(0 0 0)
(0.543758 0.00241378 -0.105279)
(0 0 0)
(0 0 0)
(0 0 0)
(0 0 0)
(0 0 0)
(0 0 0)
(0 0 0)
(0 0 0)
(0 0 0)
(0 0 0)
(0 0 0)
(0 0 0)
(0 0 0)
(0.527603 0.000421005 -0.0767402)
(0.52677 -0.00148233 -0.0376241)
(0 0 0)
(0 0 0)
(0 0 0)
(0 0 0)
(0 0 0)
(0 0 0)
(0 0 0)
(0 0 0)
(0 0 0)
(0 0 0)
(0 0 0)
(0 0 0)
(0 0 0)
(0 0 0)
(0 0 0)
(0 0 0)
(0 0 0)
(0 0 0)
(0 0 0)
(0 0 0)
(0.509053 -0.00275086 -0.140999)
(0 0 0)
(0 0 0)
(0 0 0)
(0 0 0)
(0 0 0)
(0 0 0)
(0 0 0)
(0 0 0)
(0.378141 0.00172453 -0.0426695)
(0 0 0)
(0 0 0)
(0 0 0)
(0 0 0)
(0 0 0)
(0 0 0)
(0 0 0)
(0 0 0)
(0 0 0)
(0 0 0)
(0 0 0)
(0 0 0)
(0.0323444 -0.000118208 -0.0466209)
(0 0 0)
(0 0 0)
(0.248537 0.000382639 -0.074429)
(0 0 0)
(0 0 0)
(0 0 0)
(0.0302205 -0.000121277 0.0497044)
(0.188873 -0.000252979 0.0417928)
(0.0995073 -0.000277873 0.106669)
(0.255613 -0.0056193 0.169611)
(0.0100865 0.000102014 -0.00187362)
(0.21805 0.00320921 0.126885)
(0.223507 -0.00132795 0.131107)
(0.158544 -0.0269508 0.0723869)
(0.233354 -0.0020411 0.0305365)
(0.17044 0.000530883 0.159468)
(0.255302 0.00101662 0.0809639)
(0.119584 0.000229534 0.150186)
(0.133505 0.000421807 0.0491487)
(0.232114 0.00065893 0.132918)
(0.248444 -0.000541259 0.0301218)
(0.193095 -0.000446099 -0.054855)
(0.0949363 0.000525014 -0.0130524)
(0.283412 -0.000167445 0.205169)
(0.0517378 6.76439e-05 0.130577)
(0.174462 4.44895e-05 0.0557595)
(0.316196 0.000435938 0.0256121)
(0.232699 0.000712853 0.0528634)
(0.138603 0.000442939 0.0185953)
(0.261629 0.000987017 -0.0228511)
(0.0837904 -0.000310793 0.0418173)
(0.222226 -0.00114555 0.0380036)
(0.249247 -0.0348263 0.0802863)
(0.144295 4.25428e-05 0.299176)
(0.273435 0.000536274 0.152417)
(0.196356 0.000453341 0.0792817)
(0.229854 0.000621588 0.152151)
(0.178047 0.000747455 0.0674331)
(0.177538 -0.0342099 -0.0161951)
(0.177151 -0.000522641 0.0399391)
(0.288978 -0.0045318 0.0671042)
(0.322638 0.000374243 0.149618)
(0.181749 0.000527474 0.0499041)
(0.359577 -0.000735404 0.148511)
(0.420617 -0.00248703 0.119812)
(0.182324 -0.0004196 -0.00735799)
(0.137183 -0.0108602 0.107223)
(0.190013 0.000340816 0.0838447)
(0.0193968 -0.000127675 0.00728534)
(0.324959 -0.000317536 0.173)
(0.328979 0.000433406 0.0311971)
(0.196839 0.00041962 0.0311554)
(0.245974 -0.00035788 0.104191)
(0.174943 -0.000899186 0.0775754)
(0.249514 -0.0021295 0.0238486)
(0.224599 -0.0135686 0.068539)
(0.234666 -0.0136218 0.109587)
(0.391974 -0.0755283 0.0396984)
(0.259536 0.000403729 0.0740309)
(0.37081 0.000782768 0.0234409)
(0.2562 0.00200867 0.095046)
(3.94589e-16 3.18665e-18 2.28469e-16)
(0.422398 0.0022157 0.087996)
(0.319355 -0.00425585 0.00455491)
(0.00527223 0.0188074 0.011137)
(0.341857 0.00075399 0.175945)
(0.327138 0.00120554 0.0680905)
(0.222898 0.000655033 0.219038)
(0.22767 0.000357726 0.0341951)
(0.34615 0.000495166 0.104076)
(0.316482 -0.000258752 0.265757)
(0.322884 -0.00034503 0.0559516)
(0.526635 -0.000948793 0.0856371)
(0.333036 -0.0128043 0.104991)
(0.527924 -0.00087895 -0.0754781)
(0.465822 -0.00189607 0.0723286)
(0.253968 -0.000332057 0.100621)
(0.104182 0.0407738 0.0350185)
(0.105114 0.000408248 0.15397)
(0.411878 -0.000226254 0.215768)
(0.204308 0.0277839 -0.0148357)
(0.163209 -0.000213079 -0.00302126)
(0.349997 0.000597282 0.115745)
(0.368763 -0.0228172 0.0490795)
(0.390699 -0.000414047 0.016336)
(0.291394 -0.0014185 0.0615526)
(0.533764 -0.00112798 -0.0626133)
(0.157133 0.0544222 0.0563107)
(0.120838 2.65762e-06 0.121396)
(0.114812 -8.18872e-05 0.0329396)
(0.232575 -5.28483e-05 0.319607)
(0.496393 -0.0980764 0.0208026)
(0.272682 0.00204216 0.125733)
(0.386595 0.00180871 0.199366)
(0.120501 -0.0363447 0.101639)
(0.343825 -0.000896928 0.120418)
(0.386701 -0.00123398 0.0300953)
(0.364374 -0.000117073 0.124058)
(0.440603 0.0257901 -0.00683717)
(0.0129513 9.86394e-05 -0.00377437)
(0.395283 0.00151258 0.0870803)
(0.527368 0.00174064 0.0971407)
(0 0 0)
(4.27724e-16 -4.85987e-19 -7.28396e-17)
(0.279102 -0.000458587 0.0044465)
(0.289997 -0.00103492 -0.016735)
(0.150561 0.000316635 -0.028067)
(0.352308 -0.00063377 0.0268448)
(0.366483 0.000674842 0.170741)
(0.276789 0.000597481 0.0810303)
(0.0949369 0.000231398 0.119502)
(0.528863 0.000520089 -0.0820697)
(0.124792 -1.96762e-05 0.0574936)
(0.389531 -0.00278925 0.0426643)
(0.120083 0.000426071 0.00360717)
(0.0392035 2.08589e-05 -0.0958628)
(0.236739 0.000129056 0.0851342)
(0.22757 0.0251282 0.0386085)
(0.123619 -0.122691 0.00208316)
(0.439682 -0.000549541 0.112709)
(0.30386 -0.000888983 0.0461936)
(0.290471 0.00820375 0.0678425)
(0.0684083 -7.73545e-05 0.0306188)
(0.441942 0.00100391 0.143769)
(0.174955 -2.76287e-05 0.159802)
(0.0449855 -0.000319066 0.0632404)
(0.138479 -0.000939246 0.355613)
(0.242163 0.00366033 0.0373542)
(0.154217 0.00304853 0.0623766)
(0.212225 -0.0157222 0.0921002)
(0.189046 0.000446871 0.044024)
(0.282546 0.00121998 0.108044)
(0.378445 0.00112607 0.214072)
(0.515786 -0.00023463 0.163489)
(0.215793 0.0712506 0.138274)
(0.212097 0.000593441 0.0617218)
(0.226624 0.000863458 0.13214)
(0.011684 -0.000294672 0.00850543)
(0.395052 -0.00306063 0.0746219)
(0.0902641 -0.000311196 0.0111989)
(0.332992 -0.000687757 0.148277)
(0.444499 0.000785732 0.0472561)
(0.239503 0.00104033 0.0761698)
(0.44115 0.00127686 0.0850955)
(0.297876 0.0292158 0.060845)
(0.17556 -0.00547811 0.0259985)
(0.235935 0.000123023 0.195823)
(0.519725 -0.000650199 -0.0312387)
(0.21681 -0.0106329 0.0773131)
(0.270616 -0.000316877 0.195469)
(0.00996935 7.97244e-05 -7.38263e-09)
(0.228978 -0.00185154 0.0913014)
(0.530249 -0.000527898 0.0415945)
(0.25593 0.0001068 0.072897)
(0.211678 -0.0468746 0.11785)
(0.290438 -0.0180909 0.0524469)
(0.535743 -0.00175131 -0.0356215)
(0.316926 0.00988073 0.0347415)
(0.191602 0.000166746 0.0668059)
(0.197722 0.0132389 0.104809)
(0.307284 0.00739844 0.0775052)
(0.246885 0.000656076 0.023364)
(0.0874916 -0.000270336 0.165506)
(0.360093 -0.000198476 0.24861)
(0.27769 -5.52006e-05 0.221122)
(0.36301 -0.000303898 0.0493756)
(0.401113 0.00199126 0.0742527)
(0.0380168 -0.0415586 -0.00154577)
(0.396917 -0.00455141 0.0319427)
(0.186428 -0.000742697 0.0578076)
(0.519871 -0.00263371 0.0187311)
(0.262912 -0.00114202 -0.0117386)
(0.204161 -0.000538258 0.224962)
(0.334245 -0.0156427 0.129926)
(0.0772763 0.000342297 0.0832178)
(0.521722 0.00297365 0.0486951)
(0.102542 0.000577618 0.012407)
(0.0175164 -0.000104915 -0.0278741)
(0.313452 0.000184275 0.126368)
(0.402546 -0.000891888 0.02134)
(0.336682 -0.00163892 0.160097)
(0.392994 -0.00205161 0.0497748)
(0.383273 0.0585589 0.0445237)
(-0.00134154 -0.00558375 0.0183845)
(0.344338 0.00185444 -0.022107)
(0.243641 0.00104341 0.169227)
(-0.00311372 0.0545958 -0.0370038)
(0 0 0)
(0.141456 -0.0010846 0.166995)
(0.454381 -0.0028767 0.105758)
(0.398082 -0.0017568 0.122411)
(0.0859833 -0.0537394 -0.0449422)
(0 0 0)
(0.264386 0.00106944 -0.062715)
(0.269871 -0.028977 0.100203)
(0.26337 -0.00429063 0.0235153)
(0.476579 -0.000186894 0.164959)
(0.406802 0.00188875 -0.00503624)
(0.0464403 0.000394696 0.0156996)
(0.515383 0.00227865 0.0369267)
(0.265883 -0.00582441 0.0639824)
(0.334625 0.016614 0.0217077)
(0.274336 -0.00181709 0.0546089)
(0.174368 8.06483e-05 0.00493635)
(0.335827 0.000611866 0.195395)
(0.184165 0.000533643 0.051862)
(0.238756 0.000698293 0.111533)
(0.358306 0.00122013 0.0521414)
(0.289394 -0.0111288 0.0421527)
(0.365979 -0.0177327 0.0455169)
(0.146447 0.0003137 0.0168702)
(0.341906 -2.09137e-05 -0.00890636)
(0.221552 -0.00189054 0.0208068)
(0.376342 -0.00306732 0.0746914)
(0.394792 -0.00334876 0.0241693)
(0.326812 -0.000450139 0.0308763)
(0.114036 0.000961646 0.0754156)
(0.314564 0.000836858 0.220149)
(0.0328884 -0.00039948 0.0356424)
(0.281454 -0.000911348 0.0127892)
(0.433026 -0.00113063 0.0302288)
(0.211136 -0.000490377 0.0734784)
(0.155478 -0.0128277 -0.000658211)
(0.378861 -0.0137141 0.0600542)
(0.303862 -0.000752212 0.0938913)
(0.101043 0.000390744 0.192964)
(0 0 0)
(0.194694 -0.000297899 0.066042)
(0.0925713 -0.000124257 0.0713388)
(0.097358 -0.149712 0.0586104)
(0.0283163 -0.145456 6.25258e-09)
(0.0265355 -0.0016675 -0.0389496)
(0.135237 0.0323264 0.0855373)
(0.14285 -0.00114845 0.0753176)
(0.124997 -0.000815166 0.066333)
(0.196938 -0.000461039 0.000641206)
(0.507928 0.000592908 0.0164504)
(0.0107623 -0.0104176 0.0024348)
(0.129028 -0.0126147 0.0707356)
(0.341609 0.0469436 0.00494366)
(0.139591 0.000644438 -0.00705822)
(0.0208041 7.21536e-05 0.36016)
(0.218547 0.000750747 0.0390046)
(0.232494 0.0466766 0.0951873)
(0.31496 0.000129816 0.0374032)
(0.0102249 -0.000115568 1.26501e-07)
(0.220516 -0.00150827 0.235619)
(0.0759655 -0.000152485 0.0424786)
(0.0250976 -1.45046e-07 -0.0604898)
(0.248663 0.0657013 -0.0143524)
(0.201948 -0.000700007 0.0295672)
(0.116755 0.0647388 0.0510487)
(0.172633 0.000222136 0.0904565)
(0.23836 0.00720296 -0.00514491)
(0.259886 -0.000221715 0.0672845)
(0.114441 -0.00887024 0.0690182)
(0.133219 -0.000479804 0.0270629)
(0.24618 -0.000673666 0.0568713)
(0.272707 0.00200297 0.318306)
(0.172131 0.000805772 -0.0186241)
(0.188871 0.0508964 -0.00423603)
(0.364708 0.0318116 0.131252)
)
;

boundaryField
{
    wall
    {
        type            zeroGradient;
    }
    outlet
    {
        type            cyclic;
    }
    inlet
    {
        type            cyclic;
    }
    procBoundary3to2
    {
        type            processor;
        value           uniform (0 0 0);
    }
}


// ************************************************************************* //
