FoamFile
{version 2.0; format ascii;class Cloud<passiveParticle>; location 0;object  positions;}
2497
(
( -0.00235106 0.000122366 0.00186602 ) 0 
( -0.0123721 0.00064443 0.00321582 ) 0 
( -0.0123494 0.000403827 0.00224046 ) 0 
( -0.00875497 0.000180743 0.00563725 ) 0 
( -0.00848529 8.59804e-05 0.00372291 ) 0 
( -0.00221755 0.00064567 0.00764058 ) 0 
( -0.00319272 0.000163695 0.00132814 ) 0 
( -0.0119616 0.00012151 0.00136307 ) 0 
( -0.00428021 0.000145164 0.00608475 ) 0 
( -0.000294229 9.25612e-05 0.00287184 ) 0 
( -0.0110761 9.41671e-05 0.00645573 ) 0 
( -0.0133434 0.000420599 0.00213284 ) 0 
( -0.00586674 0.000168472 0.00339513 ) 0 
( -0.00374958 0.00011917 0.000499194 ) 0 
( -0.00831559 0.000281827 0.00272928 ) 0 
( -0.00524854 0.000410049 0.00813488 ) 0 
( -0.0093933 1.69039e-05 0.0129983 ) 0 
( -0.0048615 1.15966e-05 0.0129031 ) 0 
( -0.0110887 0.00151933 0.0141792 ) 0 
( -0.0112817 0.00329445 0.014969 ) 0 
( -0.00775913 0.000638643 0.0142375 ) 0 
( -0.00668434 0.000217569 0.0145271 ) 0 
( -0.000895093 0.000116598 0.0106827 ) 0 
( -0.00691323 4.55962e-05 0.0131159 ) 0 
( -0.0127372 0.000246518 0.0120636 ) 0 
( -0.0108618 0.000564938 0.0139853 ) 0 
( -0.00827275 0.000493539 0.012916 ) 0 
( -0.0059407 0.000274104 0.0131578 ) 0 
( -0.00234554 6.78547e-05 0.0115824 ) 0 
( -0.00284065 5.25661e-06 0.00901871 ) 0 
( -0.00910772 0.000993724 0.00162689 ) 0 
( -0.00113735 0.00974635 0.00123754 ) 0 
( -0.00617086 0.00410259 0.00403302 ) 0 
( -0.00542047 0.00376652 0.00701355 ) 0 
( -0.00202019 0.00569763 0.00325896 ) 0 
( -0.000618353 0.0116265 0.00750767 ) 0 
( -0.00112505 0.0120283 0.00154927 ) 0 
( -0.0125063 0.00187637 0.00144873 ) 0 
( -0.00652282 0.00616616 0.00477899 ) 0 
( -0.00263937 0.0109355 0.00733548 ) 0 
( -0.0120303 0.00256815 0.000499731 ) 0 
( -0.0034536 0.0087698 0.00454714 ) 0 
( -0.00998093 0.00261339 0.000499347 ) 0 
( -0.00983311 0.00764699 0.00049949 ) 0 
( -0.010511 0.00658231 0.00292401 ) 0 
( -0.00727864 0.00430957 0.00211501 ) 0 
( -0.00430561 0.00553508 0.00337268 ) 0 
( -0.00328051 0.00545041 0.00326409 ) 0 
( -0.0109013 0.00564471 0.0011898 ) 0 
( -0.0120907 0.000959447 0.00592027 ) 0 
( -0.00756883 0.00631204 0.0062272 ) 0 
( -0.00257727 0.00166302 0.005478 ) 0 
( -0.00391667 0.00886041 0.00542927 ) 0 
( -0.00525547 0.00439006 0.00489303 ) 0 
( -0.00548582 0.00603016 0.00218624 ) 0 
( -0.00672523 0.00932469 0.000499719 ) 0 
( -0.000368533 0.00524269 0.00440452 ) 0 
( -0.0110934 0.00310606 0.000499772 ) 0 
( -0.00109467 0.010518 0.00323231 ) 0 
( -0.00859664 0.00921854 0.00577626 ) 0 
( -0.000676728 0.0073239 0.00539781 ) 0 
( -0.00634658 0.000457199 0.00204011 ) 0 
( -0.00533396 0.00934049 0.00200484 ) 0 
( -0.0123104 0.0051658 0.00476736 ) 0 
( -0.00167059 0.00498907 0.00124338 ) 0 
( -0.000916526 0.00355717 0.00337654 ) 0 
( -0.012653 0.00425742 0.000499697 ) 0 
( -0.000862401 0.00779856 0.00381497 ) 0 
( -0.00693767 0.00974362 0.00238787 ) 0 
( -0.00550591 0.00221503 0.00736949 ) 0 
( -0.00336294 0.00944745 0.00602334 ) 0 
( -0.00173416 0.00781635 0.00670824 ) 0 
( -0.0104452 0.00320146 0.00228617 ) 0 
( -0.0036425 0.00614556 0.00500417 ) 0 
( -0.00112049 0.00437581 0.00676482 ) 0 
( -0.00133775 0.00945807 0.00331488 ) 0 
( -0.0110844 0.00466331 0.00342685 ) 0 
( -0.00314303 0.00872144 0.000499775 ) 0 
( -0.000556707 0.0126782 0.00389171 ) 0 
( -0.010622 0.00159897 0.00135819 ) 0 
( -0.00844295 0.00375212 0.00381045 ) 0 
( -0.00897675 0.00801765 0.00576598 ) 0 
( -0.00504552 0.00307747 0.000949455 ) 0 
( -0.00201548 0.00441696 0.00049949 ) 0 
( -0.00165779 0.0104366 0.00405445 ) 0 
( -0.00297865 0.00233455 0.00485124 ) 0 
( -0.00945606 0.000336368 0.00427971 ) 0 
( -0.00376883 0.0103499 0.00587958 ) 0 
( -0.0031908 0.0120501 0.00688966 ) 0 
( -0.0069798 0.00324567 0.00500017 ) 0 
( -0.00799997 0.00457454 0.00345428 ) 0 
( -0.00324619 0.00553058 0.00571249 ) 0 
( -0.0100415 0.00724247 0.00138943 ) 0 
( -0.00164791 0.00131852 0.00294923 ) 0 
( -0.0057388 0.00712196 0.00337951 ) 0 
( -0.00104436 0.00801897 0.00217486 ) 0 
( -0.00580344 0.00138006 0.00690032 ) 0 
( -0.00262267 0.00111361 0.00685557 ) 0 
( -0.000625855 0.00501075 0.00333123 ) 0 
( -0.00386891 0.00978776 0.00505872 ) 0 
( -0.00724423 0.0100249 0.00136585 ) 0 
( -0.00431299 0.0106964 0.00217117 ) 0 
( -0.00533945 0.00836895 0.0049776 ) 0 
( -0.00596222 0.0104411 0.00642468 ) 0 
( -0.0119507 0.00483689 0.00389457 ) 0 
( -0.00497892 0.00286093 0.00192317 ) 0 
( -0.00185453 0.0108046 0.0064032 ) 0 
( -0.00215667 0.00447355 0.0045597 ) 0 
( -0.00556519 0.000595697 0.00141873 ) 0 
( -0.00222474 0.000795093 0.00582759 ) 0 
( -0.00966875 0.00397163 0.00500951 ) 0 
( -0.0104301 0.00309617 0.00129205 ) 0 
( -0.00146728 0.00675494 0.00686541 ) 0 
( -0.00266792 0.00565334 0.00249843 ) 0 
( -0.00797408 0.000516858 0.00717151 ) 0 
( -0.0121372 0.00245833 0.00322956 ) 0 
( -0.00287551 0.011243 0.00415375 ) 0 
( -0.00059498 0.0105146 0.00655616 ) 0 
( -0.00271717 0.00283236 0.00243554 ) 0 
( -0.00194608 0.00979057 0.0019052 ) 0 
( -0.00440811 0.00579715 0.00672001 ) 0 
( -0.00597163 0.00529503 0.00144361 ) 0 
( -0.00688655 0.00289092 0.0037562 ) 0 
( -0.00681587 0.00128063 0.00726624 ) 0 
( -0.00449529 0.00350361 0.00251712 ) 0 
( -0.0109158 0.00413159 0.00640626 ) 0 
( -0.00891135 0.00587385 0.00393533 ) 0 
( -0.00413622 0.00236138 0.00282714 ) 0 
( -0.00301188 0.00258544 0.00590324 ) 0 
( -0.000120105 0.00308548 0.00196725 ) 0 
( -0.00326431 0.00900377 0.00269685 ) 0 
( -0.0066793 0.0115591 0.0053555 ) 0 
( -0.00238947 0.00714975 0.00465703 ) 0 
( -0.00774851 0.00259845 0.00334248 ) 0 
( -0.0033803 0.00323829 0.0046951 ) 0 
( -0.0113983 0.000794327 0.00521813 ) 0 
( -0.00991782 0.00741636 0.00236599 ) 0 
( -0.0111956 0.0043117 0.00435631 ) 0 
( -0.000992042 0.00341447 0.00775678 ) 0 
( -0.00770353 0.0066338 0.00716415 ) 0 
( -0.00167655 0.000815977 0.000499645 ) 0 
( -0.0130403 0.00285901 0.00594331 ) 0 
( -0.00383416 0.00652118 0.00710224 ) 0 
( -0.000952674 0.0016505 0.00463561 ) 0 
( -7.90985e-05 0.00954557 0.00447081 ) 0 
( -0.00241983 0.00895575 0.00408562 ) 0 
( -0.000149972 0.00389112 0.0025587 ) 0 
( -0.012012 0.00581679 0.00548543 ) 0 
( -0.00791946 0.00753805 0.00679653 ) 0 
( -0.00476481 0.00408252 0.00769916 ) 0 
( -0.0121563 0.00290574 0.00143238 ) 0 
( -0.00448389 0.00348527 0.00598273 ) 0 
( -0.00381792 0.00513316 0.0071787 ) 0 
( -0.0100352 0.00201937 0.00362391 ) 0 
( -0.0106327 0.00533061 0.00570154 ) 0 
( -0.00951138 0.000692574 0.0052123 ) 0 
( -0.0060963 0.0014367 0.00131808 ) 0 
( -0.00329392 0.000796506 0.00366872 ) 0 
( -0.00764669 0.000212628 0.00809821 ) 0 
( -0.0113215 0.00707332 0.00466521 ) 0 
( -0.00338916 0.0108141 0.00341091 ) 0 
( -0.00454253 0.000511217 0.00481463 ) 0 
( -0.00507667 0.0026267 0.00309193 ) 0 
( -0.00881789 0.00626558 0.00302012 ) 0 
( -0.00445279 0.00788023 0.00694609 ) 0 
( -0.00582329 0.000669074 0.00598412 ) 0 
( -0.00554953 0.00794557 0.00207261 ) 0 
( -0.00308162 0.00691526 0.00536367 ) 0 
( -0.00283705 0.00760891 0.00604106 ) 0 
( -0.00126866 0.000378329 0.00747542 ) 0 
( -0.0127993 0.000716979 0.00134809 ) 0 
( -0.00971638 0.00629285 0.00345748 ) 0 
( -0.0119098 0.00108763 0.00161451 ) 0 
( -0.00282561 0.0107988 0.000499737 ) 0 
( -0.00439596 0.00835947 0.00464673 ) 0 
( -0.00831382 0.00451599 0.00250668 ) 0 
( -0.00170643 0.00292907 0.00347911 ) 0 
( -0.00343551 0.0129005 0.00191546 ) 0 
( -0.00368911 0.00841232 0.00731013 ) 0 
( -0.00335567 0.00952903 0.00127041 ) 0 
( -0.00512116 0.0114078 0.00127477 ) 0 
( -0.0113524 0.00126525 0.000499774 ) 0 
( -0.00324758 0.00203243 0.00215517 ) 0 
( -0.0053424 0.0102781 0.00565728 ) 0 
( -0.00230971 0.0064872 0.00128111 ) 0 
( -0.00306358 0.00027209 0.00567678 ) 0 
( -0.00965694 0.00819071 0.00294164 ) 0 
( -0.0130557 0.00274008 0.00693583 ) 0 
( -0.00520697 0.00697199 0.00249384 ) 0 
( -0.00792837 0.00544791 0.00131465 ) 0 
( -0.00655031 0.00781006 0.00594098 ) 0 
( -0.00458875 0.00767841 0.00214831 ) 0 
( -0.00595949 0.0119458 0.00320033 ) 0 
( -0.00306407 0.0115534 0.00508527 ) 0 
( -0.00874444 0.00867576 0.00135186 ) 0 
( -0.0104645 0.000807799 0.00486091 ) 0 
( -0.00318795 0.00579023 0.00676533 ) 0 
( -0.00294302 0.00941381 0.00511656 ) 0 
( -0.0108962 0.00114381 0.00347313 ) 0 
( -0.00368565 0.00579027 0.00087111 ) 0 
( -0.00966956 0.00566473 0.000499741 ) 0 
( -0.00217007 0.0122879 0.00251024 ) 0 
( -0.00496499 0.0100636 0.00258822 ) 0 
( -0.00693725 0.00508752 0.00509442 ) 0 
( -0.00602606 0.000909905 0.00775414 ) 0 
( -0.00702984 0.00699307 0.00443869 ) 0 
( -0.00555764 0.00163328 0.000499411 ) 0 
( -0.00382415 0.0107452 0.000499797 ) 0 
( -0.00330999 0.00117389 0.00496988 ) 0 
( -0.00190172 0.00820647 0.00367291 ) 0 
( -7.97334e-05 0.00573725 0.00287711 ) 0 
( -0.0115413 0.00196018 0.00120661 ) 0 
( -0.00486547 0.00164788 0.00547982 ) 0 
( -0.00441629 0.00348064 0.00698015 ) 0 
( -0.00248757 0.00430474 0.00548808 ) 0 
( -0.00977812 0.00249131 0.00446648 ) 0 
( -0.00968494 0.00376194 0.0013112 ) 0 
( -0.00152958 0.0106367 0.00157275 ) 0 
( -0.00138909 0.00902304 0.00617202 ) 0 
( -0.00230185 0.0107043 0.0047711 ) 0 
( -0.00213198 0.0046646 0.00652037 ) 0 
( -0.00383632 0.00417113 0.00204509 ) 0 
( -0.00409114 0.00100592 0.00557264 ) 0 
( -0.000333836 0.00679521 0.00332616 ) 0 
( -0.00746637 0.00457363 0.00116905 ) 0 
( -0.00781033 0.0108269 0.00208819 ) 0 
( -0.0084569 0.00249435 0.00683492 ) 0 
( -0.00717931 0.00208446 0.006326 ) 0 
( -0.00623989 0.00220491 0.00415755 ) 0 
( -0.00427862 0.00862134 0.00202865 ) 0 
( -0.00813433 0.0036446 0.00205043 ) 0 
( -0.0109058 0.00770062 0.00619529 ) 0 
( -0.00913961 0.00133401 0.00049978 ) 0 
( -0.00561921 0.00376157 0.000499581 ) 0 
( -0.00773164 0.00599142 0.00049937 ) 0 
( -0.00402942 0.0123179 0.00136096 ) 0 
( -0.00307999 0.00467536 0.0062032 ) 0 
( -0.00503359 0.000173485 0.000499796 ) 0 
( -0.0120726 0.00230314 0.0022421 ) 0 
( -0.00489146 0.0111799 0.00394197 ) 0 
( -0.00328245 0.000408129 0.00711315 ) 0 
( -0.011239 0.00195542 0.00719595 ) 0 
( -0.00204577 0.00386926 0.00787034 ) 0 
( -0.00429164 0.00337537 0.00348769 ) 0 
( -0.00271784 0.0114267 0.00272423 ) 0 
( -0.00138929 0.0132776 0.00182617 ) 0 
( -0.0121462 0.00403325 0.00179976 ) 0 
( -4.73863e-06 0.00297988 0.000503196 ) 0 
( -0.00859939 0.00494357 0.00418828 ) 0 
( -0.000871957 0.0083218 0.00667707 ) 0 
( -0.00292585 0.00678698 0.00677949 ) 0 
( -0.0068145 0.00902644 0.00307371 ) 0 
( -0.00596463 0.00770948 0.00119237 ) 0 
( -3.43211e-05 0.0105172 0.00571406 ) 0 
( -0.00972012 0.00844176 0.00134151 ) 0 
( -0.00978384 0.00162011 0.00495737 ) 0 
( -0.01148 0.004638 0.0013643 ) 0 
( -0.00229037 0.00197483 0.00723908 ) 0 
( -4.12504e-06 0.00819944 0.004145 ) 0 
( -0.0016878 0.00641397 0.000499632 ) 0 
( -0.00753672 0.00697204 0.000499717 ) 0 
( -0.00309259 0.00957867 0.00704496 ) 0 
( -0.00209793 0.0122506 0.00148974 ) 0 
( -0.00203962 0.0131934 0.00469487 ) 0 
( -0.00561805 0.0121104 0.00542128 ) 0 
( -0.00735465 0.0049808 0.00417506 ) 0 
( -0.00281167 0.00737907 0.00129742 ) 0 
( -0.00429863 0.005855 0.00570017 ) 0 
( -0.0123457 0.00226695 0.00418859 ) 0 
( -0.00440285 0.00300521 0.00443045 ) 0 
( -0.00107102 0.00426661 0.00268892 ) 0 
( -0.00399184 0.00976391 0.00200526 ) 0 
( -0.00622878 0.0015681 0.00848289 ) 0 
( -0.00370417 0.0128264 0.00572671 ) 0 
( -0.00669683 0.00807335 0.00335903 ) 0 
( -0.00133159 0.00277895 0.00132456 ) 0 
( -0.00445341 0.00380241 0.00503191 ) 0 
( -0.008928 0.00353525 0.0055221 ) 0 
( -0.00480551 0.00548281 0.00763588 ) 0 
( -0.00015913 0.0120091 0.00129155 ) 0 
( -0.0017239 0.0030166 0.00830889 ) 0 
( -0.00371497 0.00293319 0.00212262 ) 0 
( -0.000177876 0.00718272 0.000499597 ) 0 
( -0.00011065 0.00995805 0.00222218 ) 0 
( -0.00852268 0.00606242 0.00640106 ) 0 
( -0.00127126 0.00929263 0.00521644 ) 0 
( -0.00585449 0.00251913 0.00511001 ) 0 
( -0.00218833 0.00343937 0.00590549 ) 0 
( -0.0101877 0.00743693 0.0033302 ) 0 
( -0.000110879 0.010847 0.00281967 ) 0 
( -0.00101375 0.00845553 0.00307655 ) 0 
( -0.00508959 0.00506687 0.00185527 ) 0 
( -0.00168456 0.00529141 0.00423063 ) 0 
( -0.00541171 0.0103172 0.00400675 ) 0 
( -0.00141247 0.00593292 0.00494787 ) 0 
( -0.00371341 0.00393649 0.00643231 ) 0 
( -0.0098592 0.00900155 0.00716725 ) 0 
( -0.00137592 0.00752675 0.00300084 ) 0 
( -0.00611708 0.0110842 0.000501951 ) 0 
( -0.00251522 0.00443934 0.00136502 ) 0 
( -0.00711448 0.00611056 0.00397493 ) 0 
( -0.0119708 0.00354956 0.00068189 ) 0 
( -0.0116714 0.00159589 0.00303219 ) 0 
( -0.0063543 0.0102414 0.00433741 ) 0 
( -0.00923901 0.000313194 0.00234736 ) 0 
( -0.00448399 0.00217775 0.00790318 ) 0 
( -0.00277901 0.0130532 0.00400204 ) 0 
( -0.00981018 0.0078625 0.00463246 ) 0 
( -0.000320549 0.00774169 0.00297469 ) 0 
( -0.00733158 0.000123178 0.00171091 ) 0 
( -0.00991357 0.0034026 0.00395195 ) 0 
( -9.15951e-05 0.000469411 0.00193509 ) 0 
( -0.00552009 0.00932574 0.00541028 ) 0 
( -0.0067711 0.00505504 0.00326038 ) 0 
( -0.00360895 0.00451841 0.00108061 ) 0 
( -0.0113093 0.00184165 0.0062053 ) 0 
( -0.00462285 0.00198812 0.000499824 ) 0 
( -0.00012494 0.000545506 0.000499737 ) 0 
( -0.00385453 0.00163556 0.00734618 ) 0 
( -0.000647222 0.00593179 0.00372131 ) 0 
( -0.00720902 0.00773084 0.00511855 ) 0 
( -0.00390561 0.00237291 0.0013167 ) 0 
( -0.00685476 0.00893093 0.00669265 ) 0 
( -0.00708452 0.0082468 0.00426432 ) 0 
( -0.00836173 0.00271091 0.00143471 ) 0 
( -0.00397764 0.00285217 0.0053977 ) 0 
( -0.000720953 0.0101941 0.00506352 ) 0 
( -0.0015986 0.0113882 0.00302955 ) 0 
( -0.0133123 0.00101018 0.00581244 ) 0 
( -0.00840098 0.00278907 0.0040756 ) 0 
( -0.00921828 0.00965639 0.00512312 ) 0 
( -0.000274992 0.00729798 0.00448236 ) 0 
( -0.0098754 0.00698159 0.0041643 ) 0 
( -0.00928611 0.00779968 0.00378353 ) 0 
( -0.0118325 0.00618238 0.00147549 ) 0 
( -0.00291935 0.00978029 0.00213428 ) 0 
( -0.0108742 0.00773946 0.000499703 ) 0 
( -0.00337497 0.00638913 0.00281435 ) 0 
( -2.54834e-05 0.0012637 0.00119266 ) 0 
( -0.00471847 0.00451408 0.00572938 ) 0 
( -0.000669714 0.0016406 0.00710016 ) 0 
( -0.0115793 0.00486742 0.00603524 ) 0 
( -0.000568031 0.00505446 0.00233387 ) 0 
( -0.00405586 0.0111352 0.00642778 ) 0 
( -0.00892863 0.00686684 0.00382074 ) 0 
( -0.0126926 0.00365211 0.00544344 ) 0 
( -0.0125224 0.0046275 0.00558283 ) 0 
( -0.0110472 0.00212286 0.00360855 ) 0 
( -0.00738998 0.00172019 0.00387036 ) 0 
( -0.000704984 0.00972864 0.00594864 ) 0 
( -0.00286115 0.0130402 0.000499563 ) 0 
( -0.00673882 0.00604184 0.00708393 ) 0 
( -0.00819378 0.000623004 0.00179076 ) 0 
( -0.0128324 0.00368133 0.0064765 ) 0 
( -0.0080542 0.00764133 0.00228174 ) 0 
( -0.00929952 0.0041768 0.00410331 ) 0 
( -0.00179364 0.0114821 0.00205346 ) 0 
( -0.0100045 0.00883947 0.004718 ) 0 
( -0.00322816 0.0011793 0.00606286 ) 0 
( -0.0123278 0.00197028 0.0061524 ) 0 
( -0.011434 0.000305943 0.00328925 ) 0 
( -0.000938072 0.00744216 0.00109472 ) 0 
( -0.00690974 0.0103957 0.00610878 ) 0 
( -0.00329978 0.00773243 0.000499737 ) 0 
( -0.010869 0.00598376 0.00642092 ) 0 
( -0.00674304 0.00440783 0.000499491 ) 0 
( -0.00149187 0.00193575 0.0038339 ) 0 
( -0.00838521 0.00848554 0.00642241 ) 0 
( -0.010039 0.003701 0.005898 ) 0 
( -0.00595159 0.0068704 0.007196 ) 0 
( -0.0117986 0.00172087 0.00534181 ) 0 
( -0.00130783 0.0065699 0.00332506 ) 0 
( -0.00128756 0.00182011 0.00558584 ) 0 
( -0.00210516 0.00235659 0.00179676 ) 0 
( -0.000465857 0.009679 0.000499702 ) 0 
( -0.00488134 0.000937956 0.00618347 ) 0 
( -0.00114964 0.00685504 0.00428587 ) 0 
( -0.000849234 0.00686174 0.00247206 ) 0 
( -0.00147681 0.0123927 0.00445128 ) 0 
( -0.00498978 0.0113566 0.00670708 ) 0 
( -0.000795023 0.0012876 0.000499829 ) 0 
( -0.0108954 0.0036382 0.00367199 ) 0 
( -0.00194072 0.0116428 0.00723147 ) 0 
( -0.00317963 0.00369772 0.00145668 ) 0 
( -0.00122232 0.00977744 0.00680679 ) 0 
( -0.00948953 0.00431091 0.00049923 ) 0 
( -0.0101676 0.00705181 0.00511779 ) 0 
( -0.00058183 0.00431326 0.00760482 ) 0 
( -0.0119187 0.00327639 0.00241226 ) 0 
( -0.00873116 0.00600954 0.000499622 ) 0 
( -0.00872687 0.00117246 0.00253393 ) 0 
( -0.00167858 0.0114957 0.00402954 ) 0 
( -0.00649376 0.0070282 0.00528477 ) 0 
( -0.0110237 0.000670409 0.00141298 ) 0 
( -0.0108579 0.00213431 0.000499378 ) 0 
( -0.0026534 0.00532162 0.0074715 ) 0 
( -0.00411501 0.0113232 0.00141791 ) 0 
( -0.00939905 0.00628754 0.00470395 ) 0 
( -0.00193292 0.00625434 0.00412539 ) 0 
( -0.00485332 0.00772981 0.00604259 ) 0 
( -0.00417469 0.00288194 0.000499521 ) 0 
( -0.00958765 0.00667752 0.000499796 ) 0 
( -0.0054274 0.00222148 0.00129718 ) 0 
( -0.00629776 0.00533934 0.0004996 ) 0 
( -0.00270324 0.0052688 0.00482149 ) 0 
( -0.00632524 0.00411468 0.00725834 ) 0 
( -0.00241261 0.00621134 0.00500174 ) 0 
( -0.0106332 0.00176371 0.00444999 ) 0 
( -0.00182991 0.00416727 0.00204145 ) 0 
( -0.00350357 0.00665909 0.00134685 ) 0 
( -0.00701807 0.0029366 0.00274961 ) 0 
( -0.00381325 0.00415718 0.00740199 ) 0 
( -0.00810534 0.0106081 0.00492332 ) 0 
( -0.000659629 0.0111529 0.00142047 ) 0 
( -0.00751926 0.00813179 0.00049942 ) 0 
( -0.00315294 0.00225427 0.00312552 ) 0 
( -0.00038742 0.00570405 0.00630077 ) 0 
( -0.00105138 0.00354119 0.0020011 ) 0 
( -0.0035589 0.0104928 0.00144567 ) 0 
( -0.00428744 0.00677412 0.00451124 ) 0 
( -0.00561531 0.00460394 0.00776351 ) 0 
( -0.0108485 0.00540538 0.00279974 ) 0 
( -0.0124941 0.00470389 0.00657928 ) 0 
( -0.0112666 0.00166183 0.0021202 ) 0 
( -0.0106086 0.0026438 0.00520315 ) 0 
( -0.00468744 0.00442845 0.00676426 ) 0 
( -0.00462463 0.00867457 0.0035724 ) 0 
( -0.00106066 0.0121437 0.00254043 ) 0 
( -0.0130965 0.00259083 0.00182296 ) 0 
( -0.00919112 0.00183622 0.00312059 ) 0 
( -0.00451439 0.00219532 0.00379723 ) 0 
( -0.0045865 0.00935161 0.00131523 ) 0 
( -0.00996744 0.00213568 0.00691073 ) 0 
( -0.00744257 0.0057946 0.00774904 ) 0 
( -0.000340882 0.0124776 0.00706346 ) 0 
( -0.00148997 0.00199281 0.00784722 ) 0 
( -0.00759421 0.00374566 0.00288691 ) 0 
( -0.0022769 0.0017665 0.000499451 ) 0 
( -0.00801152 0.00486284 0.00500336 ) 0 
( -0.00318353 0.00275137 0.000499621 ) 0 
( -0.0085955 0.00175898 0.00123746 ) 0 
( -0.0106816 0.00167632 0.00544495 ) 0 
( -0.00563337 0.00106731 0.0030245 ) 0 
( -0.00828737 0.00402812 0.00611 ) 0 
( -0.00743917 0.00893905 0.00108408 ) 0 
( -0.00272182 0.00382777 0.00233966 ) 0 
( -0.00219351 0.00270885 0.000822648 ) 0 
( -0.0048964 0.00747379 0.0048967 ) 0 
( -0.00927717 0.00660574 0.00148648 ) 0 
( -0.00667768 0.00144441 0.000499528 ) 0 
( -0.00159451 0.0103358 0.00552895 ) 0 
( -0.00972518 0.004968 0.00121454 ) 0 
( -0.00749288 0.000416553 0.00328117 ) 0 
( -0.0128926 0.00345325 0.00763276 ) 0 
( -0.000371939 0.00296784 0.00614724 ) 0 
( -0.00554751 0.00440905 0.0012578 ) 0 
( -0.00642002 0.00359215 0.00321014 ) 0 
( -0.0036173 0.00728606 0.00228253 ) 0 
( -0.000911748 0.00445251 0.00161354 ) 0 
( -0.0104374 0.00285534 0.00325089 ) 0 
( -0.00571954 0.00779879 0.00662143 ) 0 
( -0.00234113 0.00276092 0.00662363 ) 0 
( -0.0113837 0.000690009 0.00236619 ) 0 
( -0.0092677 0.00551881 0.00560165 ) 0 
( -0.0068351 0.0114678 0.00746212 ) 0 
( -0.00403114 0.00863472 0.00639739 ) 0 
( -0.000320432 0.0026006 0.00714051 ) 0 
( -0.000741503 0.00635315 0.00562796 ) 0 
( -0.000442596 0.0036633 0.00121755 ) 0 
( -0.00512439 0.00679135 0.0058188 ) 0 
( -0.000298721 0.00639418 0.00701857 ) 0 
( -0.00464225 0.00693444 0.00668292 ) 0 
( -0.00590228 0.0086997 0.00148942 ) 0 
( -0.00620733 0.00990373 0.00313737 ) 0 
( -0.000558663 0.00872524 0.00479112 ) 0 
( -0.00959444 0.00179012 0.00126821 ) 0 
( -0.000553876 0.00601008 0.00204011 ) 0 
( -0.00127003 0.00908469 0.000499688 ) 0 
( -7.6225e-05 0.00198257 0.000499638 ) 0 
( -0.00110385 0.00265283 0.00245697 ) 0 
( -0.00538814 0.00469923 0.00385512 ) 0 
( -0.000921124 0.011035 0.00576753 ) 0 
( -0.002425 0.00296484 0.00759858 ) 0 
( -0.00702 0.0113553 0.00443473 ) 0 
( -0.00584659 0.00153528 0.00532485 ) 0 
( -0.000330381 0.0111092 0.00496491 ) 0 
( -0.00681307 0.0114809 0.00144453 ) 0 
( -0.000656117 0.0123244 0.0061273 ) 0 
( -0.00877694 0.00126827 0.00557066 ) 0 
( -0.0103032 0.00847901 0.00366872 ) 0 
( -0.00435497 0.0065851 0.00284703 ) 0 
( -0.00860743 0.00568211 0.00486829 ) 0 
( -0.0123954 0.000376875 0.000499438 ) 0 
( -0.0069857 0.00418179 0.00464927 ) 0 
( -0.00882606 0.00503316 0.000690939 ) 0 
( -0.00589656 0.00899254 0.00696992 ) 0 
( -0.0042264 0.00103331 0.00049967 ) 0 
( -0.00932446 0.00828589 0.0067187 ) 0 
( -0.000688536 0.0106968 0.00412792 ) 0 
( -0.000277979 0.00290805 0.00295964 ) 0 
( -0.0045476 0.00381839 0.000499568 ) 0 
( -0.00595005 0.0111599 0.00387171 ) 0 
( -0.00795669 0.0101068 0.00328401 ) 0 
( -0.00744578 0.00263814 0.00711903 ) 0 
( -0.00995272 0.00889535 0.00220159 ) 0 
( -5.25333e-05 0.00356811 0.00806132 ) 0 
( -0.00117429 0.00170531 0.00214574 ) 0 
( -0.00478514 0.0124633 0.000500482 ) 0 
( -0.0100649 0.00610666 0.00542764 ) 0 
( -0.00774616 0.0108449 0.00109079 ) 0 
( -0.00771201 0.00167643 0.00706704 ) 0 
( -0.00317589 0.00464867 0.00799474 ) 0 
( -0.00207186 0.00371612 0.0068826 ) 0 
( -0.0125586 0.0026075 0.00510416 ) 0 
( -0.00984093 0.00580251 0.00175226 ) 0 
( -0.00221723 0.00721246 0.00734216 ) 0 
( -0.00712199 0.00436364 0.00670782 ) 0 
( -0.00693933 0.00046997 0.00496886 ) 0 
( -0.00197187 0.0100895 0.00285888 ) 0 
( -0.00835708 0.00187624 0.00367014 ) 0 
( -0.00433429 0.00930243 0.00431871 ) 0 
( -0.00321981 0.0121795 0.0042096 ) 0 
( -0.00843143 0.00460501 0.00150369 ) 0 
( -0.0096136 0.00159088 0.00224855 ) 0 
( -0.00718918 0.000952643 0.00225109 ) 0 
( -0.00464072 0.0121069 0.0056954 ) 0 
( -0.0114499 0.00686586 0.000499296 ) 0 
( -0.00685183 0.00698641 0.00677718 ) 0 
( -0.000191762 0.00786504 0.00609911 ) 0 
( -0.00182898 0.000958069 0.00203432 ) 0 
( -0.0101332 0.00144561 0.000499624 ) 0 
( -0.00799457 0.00945699 0.00173421 ) 0 
( -0.00816764 0.00311415 0.00499183 ) 0 
( -0.00821612 0.00708905 0.00309921 ) 0 
( -0.00903175 0.00868391 0.00493879 ) 0 
( -0.00425421 0.0126542 0.00258464 ) 0 
( -0.00861777 0.000560188 0.000871305 ) 0 
( -0.00711986 0.00293233 0.000499731 ) 0 
( -0.00568236 0.00756831 0.00550758 ) 0 
( -0.00739425 0.00727333 0.0059881 ) 0 
( -0.00402395 0.0118325 0.00493462 ) 0 
( -0.00533256 0.00507783 0.000499778 ) 0 
( -0.00548394 0.00518833 0.00696331 ) 0 
( -0.00427296 0.00924376 0.00281171 ) 0 
( -0.00952845 0.00295485 0.00728661 ) 0 
( -0.000384423 0.00717383 0.00789975 ) 0 
( -0.000888682 0.00434723 0.000499801 ) 0 
( -0.000934394 0.000977453 0.00149489 ) 0 
( -0.00945529 0.00510916 0.00470903 ) 0 
( -0.00165252 0.00605363 0.00591101 ) 0 
( -0.00696251 0.00533736 0.00157119 ) 0 
( -0.00909849 0.00753667 0.00116867 ) 0 
( -2.05346e-06 0.0068843 0.00605645 ) 0 
( -0.00767532 0.009198 0.00618772 ) 0 
( -0.00576835 0.0049279 0.00556202 ) 0 
( -0.00804089 0.000960427 0.00391637 ) 0 
( -0.00291661 0.0130275 0.00514512 ) 0 
( -0.000565436 0.00256231 0.00477165 ) 0 
( -0.00461383 0.00577313 0.000499619 ) 0 
( -0.0100249 0.000801662 0.00127915 ) 0 
( -0.00363129 0.00185734 0.000499752 ) 0 
( -0.0059067 0.0012798 0.00433964 ) 0 
( -0.00632628 0.000522683 0.0068356 ) 0 
( -0.000367543 0.00146373 0.00542451 ) 0 
( -0.00490395 0.00130712 0.00118192 ) 0 
( -0.00820607 0.00926978 0.00703186 ) 0 
( -0.00862133 0.00347986 0.00687605 ) 0 
( -0.00830889 0.00547911 0.00223851 ) 0 
( -0.011677 0.00149231 0.00406752 ) 0 
( -0.00664059 0.00495592 0.0060496 ) 0 
( -0.00867861 0.0064794 0.00732164 ) 0 
( -0.00537832 0.0122187 0.00243383 ) 0 
( -0.0045961 0.00193769 0.00189416 ) 0 
( -0.00495023 0.00980299 0.000500604 ) 0 
( -0.0107683 0.00437291 0.00544729 ) 0 
( -0.00152572 0.00274176 0.00446195 ) 0 
( -0.00310993 0.000992198 0.0018817 ) 0 
( -0.00729083 0.00625729 0.00135611 ) 0 
( -0.00680915 0.00890438 0.00185988 ) 0 
( -0.0089377 0.00991678 0.00333245 ) 0 
( -0.00962144 0.00113072 0.0071598 ) 0 
( -0.0124463 0.00133079 0.00468762 ) 0 
( -0.00437129 0.00480261 0.000499674 ) 0 
( -0.00636797 2.73122e-05 0.0042488 ) 0 
( -0.00500868 0.0115242 0.00487306 ) 0 
( -0.00389084 0.00394539 0.00420571 ) 0 
( -0.00761567 0.00574811 0.00476044 ) 0 
( -0.0111955 0.000971038 0.00736444 ) 0 
( -0.000770149 0.00345441 0.0043689 ) 0 
( -0.00124386 0.00578093 0.0068848 ) 0 
( -0.0124292 0.00138515 0.00241529 ) 0 
( -0.00912991 0.00324268 0.0045877 ) 0 
( -0.00526546 0.0019982 0.00632677 ) 0 
( -0.00597812 0.0109312 0.00148014 ) 0 
( -0.00861998 0.00210492 0.00477715 ) 0 
( -0.0106276 0.000576585 0.000499715 ) 0 
( -0.00479706 0.0111098 0.0057577 ) 0 
( -0.00733384 0.00836529 0.00253233 ) 0 
( -0.0102723 0.00436492 0.00396111 ) 0 
( -0.00335155 0.0105759 0.00472625 ) 0 
( -0.00244197 0.00253833 0.00403247 ) 0 
( -0.00808409 0.00131934 0.000499473 ) 0 
( -0.00290156 0.00742594 0.00366813 ) 0 
( -0.00287198 0.0107134 0.00559253 ) 0 
( -0.00107758 0.00232044 0.00643722 ) 0 
( -0.00670354 0.00688823 0.00349936 ) 0 
( -0.0105612 0.00816664 0.00251546 ) 0 
( -0.00794682 0.00156388 0.00202233 ) 0 
( -0.00974001 0.00358312 0.00288363 ) 0 
( -0.00619606 0.00338977 0.00627806 ) 0 
( -0.0132939 0.000907356 0.00381904 ) 0 
( -0.00193039 0.00721206 0.00377115 ) 0 
( -0.00340247 0.0105089 0.00685121 ) 0 
( -0.00466536 0.000728918 0.00212627 ) 0 
( -0.0073844 0.00657381 0.00527428 ) 0 
( -0.00923767 0.00167321 0.00411819 ) 0 
( -0.0133487 0.000188625 0.00311427 ) 0 
( -0.00358483 0.000223439 0.00482484 ) 0 
( -0.00249412 0.00496168 0.0037424 ) 0 
( -0.00652297 0.00444445 0.00147404 ) 0 
( -0.00640173 0.00932749 0.00393465 ) 0 
( -2.06048e-05 0.00105007 0.00296532 ) 0 
( -0.012331 0.00511624 0.000897695 ) 0 
( -0.00135847 0.00855024 0.00138819 ) 0 
( -0.00159434 0.00126376 0.00714525 ) 0 
( -0.00982907 0.00554463 0.00280405 ) 0 
( -0.00262871 0.000209347 0.000499647 ) 0 
( -0.00224243 0.00487964 0.00826848 ) 0 
( -0.012863 0.003573 0.00119762 ) 0 
( -0.0104733 0.000251106 0.00362741 ) 0 
( -0.00742909 0.00249678 0.00450092 ) 0 
( -0.0129188 0.00336342 0.00415265 ) 0 
( -0.00777798 0.01085 0.0040101 ) 0 
( -0.0023821 0.00088517 0.00120443 ) 0 
( -0.000488623 0.00619855 0.00467256 ) 0 
( -0.00642501 0.00496013 0.00232508 ) 0 
( -0.00276726 0.0055993 0.0013242 ) 0 
( -0.00164042 0.0038066 0.00401973 ) 0 
( -0.00818037 0.00177803 0.00618992 ) 0 
( -0.00853638 0.00698957 0.000518622 ) 0 
( -0.00293914 0.00174648 0.001248 ) 0 
( -0.00403708 0.0011912 0.00428358 ) 0 
( -0.00604441 0.00872484 0.00247888 ) 0 
( -0.00249607 0.000608928 0.00483529 ) 0 
( -0.00196142 0.00225298 0.00278088 ) 0 
( -0.00141338 0.0080951 0.000499667 ) 0 
( -0.00313359 0.00434 0.00472578 ) 0 
( -0.000477109 0.00520228 0.00716062 ) 0 
( -0.00501562 0.0123724 0.00151485 ) 0 
( -0.00386161 0.00821509 0.00284145 ) 0 
( -0.00495239 0.00154272 0.00448154 ) 0 
( -0.00762837 0.000469381 0.000762776 ) 0 
( -0.0069708 0.0103886 0.00356425 ) 0 
( -0.00318374 0.00492028 0.00193191 ) 0 
( -0.0114143 0.00513468 0.000499536 ) 0 
( -0.000427161 0.0133433 0.00211551 ) 0 
( -0.000666656 0.0128708 0.00126759 ) 0 
( -0.0104207 0.0067995 0.00605609 ) 0 
( -0.00275934 0.00470829 0.0028121 ) 0 
( -0.00563536 0.00685163 0.0015865 ) 0 
( -0.0116527 0.00461661 0.00257313 ) 0 
( -0.00943204 0.00277536 0.00131904 ) 0 
( -0.00616076 0.00668531 0.00258524 ) 0 
( -0.00395172 0.00975344 0.000499777 ) 0 
( -0.003557 0.00368324 0.000499743 ) 0 
( -0.0105033 0.00506818 0.00190323 ) 0 
( -0.00738113 0.00913119 0.00389217 ) 0 
( -0.0102485 0.00855604 0.0005004 ) 0 
( -0.00435654 0.00674946 0.00186071 ) 0 
( -0.00285224 0.00429565 0.00711708 ) 0 
( -0.00760517 0.00473162 0.00591346 ) 0 
( -0.00528284 0.00793964 0.000499458 ) 0 
( -0.000162611 0.0109503 0.000499552 ) 0 
( -0.00387772 0.0117743 0.00336483 ) 0 
( -0.012618 0.00435988 0.00261907 ) 0 
( -0.00297252 0.00778041 0.00701656 ) 0 
( -0.00192401 0.00778708 0.00175963 ) 0 
( -0.00630917 0.00955064 0.00612928 ) 0 
( -0.00492469 0.00530121 0.00513836 ) 0 
( -0.0033848 0.00250652 0.0074882 ) 0 
( -0.00709012 0.0113126 0.000499087 ) 0 
( -0.00114662 0.00288098 0.00552105 ) 0 
( -0.00210271 0.0123888 0.000499648 ) 0 
( -0.0127555 0.000240497 0.0061224 ) 0 
( -0.00570716 0.00347726 0.00158312 ) 0 
( -0.00478974 0.00104522 0.00358478 ) 0 
( -0.00257872 0.00651388 0.00340629 ) 0 
( -0.00685714 0.0103407 0.000499776 ) 0 
( -0.0101795 0.00232764 0.00187997 ) 0 
( -0.00604453 0.00690619 0.00619281 ) 0 
( -0.00547036 0.000248698 0.00247402 ) 0 
( -0.0122755 0.00524788 0.00303492 ) 0 
( -0.00680918 0.00231632 0.00532694 ) 0 
( -0.00108371 0.000106678 0.00638661 ) 0 
( -0.00764303 0.00351103 0.00667308 ) 0 
( -0.00386154 0.00637991 0.00369287 ) 0 
( -0.00473566 0.0104036 0.0064766 ) 0 
( -0.000211127 0.00749055 0.00201273 ) 0 
( -0.00824857 0.00862016 0.00221897 ) 0 
( -0.00608057 0.00837375 0.00408722 ) 0 
( -0.00292178 0.00660585 0.000499647 ) 0 
( -0.00682451 0.0106698 0.00202873 ) 0 
( -0.00795258 0.0039448 0.00754121 ) 0 
( -0.00138378 0.00221607 0.000499767 ) 0 
( -0.00305242 0.00511156 0.000499504 ) 0 
( -0.0068675 0.00397408 0.00582278 ) 0 
( -0.00887121 0.00508626 0.00641118 ) 0 
( -0.00518938 0.00505586 0.00285768 ) 0 
( -0.00379315 0.000238851 0.00212404 ) 0 
( -0.00207304 0.012302 0.00649131 ) 0 
( -0.00222153 0.00335362 0.00161247 ) 0 
( -0.004299 0.00776425 0.000499304 ) 0 
( -0.00663206 0.0115863 0.00635382 ) 0 
( -0.00711046 0.00416089 0.00365739 ) 0 
( -0.00928604 0.00572478 0.00707545 ) 0 
( -0.00479322 0.00594 0.0014688 ) 0 
( -0.00195007 0.00643166 0.0025712 ) 0 
( -0.0037507 0.00432654 0.00551259 ) 0 
( -0.000975873 0.00321715 0.000499386 ) 0 
( -0.00498731 0.00988807 0.00729545 ) 0 
( -0.00410544 0.000589686 0.00301491 ) 0 
( -0.00613556 0.00241491 0.00606391 ) 0 
( -0.00456161 0.00966352 0.00576887 ) 0 
( -0.00533508 0.000470248 0.00420626 ) 0 
( -0.00254755 0.00833906 0.00120619 ) 0 
( -0.00594183 0.000529504 0.00500122 ) 0 
( -0.00380708 0.0127962 0.0047326 ) 0 
( -0.00075273 0.00196848 0.00123553 ) 0 
( -0.0106865 0.00282758 0.00421897 ) 0 
( -0.00306445 0.00833853 0.0053963 ) 0 
( -0.00157913 0.000119958 0.00251917 ) 0 
( -0.00393536 0.00519058 0.00504494 ) 0 
( -0.00372026 0.000855649 0.00843849 ) 0 
( -0.0130669 0.00211228 0.00270022 ) 0 