FoamFile
{version 2.0; format ascii;class vectorField; location 0;object  v;}
2497
(
( -9.37368e-05 -0.000193332 0.000670838 )  
( -0.0011502 0.000383568 0.000576358 )  
( 0.00031772 0.000993513 -1.16819e-05 )  
( -0.00018122 -0.00140013 0.00135306 )  
( 0.000330223 -3.35326e-05 3.7377e-05 )  
( -0.000396196 -0.000414812 0.00122553 )  
( -1.56943e-06 -0.000606262 0.000311333 )  
( 0.000640145 0.000879564 7.2521e-05 )  
( 0.00284319 0.00131354 0.0016111 )  
( -0.000272278 -0.00116436 -0.000911983 )  
( -0.0004872 8.89093e-06 0.00152388 )  
( 6.45252e-05 -0.000435216 0.000698139 )  
( 0.000147803 -0.000546727 0.00020569 )  
( 0.00029296 -0.00055224 6.74844e-05 )  
( 0.000816851 6.85648e-05 0.000173731 )  
( 5.64727e-05 -5.94167e-05 0.00135837 )  
( -0.000342595 -0.000389206 0.00110747 )  
( 0.000127331 0.000197284 0.00128752 )  
( 0.000135627 -0.00021014 0.00131691 )  
( -0.000447172 -0.000901405 0.0013154 )  
( 0.000114598 0.000441625 0.00161037 )  
( 0.000432698 0.000148743 0.00170787 )  
( 1.42076e-05 -0.000218043 0.00131985 )  
( -3.70718e-05 0.000171537 0.00179993 )  
( -0.000567498 -0.000419612 0.00108416 )  
( 0.000105383 -0.000238662 0.000804595 )  
( -6.76866e-05 4.47091e-05 0.00148071 )  
( -5.54692e-05 0.000182793 0.00162228 )  
( -0.000410408 -6.92123e-07 0.00151897 )  
( -0.000162951 0.000492796 0.00145128 )  
( 0.000464499 -1.12125e-05 -0.00030019 )  
( 0.000243737 -0.000129331 -0.000312176 )  
( -0.000644953 3.97614e-05 0.000735222 )  
( 2.39702e-05 -0.000560258 0.000869169 )  
( -0.000490705 -0.000477167 0.000517677 )  
( -3.76383e-05 -0.000396608 0.000488565 )  
( 9.29305e-06 -0.000330847 0.000106051 )  
( 0.000197522 -0.000199297 0.000907764 )  
( -0.00139163 0.00115566 0.00151795 )  
( 0.000115895 -0.000431637 0.000426528 )  
( 0.000795562 -0.00297403 -6.34302e-05 )  
( -0.000259678 0.000558245 0.000516251 )  
( 0.000567308 -0.000456983 4.39078e-05 )  
( -0.000394476 -0.000336666 7.239e-05 )  
( -3.78711e-05 -0.000398561 0.00121547 )  
( 0.000375363 0.000495905 0.000296936 )  
( -0.00272444 0.000288962 0.00217743 )  
( -0.000416491 -4.0252e-05 -0.000610905 )  
( -0.00106316 0.000340532 0.0001401 )  
( 0.000517376 0.00040162 0.00217818 )  
( -0.00111719 -0.000254432 0.000669024 )  
( -0.000680679 0.000320068 0.00120901 )  
( -0.000566855 -0.000292586 0.000560141 )  
( 0.000290938 -0.000807933 0.00157664 )  
( 0.0007786 0.00040959 -0.000146758 )  
( 0.000109496 0.000104155 7.49262e-05 )  
( 0.00047904 -0.0012865 0.00286163 )  
( 8.53095e-05 1.36116e-05 7.066e-06 )  
( -0.00185238 0.00030772 0.000401469 )  
( -0.000158852 -0.0002049 0.00120679 )  
( 0.00166889 0.00055687 0.00205383 )  
( 0.000303275 -0.000331855 7.99836e-05 )  
( 1.10407e-05 -0.000507418 3.97397e-05 )  
( -0.000138466 -0.000792057 0.00244883 )  
( 0.000387819 0.000441508 -0.000472674 )  
( -0.000425854 -0.00114959 0.00159793 )  
( -0.000157466 -0.000122002 6.02504e-05 )  
( 0.00151523 -0.000741674 0.000674444 )  
( -0.00023955 -0.000134769 -0.000270588 )  
( 0.000122965 -0.00114259 0.000811859 )  
( -0.000724181 -0.00117938 0.000210008 )  
( -8.61087e-05 0.000964152 7.79161e-05 )  
( 0.000296086 0.000156564 0.00046917 )  
( -4.64437e-05 -0.000484356 0.00114092 )  
( -0.00060314 -0.000785215 0.000852494 )  
( 0.000681072 -0.00134263 0.00149505 )  
( -0.000469023 -0.000227144 0.000938746 )  
( -9.11128e-05 -0.000843581 -2.17028e-05 )  
( -9.65099e-05 1.71906e-05 0.000274601 )  
( 0.000259118 0.000194603 0.000213822 )  
( -0.000359518 -0.000311537 0.000669483 )  
( -0.00358886 -0.00579983 0.00753493 )  
( 5.78703e-05 0.000381611 9.12784e-05 )  
( 0.000331731 -0.00015882 1.73021e-05 )  
( -0.00129703 -0.000802562 0.000575027 )  
( -0.000315017 -0.000590513 0.00217157 )  
( 8.52724e-05 0.000421732 0.000238062 )  
( -0.000738973 -0.00109881 0.00102299 )  
( 0.00444065 0.00139037 0.00420247 )  
( 0.000290808 -0.000410668 0.00105588 )  
( -5.86486e-05 -0.00044417 0.000308243 )  
( -0.00222726 0.000636294 0.00438665 )  
( -0.000261472 -0.000263995 0.000191893 )  
( -7.22494e-05 8.25474e-05 -0.000297236 )  
( 0.000425274 -0.000377831 0.00115591 )  
( 0.000794836 -0.000154918 -0.000444591 )  
( 0.000151907 -0.000713454 0.00113603 )  
( -0.000236539 -0.00018271 0.00119597 )  
( 0.000640634 -0.000956563 0.000848664 )  
( -0.00127609 -0.000218944 0.00052724 )  
( -0.000117741 -0.000147341 -0.000197334 )  
( -0.000505789 0.000813667 0.000812701 )  
( -0.000181662 0.00129931 0.0011179 )  
( 0.000420087 -8.81547e-07 0.00175889 )  
( 0.000143864 -0.00138117 0.00268696 )  
( 0.000414566 0.000169806 1.68723e-05 )  
( 0.000155555 -0.000240424 -3.21829e-05 )  
( -0.00057179 0.00022068 0.000379971 )  
( 0.000198133 0.000125734 0.000569421 )  
( -0.00012642 0.000737114 0.00149826 )  
( -0.00012905 -0.000372301 0.00127978 )  
( -0.000433068 2.40148e-05 0.00031945 )  
( 0.000256942 -0.000105088 0.00120385 )  
( 0.000696698 0.000313109 -0.000429545 )  
( 0.000316259 -0.00109195 0.000722738 )  
( -0.00148941 0.000225355 -0.000156366 )  
( -0.000308691 -0.000669928 0.000927008 )  
( 0.000146958 -0.000172047 0.000235227 )  
( 4.93349e-05 3.12124e-05 0.000144999 )  
( 6.16961e-05 -0.000776352 0.000174759 )  
( 0.000405239 0.000432656 0.000630816 )  
( -0.000147997 0.000101745 -0.000144857 )  
( 0.000174255 -0.000500185 0.000655497 )  
( -0.0003765 -0.00105712 0.00114146 )  
( -0.000291294 0.000398037 0.000512982 )  
( -0.000169717 -0.000404308 0.000513291 )  
( -0.000544038 -0.000149044 0.000748485 )  
( 7.77188e-05 -0.000769622 -0.00161106 )  
( -0.000323411 -0.000166678 0.00197732 )  
( 0.000370414 -1.03711e-05 0.000264362 )  
( 0.000163926 0.000600892 -4.60041e-05 )  
( -0.000145547 6.31765e-05 0.000720721 )  
( -0.000552913 -0.000768484 0.00117971 )  
( -0.000178234 0.000359257 0.000466625 )  
( 0.000176336 -0.000626606 0.000537106 )  
( 0.0033379 0.00218517 0.00448296 )  
( 0.000450243 0.00012472 0.000121138 )  
( 0.000528809 0.00144136 0.0017144 )  
( -5.92772e-05 -6.59859e-05 0.00104884 )  
( -0.000284847 0.000156995 0.000817843 )  
( -8.68389e-06 0.000175832 0.000171968 )  
( -3.27518e-05 -0.000471361 0.000332173 )  
( 0.00123804 -0.000902736 0.00185659 )  
( 0.000342351 -0.000355119 0.00304263 )  
( -0.00109564 0.000595535 0.00101675 )  
( 0.000628907 5.3712e-05 0.00298349 )  
( -3.62726e-05 -0.000166169 0.000424732 )  
( 0.00132077 0.00107867 0.00429486 )  
( -0.000220153 -0.000108044 0.000377345 )  
( 0.000150367 -0.000698401 0.000730401 )  
( 0.00183498 0.00107041 -0.00143282 )  
( -0.000196858 -0.0010725 0.00119989 )  
( 1.89434e-05 0.000374426 0.00110344 )  
( -0.000699539 6.85955e-05 0.000556153 )  
( 0.000870318 0.000961564 0.00192398 )  
( 0.000170652 0.000290747 0.000421851 )  
( 0.000204484 0.000289947 0.000537158 )  
( 0.000532807 0.000771896 0.00178654 )  
( -9.5754e-05 -0.000243985 0.00181225 )  
( -0.000807616 -0.00194448 0.0046253 )  
( -0.00111904 8.59642e-05 0.00087992 )  
( 0.000367924 0.000577738 0.00134271 )  
( 0.00178292 0.000559846 -0.00052887 )  
( 5.56912e-05 -0.000631725 0.000640996 )  
( 0.000113495 -0.000499735 0.00100993 )  
( 0.000820581 -0.00104407 0.00128488 )  
( -0.000740529 -0.000646939 -0.000802416 )  
( -0.00232935 -0.000648669 0.00229193 )  
( 0.000329464 -0.000433042 0.000908617 )  
( -0.000424518 -0.000118772 0.00149112 )  
( 0.000177547 -0.000718123 0.000735129 )  
( -8.05344e-06 -0.000475635 0.000672423 )  
( -0.00048402 0.000861437 0.000503234 )  
( 0.000200689 -0.000503555 1.83537e-05 )  
( 7.84048e-05 0.000613245 0.00222808 )  
( -0.000359984 5.32102e-05 0.000237288 )  
( 0.000903105 -0.00242774 0.00165719 )  
( 0.000175059 -0.000122164 -0.000912859 )  
( 8.45182e-05 -0.000180762 0.000660474 )  
( -6.42866e-05 -0.00102488 7.34575e-05 )  
( 6.4755e-05 -0.000138924 0.000402318 )  
( 0.000246591 7.36567e-05 4.91568e-05 )  
( 0.00104565 -0.000607248 0.000193395 )  
( -0.000289911 -0.00010705 0.0012736 )  
( -0.000644023 0.000470252 -0.000413763 )  
( 0.000572229 -0.000346766 0.000937819 )  
( 0.000362986 2.15835e-05 0.000464652 )  
( -0.00161289 5.68843e-06 0.000437137 )  
( -0.000656925 0.00037195 -0.000466413 )  
( 4.76684e-05 -4.20948e-05 0.000285135 )  
( 0.000256905 0.000567848 0.000556879 )  
( -0.000220157 0.000601663 -0.00062495 )  
( 0.000355232 1.15719e-05 0.000939377 )  
( -0.000373658 -5.30867e-05 0.000934111 )  
( 0.000515361 0.00102625 -0.000404374 )  
( 0.00222759 0.00151896 0.00134494 )  
( 9.16027e-05 0.000635855 0.001561 )  
( -0.000445673 0.000950103 0.000243564 )  
( -0.000431587 0.000196313 0.0006088 )  
( -0.000669162 -0.000300221 -0.000729055 )  
( 4.05839e-05 -0.000236897 -0.000548213 )  
( 0.000570639 0.000790906 0.000305665 )  
( -0.000390009 -4.41728e-05 -6.61511e-05 )  
( -0.0014437 -0.00186343 0.00393273 )  
( -0.000133471 -0.000135728 0.00142398 )  
( -0.000451591 0.000660254 0.000483678 )  
( -0.00016128 0.000259932 9.19065e-05 )  
( 4.44227e-05 -0.000117304 -5.51003e-05 )  
( 0.000172803 -0.000169681 0.000454919 )  
( -0.00131509 -0.000695721 0.00140449 )  
( -0.000270508 -0.00122248 0.00109758 )  
( 0.000210021 0.00067244 0.000412239 )  
( 0.000806047 0.00151123 0.00277248 )  
( 9.53209e-05 -0.00092083 0.00113857 )  
( 0.000341374 0.000620284 0.000921083 )  
( -0.000947372 0.000506888 0.000486766 )  
( 9.91848e-05 -0.000395083 2.49749e-05 )  
( -0.000724968 -0.00046514 -0.001023 )  
( 0.000528228 -0.000563273 0.00172581 )  
( 7.42008e-05 -0.00024288 0.00172402 )  
( -9.72097e-05 -0.000128622 0.000714947 )  
( 0.000442152 -0.0012079 -0.00102567 )  
( -0.000968051 -0.00162856 -0.00105518 )  
( -0.00015476 -0.000257142 0.00034727 )  
( 0.000249173 2.79106e-05 0.000179684 )  
( -0.000248002 -8.04479e-06 0.000277998 )  
( 0.000128767 0.000149648 0.00110387 )  
( 0.000579277 -0.000691824 0.000952648 )  
( 0.000527886 -0.000635613 0.000484223 )  
( -0.000219896 0.00072906 0.000176361 )  
( 0.000441043 0.000493835 -0.000175693 )  
( 0.000386971 0.000605888 8.90453e-05 )  
( 0.000176655 -0.000324383 2.19332e-05 )  
( 0.000239571 0.000148214 -4.59835e-05 )  
( 8.04411e-05 2.46098e-05 0.000123514 )  
( -0.000166177 -0.000509832 -0.000186978 )  
( -0.000266056 -0.000719541 0.00123164 )  
( -0.000103989 -0.000898719 -6.50775e-07 )  
( 0.000907344 6.05902e-05 0.000229009 )  
( -0.00151089 -0.000250953 0.000962208 )  
( -0.000143283 5.78e-05 0.00159451 )  
( 0.00123148 -0.000117023 0.00140454 )  
( 0.000675347 -0.00215616 0.00235997 )  
( -3.5015e-05 5.38487e-05 0.000459442 )  
( -0.000739101 -0.000303774 0.000235761 )  
( -9.91433e-05 -2.18931e-05 4.49943e-05 )  
( 0.000316334 0.000740347 0.000173933 )  
( 4.21249e-05 -0.000576989 -0.000122997 )  
( -0.00224281 -0.000173132 0.00393232 )  
( 0.000520845 0.000309832 0.000288452 )  
( 0.000860029 -0.000396093 0.000797965 )  
( -0.000547817 0.000230306 0.000138863 )  
( 2.26666e-05 -0.000218045 0.000143802 )  
( -0.000657193 0.000252026 0.000280708 )  
( 8.32119e-05 -0.00130992 -1.63754e-05 )  
( -3.5348e-05 0.000786795 0.00135713 )  
( 0.000844771 0.000387396 0.000377612 )  
( -0.00037819 -0.000229933 0.000958566 )  
( -0.00054687 -0.000226666 0.000635459 )  
( 0.0014428 -0.000794672 4.15811e-06 )  
( 0.000298042 4.01162e-05 -8.04013e-05 )  
( 0.000129667 2.59544e-05 0.000731899 )  
( -7.71432e-05 -2.29471e-05 0.000241604 )  
( -0.000126036 8.69904e-06 0.000134187 )  
( 0.00178105 0.000713161 -0.000153024 )  
( 0.000327748 -0.000216004 0.000901921 )  
( 0.000451485 -0.000985592 -0.000678013 )  
( 0.000219556 -0.000646525 0.00112878 )  
( 0.000316082 0.000701553 0.00066442 )  
( 0.000417023 -0.00209834 0.00245331 )  
( -0.000298263 -0.000781635 0.00170063 )  
( 0.000232304 0.000923116 -0.00024996 )  
( 0.000383029 -0.000792177 0.00147643 )  
( 0.00051035 0.000109245 0.00166815 )  
( 7.45134e-05 -6.38257e-05 0.000301509 )  
( 0.000357756 -0.000676972 0.000148783 )  
( -0.000512609 -0.00163233 0.00190547 )  
( -0.00024709 0.000270185 0.000393152 )  
( -7.48348e-06 -0.000621214 0.000993378 )  
( -3.10264e-06 0.000142678 -8.08613e-05 )  
( -5.57721e-05 2.59257e-05 0.00113215 )  
( -0.000222006 0.00105906 -0.000671637 )  
( 0.000638621 -0.000463972 -4.48899e-05 )  
( -1.48015e-05 -0.000137306 0.000326761 )  
( 0.000264334 -0.000260019 0.00113213 )  
( 0.000570341 0.000422944 0.00207777 )  
( 0.000416348 -6.38706e-05 0.00299804 )  
( -0.00030621 0.000200258 0.0015784 )  
( -0.00054076 0.000166172 0.000474762 )  
( 0.000218651 -0.000841301 -0.000868194 )  
( 5.39886e-06 -0.000926133 0.000836503 )  
( -7.6987e-05 0.000380165 0.000120884 )  
( 0.00027424 0.00038426 0.00197221 )  
( -0.000374789 -7.00496e-05 0.00284891 )  
( -0.00016224 -0.000264249 0.00257626 )  
( -3.25747e-05 -0.000987949 0.000691495 )  
( -0.00123488 -0.00129532 0.00169653 )  
( -0.000123778 -0.000968593 0.0012249 )  
( 0.000280478 0.000360979 0.000246082 )  
( -0.000837851 0.000234304 -0.000651334 )  
( -0.000155572 6.4402e-06 0.00068329 )  
( -0.00168105 -0.0023124 -0.00330809 )  
( 0.000115259 0.00102376 0.000325683 )  
( 0.000314893 0.00075724 0.000896039 )  
( 0.000644489 0.000370658 0.000184193 )  
( -0.000273249 -0.000955539 0.000664204 )  
( 0.000246169 0.000224457 0.0039782 )  
( 0.000271574 -0.000134443 0.0011428 )  
( -0.000131743 -0.000486096 -0.000774424 )  
( 0.000219084 -0.000103364 4.92008e-05 )  
( -0.000639791 -9.61443e-05 -0.000803356 )  
( -0.000354104 0.00181549 -0.00100564 )  
( -0.000155156 -0.000254625 0.0013222 )  
( -0.000316503 -4.11164e-05 0.000298768 )  
( -0.000657885 -0.000177829 9.57293e-05 )  
( 0.000533035 1.63849e-05 0.00130027 )  
( -3.5036e-05 0.000102193 3.45132e-05 )  
( -0.000240285 -0.000293301 8.42512e-05 )  
( 0.000283657 -0.000169766 0.00092365 )  
( 4.91083e-06 -0.000389121 6.41041e-05 )  
( 0.000343956 6.23739e-05 0.000557313 )  
( 5.92222e-06 -0.00011688 9.71002e-05 )  
( -0.000101204 0.000271281 0.000609753 )  
( 0.00130242 -0.00031733 0.00105415 )  
( 0.00091576 0.000141026 0.000204321 )  
( 0.000488501 -0.000282808 0.000892451 )  
( -0.00098719 0.00038416 0.00055511 )  
( -0.000115592 -0.00144689 0.000805161 )  
( 7.8834e-05 0.000172594 0.000486673 )  
( -0.000209974 -0.000360584 0.000739838 )  
( -0.000122789 -0.000112099 0.00721799 )  
( 0.000555084 -0.000461106 0.00106949 )  
( 0.000621228 4.1939e-05 0.00039752 )  
( 0.000117245 0.00023533 0.000870323 )  
( 0.000202293 0.000293513 -0.000106587 )  
( -0.000204073 0.000142718 -0.00019606 )  
( -6.34528e-05 -0.000821206 -3.65168e-05 )  
( -0.000329559 0.000597769 0.000227251 )  
( 0.00156314 -0.000501438 0.00059971 )  
( -0.000622882 -0.00136489 0.00238765 )  
( -0.00184895 -0.000497094 0.0052982 )  
( 0.00379271 -0.000672738 0.00859158 )  
( -0.000592588 -0.000879939 0.000848484 )  
( -0.000307607 -0.000579882 0.0004099 )  
( -0.000178793 -3.47147e-05 0.00100155 )  
( 0.00198947 -0.00105636 0.000668734 )  
( -0.000251817 -0.000858127 0.00217207 )  
( -0.000694626 7.76595e-05 0.00187456 )  
( -0.000487581 0.000402384 0.00109164 )  
( -1.23228e-05 -0.000448998 0.000510573 )  
( 2.52522e-05 -3.18281e-05 2.10115e-07 )  
( -0.000512411 8.46419e-05 0.000965136 )  
( 0.000395515 0.00011624 9.01417e-05 )  
( -0.000711332 -8.98311e-05 0.0026647 )  
( 0.00041497 -0.000165231 0.000418887 )  
( -0.000610312 -0.000297147 0.000867281 )  
( 8.85979e-05 0.000183253 0.000930958 )  
( -0.000360746 -0.000317551 0.000854376 )  
( -1.79536e-06 -0.000426634 0.00107525 )  
( -0.000848638 0.00171389 0.00127868 )  
( -0.000339259 0.00287055 0.00194609 )  
( 0.000282109 0.000466912 -0.000564415 )  
( -5.95817e-07 0.00145146 0.00289009 )  
( 8.78855e-06 0.000379394 6.02945e-05 )  
( -0.00164904 0.000459426 0.00176602 )  
( 0.000270449 -0.000106317 8.49945e-05 )  
( 0.00116974 -0.000214464 0.00238628 )  
( -0.000436927 -0.00091857 0.000607538 )  
( 0.00101971 -5.85331e-05 0.00193199 )  
( -0.000154885 -0.000520849 0.000478104 )  
( -0.00080751 0.000708152 0.00178729 )  
( -0.000260015 -0.000172375 0.000718082 )  
( -0.000437416 -2.66577e-05 0.00336569 )  
( 0.000182419 -0.000146852 0.00044744 )  
( 0.000644468 -0.00106829 -4.89993e-05 )  
( 0.000947705 -0.000162919 0.000713971 )  
( 0.000433586 -5.91647e-05 0.00141646 )  
( -0.000683266 -0.000823816 0.000581982 )  
( 0.000140268 -0.000159393 0.00102512 )  
( -1.77214e-05 0.000443391 0.000631258 )  
( 3.38715e-05 -5.91001e-05 3.85531e-05 )  
( -0.000562358 0.000507492 5.48888e-05 )  
( -0.000160904 -0.000431909 -0.000192651 )  
( -0.000179382 -0.000272139 -0.000450273 )  
( 0.000505387 -0.00040248 0.000423219 )  
( 0.00019196 -6.27761e-05 0.000193091 )  
( 4.588e-05 -3.32555e-05 0.000330443 )  
( -0.000148665 -0.00012591 0.000666115 )  
( 0.000870772 0.0003193 -0.000546336 )  
( 3.2926e-05 -1.51801e-05 -2.59318e-05 )  
( 6.29734e-05 0.000207072 -0.000160027 )  
( -0.00105869 -0.0004092 0.00285117 )  
( -0.00027464 0.00117554 0.00144223 )  
( -0.000499939 0.00159838 -0.000564163 )  
( 0.000214782 0.000101998 8.3382e-05 )  
( 0.000109997 -0.000419125 0.00121859 )  
( 0.000457302 -0.000487919 -0.00011151 )  
( 0.000509633 0.000472445 0.00119687 )  
( 7.31877e-05 0.000270772 0.00147544 )  
( 0.000585992 -0.000451228 0.000660444 )  
( 0.00014534 3.83107e-05 7.74186e-05 )  
( -0.00253705 -0.000987358 1.87842e-06 )  
( -0.0011679 0.000788557 -3.69736e-05 )  
( -0.000709947 6.28563e-05 -1.10444e-07 )  
( -0.00342824 -0.0027114 0.00340516 )  
( -6.28411e-05 -0.000121651 0.00101965 )  
( -0.000852589 -0.00102343 0.000875618 )  
( 7.89618e-05 0.00076671 0.000651157 )  
( -3.75266e-05 0.000209649 -0.000352096 )  
( -0.000232701 -0.000475128 -0.000694783 )  
( 0.000312815 0.000184019 0.000736559 )  
( 0.000202862 -0.000735799 0.000774422 )  
( -0.000119097 9.17231e-05 0.000634431 )  
( 0.000314652 -0.000288384 -0.000897056 )  
( -0.000296664 -0.000223558 1.38993e-05 )  
( -0.000221968 -2.98897e-05 0.000331827 )  
( -0.0001196 -6.14558e-05 0.00069278 )  
( 3.36552e-05 0.000191432 0.000668166 )  
( 0.00056132 -0.000472436 -0.000611088 )  
( -0.00042292 9.43328e-05 0.00158884 )  
( 0.000245247 -0.000261103 0.000671887 )  
( -0.00045617 0.000451378 0.001607 )  
( -0.000686884 -0.000843223 0.00202702 )  
( 0.000251133 0.000146598 0.000257866 )  
( 0.000191592 -0.000840648 0.000711251 )  
( 0.000232831 0.00289187 0.00207003 )  
( -0.000858319 0.00172182 -0.00425885 )  
( -0.00134586 0.000224335 0.000256149 )  
( -3.49257e-06 -0.000327806 0.00103084 )  
( -0.000724103 -0.000634538 0.000520238 )  
( 0.000497643 0.000203714 0.000358421 )  
( 0.000707904 -0.000372505 2.10562e-05 )  
( 0.000489982 0.000659721 0.00145844 )  
( -0.000351885 -0.000399233 0.0011232 )  
( 0.000923089 -9.75679e-05 0.00194536 )  
( -0.00539434 -0.000839168 0.00584757 )  
( -0.000483943 0.0012856 0.000768075 )  
( 0.000496649 0.000389474 0.000141293 )  
( -0.000814102 1.07633e-05 0.000915821 )  
( 0.000178578 -0.000350246 3.14123e-05 )  
( 0.000435169 0.000275592 -0.00014182 )  
( -0.000150663 -0.00070977 0.000580834 )  
( -0.000287616 -0.00054969 0.000258724 )  
( 0.000576185 -0.000747602 0.000346133 )  
( -0.000318442 -0.000641082 -0.000595143 )  
( 0.000120368 0.000151098 0.000206859 )  
( 0.000345587 0.00038813 0.000120408 )  
( 0.00409996 0.00280955 0.00500029 )  
( -0.00015423 -0.00015439 0.00044526 )  
( 0.000453318 0.000198213 5.98933e-05 )  
( -0.000817989 -0.000350331 0.00131326 )  
( 0.00113954 0.00147288 -0.000507965 )  
( 0.000638319 -0.000130603 0.000589355 )  
( -0.000570878 -0.0032366 0.00110712 )  
( 0.000632311 -0.00179375 0.00233481 )  
( 0.000139183 0.000317668 -0.000168119 )  
( 0.00124118 -0.000275422 0.000375811 )  
( -6.93952e-05 -0.000269001 -0.000366125 )  
( -0.000283816 0.000125597 -0.000162657 )  
( 4.66971e-05 0.00054122 0.000968137 )  
( 0.000837268 0.00337372 0.011268 )  
( 0.000364348 -0.000137659 0.00111621 )  
( -3.14506e-05 0.00139624 0.00064196 )  
( -0.000204316 -0.000237763 0.00126865 )  
( 0.00019124 0.000331925 0.00155166 )  
( -0.000411616 0.000280496 0.000732497 )  
( -0.00372389 0.000330432 0.0116851 )  
( 0.000575054 0.000286118 0.000604094 )  
( -0.000313904 -0.000187646 0.000193478 )  
( 0.000437415 0.000254885 0.00136076 )  
( 8.02553e-05 -0.000252101 0.00102388 )  
( 0.0015795 -0.000843813 0.000940148 )  
( 0.000187835 -0.000824691 -6.31922e-06 )  
( 0.00024648 -0.000418491 9.69188e-05 )  
( -0.000588494 -0.000562481 0.000858954 )  
( 0.000475472 2.53193e-06 -8.16154e-05 )  
( 6.21351e-05 -0.000776089 0.00113168 )  
( 3.70624e-05 -0.000175764 9.70133e-06 )  
( 0.000548581 -0.000736664 0.000181026 )  
( -0.000673936 0.000127161 0.00059566 )  
( -0.000611354 0.000559823 0.0010776 )  
( -0.000198549 -0.000387945 0.000141898 )  
( 0.000319544 -0.000377123 0.000969812 )  
( 0.000198933 0.000138663 0.000542589 )  
( 0.000810838 -0.000413599 0.00226362 )  
( -0.000323517 0.000225221 1.3019e-05 )  
( -2.5266e-05 -7.5746e-05 -0.000260137 )  
( -0.000536206 0.00234204 0.00206357 )  
( 0.000554719 -5.81794e-05 0.000641861 )  
( 0.000374525 -0.000236523 0.00115681 )  
( -0.000232887 0.000441087 -4.70448e-06 )  
( -0.000419265 -0.000550053 0.0006254 )  
( 6.06219e-05 0.000102332 0.000100808 )  
( 0.000625396 -0.000458502 0.000532501 )  
( 0.000215102 -1.56117e-05 0.00012275 )  
( -0.000234066 -0.00042171 0.00140129 )  
( -0.000221146 -4.35074e-05 4.94227e-05 )  
( -0.00039767 -0.000489596 0.00135609 )  
( -0.000913552 -0.000377439 0.000283793 )  
( -0.000421187 -0.00126777 0.00102475 )  
( -0.000147878 0.000403478 -0.000160743 )  
( -0.000892459 0.000799752 0.00397586 )  
( -0.000770085 -0.000200313 0.000688706 )  
( 1.25072e-05 -0.000299635 0.00102068 )  
( -0.000162157 -0.000318684 -0.000497122 )  
( -0.000309446 0.000206226 0.00178405 )  
( 0.000171741 8.85321e-05 0.000491296 )  
( 0.000935227 0.000354425 1.02769e-05 )  
( 0.00119641 0.000701477 0.00186475 )  
( 3.43003e-05 6.9756e-05 0.000103318 )  
( 2.20369e-05 -0.000393569 0.000906957 )  
( -0.000248894 -0.000355046 0.00102653 )  
( 0.000852954 -0.00284691 0.00237113 )  
( 0.00236015 -0.00068488 0.00178113 )  
( -2.50358e-05 0.0011277 -6.43156e-05 )  
( 0.000331702 0.00052768 0.0008458 )  
( -0.000126902 2.52528e-05 0.000947193 )  
( 0.00106319 0.000360964 0.000568145 )  
( -0.000491222 -0.000355515 4.61064e-05 )  
( -0.000279751 -5.87654e-05 -8.58221e-05 )  
( -0.000351556 0.000414576 -0.000409884 )  
( 0.000706877 -0.000259495 0.00177475 )  
( -0.000334474 8.28971e-05 0.000426846 )  
( -2.90704e-06 -0.000552176 9.22236e-05 )  
( 0.000253505 0.000450833 -0.00172238 )  
( 0.000392104 -0.00427687 0.00516128 )  
( 8.41845e-05 -0.0002318 0.000186055 )  
( -0.000195273 0.000136839 0.000861022 )  
( 0.000641462 -0.000336539 0.000697033 )  
( 0.000471122 -0.000214352 -0.000276065 )  
( 0.000194058 -5.7457e-06 7.98561e-05 )  
( 7.41699e-06 -0.00054788 -0.000333534 )  
( -5.6984e-05 -0.000365414 0.000662459 )  
( 0.000375896 -8.22311e-05 0.000494176 )  
( 0.00136095 -0.00103595 0.00240443 )  
( -0.00118629 -0.000532065 -5.4864e-05 )  
( 0.000150399 -0.000250929 -0.000465731 )  
( 0.000399876 -0.000187717 3.46498e-05 )  
( 0.000350272 0.000695787 0.000520225 )  
( 0.000232512 9.69275e-05 0.000472024 )  
( -0.000479139 -0.000531222 0.00128453 )  
( -0.000625592 0.000128186 7.2875e-05 )  
( 0.00033972 -0.000468152 0.000629714 )  
( -0.000355626 0.000816092 -0.000445431 )  
( 0.00111849 -0.000904844 0.00253403 )  
( 0.000440388 0.000324065 0.000445614 )  
( -0.00128356 0.00148398 -7.02228e-07 )  
( 0.00101838 0.000461004 0.000213461 )  
( -0.000717684 -0.00113538 0.00190075 )  
( 0.000798565 0.000893725 0.00274636 )  
( -7.99175e-05 0.000336702 0.00037993 )  
( -0.000184108 -0.000191903 8.62734e-05 )  
( -0.00149469 -0.000817678 0.00244918 )  
( -0.000103199 0.000208306 0.000733311 )  
( -8.50017e-05 -0.000416094 0.000774724 )  
( 0.000395981 9.28963e-05 0.000282319 )  
( 0.000862087 0.000220309 0.00215665 )  
( -0.00101553 -4.88073e-05 0.00522021 )  
( -0.00100086 0.000301564 4.11646e-05 )  
( 0.000144193 -0.000158761 0.00017006 )  
( -8.61265e-05 -0.00027394 1.18289e-05 )  
( 0.00057549 -0.000435098 0.00142378 )  
( 0.000299598 -0.00075244 0.00133789 )  
( -0.000665848 -0.000734435 0.00338772 )  
( -0.000109352 0.000295638 9.81876e-05 )  
( -0.000697495 -0.000219087 0.000334194 )  
( 0.000238931 -0.000300742 0.000632738 )  
( -0.000226313 0.000144299 0.000341136 )  
( -0.000738285 0.00150726 0.00509215 )  
( 0.000208032 -9.45503e-05 0.00112027 )  
( -0.000352428 3.14382e-05 0.000770208 )  
( 0.000328837 2.05093e-05 0.000824153 )  
( 8.41367e-06 2.23217e-05 0.000335649 )  
( 0.000490754 4.95266e-05 9.3065e-05 )  
( -3.86951e-05 0.00101456 0.000758338 )  
( 0.000268271 -0.000170889 0.00542523 )  
( -0.000683575 -0.000226484 -0.000220317 )  
( 0.000598861 -0.000745023 0.000236221 )  
( 9.68383e-05 0.000169609 -0.000624524 )  
( -0.000666938 -0.000545303 0.000912147 )  
( 0.00187203 -0.000854675 0.00115575 )  
( -0.00125772 -0.000941269 0.00316914 )  
( -0.000379622 0.000472532 -4.835e-05 )  
( 0.000692006 -0.000277453 0.000768984 )  
( -2.24894e-05 0.000700221 0.000876119 )  
( 0.000512491 -0.000595809 -0.00038644 )  
( -0.000541213 -0.000114355 0.000418766 )  
( 0.00145338 -8.73783e-05 0.00235768 )  
( 0.000307674 -0.000805249 0.00284666 )  
( -0.000188631 -0.000305513 0.000984775 )  
( -9.26164e-05 0.000546747 0.000896477 )  
( -0.000349643 -0.000144269 0.000486318 )  
( -0.000163593 0.000740029 0.00154349 )  
( 0.000304365 -0.000304301 0.000217365 )  
( -0.00190202 -0.000131768 0.00261458 )  
( 0.000202616 -7.15807e-05 -3.53554e-05 )  
( -0.000415327 0.000114881 0.000684028 )  
( -8.28598e-05 0.000155273 -0.000324183 )  
( -0.000856584 0.000270179 0.000906489 )  
( -0.00146808 0.000282921 0.00126568 )  
( 0.000635635 -0.000244594 0.00287168 )  
( 0.00042127 -0.000171598 9.6645e-06 )  
( -0.000778966 -0.000346318 0.000511094 )  
( -0.00097394 -4.50833e-06 0.00112126 )  
( 0.00422922 -0.00420082 0.00597016 )  
( 0.000260973 1.6839e-06 0.000870474 )  
( 6.10818e-05 -0.000187395 0.000301686 )  
( -0.000137748 0.000393713 -0.000515084 )  
( -0.000320133 0.000139732 0.000827233 )  
( -0.00130819 -6.51731e-05 0.00161366 )  
( 0.00147371 -0.000125726 0.00132923 )  
( -0.000778714 -0.000753098 0.00107186 )  
( -1.3902e-05 -0.000156383 0.000578896 )  
( 0.000359223 0.000164807 -0.000466904 )  
( 0.000361434 -0.00015328 0.000397563 )  
( -0.000577371 0.000249243 0.00121101 )  
( -1.5744e-05 -0.000305935 0.000236581 )  
( 0.000333802 -0.000414661 0.0012512 )  
( -2.42201e-05 -0.000948584 0.000178256 )  
( 0.000263619 0.000456018 0.000175163 )  
( -0.000317619 0.000782543 0.000550324 )  
( 7.22499e-05 -0.00103324 0.0018195 )  
( -5.60343e-05 -8.57271e-05 -4.09824e-05 )  
( 0.000551812 0.000137777 -0.000143775 )  
( -0.00105233 -0.000470324 0.00198385 )  
( -0.00141132 -8.05729e-05 0.000373945 )  
( 0.000726975 6.45044e-05 9.28539e-05 )  
( -6.35489e-05 -0.000443504 0.00102644 )  
( 6.12852e-05 -0.000188367 0.000144969 )  
( 0.00128467 0.000954441 0.000839999 )  
( -0.000333379 -1.27948e-05 0.000374811 )  
( -0.000173347 -0.000683104 0.00608617 )  
( 0.000567114 0.000228852 0.000808713 )  
( -0.000199832 -0.000427328 0.000129239 )  
( -0.000453734 -0.000768184 0.00079599 )  
( 0.000156238 0.000400097 0.000234966 )  
( -0.000134433 1.81438e-05 -0.000187803 )  
( -0.000516304 -0.00052451 0.00128331 )  
( 0.000578098 0.000158293 0.000653069 )  
( 5.33832e-05 -5.53968e-06 -0.000335511 )  
( -1.11177e-05 -0.000311804 -0.000243864 )  
( 0.000248853 0.000235593 0.000587962 )  
( -0.000150833 0.000166239 -2.45171e-05 )  
( 0.000483131 -0.000114356 0.0025126 )  
( -0.000508928 0.000233456 0.000762279 )  
( 0.000341027 -0.000161374 -2.43617e-05 )  
( -0.000401327 -0.000458126 0.00123295 )  
( 1.68496e-07 -7.64036e-05 0.000784802 )  
( -0.000114603 -6.57317e-05 0.000488914 )  
( -0.000439888 0.00121403 0.000655575 )  
( 0.000342882 -4.33511e-05 0.00328461 )  
( 0.000319568 -0.000251534 -5.56884e-05 )  
( 0.000169359 4.22815e-05 0.000745213 )  
( -0.000590588 -1.2595e-05 -7.3102e-05 )  
( -8.9517e-05 -0.000204226 -7.94278e-05 )  
( -0.00072463 -2.01731e-05 0.000169755 )  
( -0.00014548 -0.000154805 5.28137e-05 )  
( -0.00182498 0.00010571 0.0008096 )  
( 0.000394086 0.000454745 -0.00033884 )  
( 0.000324257 -0.000310406 -0.00019164 )  
( 4.5161e-05 0.000241027 0.000568887 )  
( 0.000349099 -2.9925e-05 0.000117227 )  
( -0.000296913 -0.000667928 0.00154363 )  
( 0.000434245 -0.000294605 1.21028e-06 )  
( -0.00020916 -0.000420879 -8.52249e-06 )  
( -0.000151471 -9.81901e-06 -0.000489378 )  
( -0.00032872 0.000622113 0.000445934 )  
( -0.000220328 -0.000258881 7.86661e-05 )  
( 0.000206615 0.000514408 -7.02323e-05 )  
( 0.00175342 -0.00153624 0.0022063 )  
( 0.000310679 -0.000326787 0.000854917 )  
( 7.92744e-06 -8.09232e-05 5.29306e-05 )  
( 0.000521573 0.000762615 -2.28638e-05 )  
( 0.000640937 0.000210407 0.00130245 )  
( 5.84901e-05 0.000108205 2.07184e-06 )  
( 9.38543e-05 -0.0001313 0.000625264 )  
( 0.00148326 -0.000204237 -0.00110586 )  
( -0.000253991 0.000767216 0.00112181 )  
( -0.000929 0.000200636 -0.000208284 )  
( 0.000382652 -0.000303392 0.00125035 )  
( 1.85285e-05 -1.38261e-05 -5.98245e-05 )  
( -0.000298635 0.00102329 0.00294394 )  
( -0.000389241 -0.000534461 4.92918e-05 )  
( -2.4007e-06 0.000483359 0.00138523 )  
( -0.000455277 0.000339483 -0.000279915 )  
( -0.000517415 0.000490984 0.000926294 )  
( -0.000544614 -0.000686857 0.000610789 )  
( 0.00031773 -2.7647e-05 2.58572e-05 )  
( 0.000508252 0.000169806 0.000339528 )  
( 0.00120694 0.00104112 0.00282718 )  
( 0.000555248 -0.000273468 -0.000307755 )  
( 0.000103746 0.000176066 0.000824536 )  
( 0.000109444 -0.000177368 0.001754 )  
( 0.000841168 0.00112562 0.00388404 )  
( 0.000274298 -0.000475965 0.000985117 )  
( -0.00141601 -0.000519266 0.00128917 )  
( -0.00122333 0.000286269 0.00251817 )  
( 4.21478e-05 -0.000816021 -0.00144383 )  
( -0.000347006 -0.000344424 0.000131383 )  
( -0.000187335 0.000248549 0.000388784 )  
( -0.00121156 0.000252512 -2.14105e-06 )  
( -0.000140889 -0.00027737 -0.000515289 )  
( 0.000147362 -0.000385783 0.00152662 )  
( 0.0007466 -0.000333043 -3.88298e-05 )  
( -0.00035807 -0.000359735 3.06105e-05 )  
( -0.000328814 0.000540437 0.000761641 )  