/*--------------------------------*- C++ -*----------------------------------*\
| =========                 |                                                 |
| \\      /  F ield         | OpenFOAM: The Open Source CFD Toolbox           |
|  \\    /   O peration     | Version:  2506                                  |
|   \\  /    A nd           | Website:  www.openfoam.com                      |
|    \\/     M anipulation  |                                                 |
\*---------------------------------------------------------------------------*/
FoamFile
{
    version     2.0;
    format      ascii;
    arch        "LSB;label=32;scalar=64";
    class       volVectorField;
    location    "0.06";
    object      U;
}
// * * * * * * * * * * * * * * * * * * * * * * * * * * * * * * * * * * * * * //

dimensions      [0 1 -1 0 0 0 0];

internalField   nonuniform List<vector> 
1152
(
(0.00156674 0.00665458 0.0435758)
(-0.00104416 -0.000154058 0.0118112)
(-0.00108538 -0.00429268 0.0137737)
(-0.000617382 -0.000911932 0.00535587)
(0.00139615 -0.00980817 0.0362857)
(-0.00191973 -0.000735824 0.0122323)
(-0.00169643 -0.00246934 0.0178553)
(-0.000769255 0.000208124 0.0163799)
(-0.00014035 -0.00076128 0.0052008)
(0.000380024 -0.00156276 0.0172583)
(-0.00122757 0.00188249 0.0164788)
(-0.00106634 0.00179943 0.0220919)
(-0.000934847 0.000984665 0.0138148)
(0.000700378 -0.000815612 0.0136324)
(0.000714958 0.00217044 0.0163402)
(-0.000138354 0.00329765 0.0240429)
(-0.00897314 -0.00379446 0.0407052)
(1.4854e-05 -5.43177e-05 0.015181)
(0.00543707 6.50418e-05 0.0393896)
(-0.00121003 0.000646091 0.0233919)
(-0.00424131 0.00301452 0.0336212)
(0.00182216 0.000484465 0.0286136)
(0.00010216 -0.000343271 0.0144728)
(0.00136037 -0.00275534 0.0240355)
(9.29767e-05 -0.000317308 0.000976898)
(-0.00352962 0.000999555 0.0406381)
(-0.000160401 0.000472612 0.0171124)
(0.00135324 0.000193403 0.016543)
(0.00184394 -0.00402302 0.0354809)
(-0.00043089 -2.19575e-06 0.0160322)
(0.00127454 -0.000558815 0.0525118)
(-6.77247e-05 -0.000277737 0.0010586)
(0.00220222 -0.0004595 0.0139434)
(0.00321216 -0.000592691 0.0235479)
(-0.000243092 0.00155671 0.00968344)
(0.00836277 0.00398712 0.0633185)
(-0.000265243 0.00054477 0.00812289)
(0.00204427 0.000311503 0.0238734)
(0.00140979 0.00207018 0.0282071)
(0.000844907 0.000235304 0.0167029)
(-0.00072328 0.0032436 0.0326801)
(0.00103166 0.00181817 0.0282568)
(0.00234347 -0.00107419 0.023438)
(0.00136097 -1.43261e-05 0.0317814)
(0.000154946 2.38866e-05 0.0199426)
(-0.000982441 0.00214471 0.0226377)
(0.000139992 -0.000281356 0.0191315)
(0.00198916 -0.00126755 0.0466219)
(0.001607 -0.000392952 0.010104)
(0.00152093 -1.38618e-06 0.0205675)
(-0.00877256 0.00351196 0.0490079)
(0.000165826 -0.000429213 0.0145225)
(0.0038126 0.00112902 0.0454658)
(0.00251819 -0.00308809 0.0258257)
(0.000982968 -0.000526211 0.0215212)
(-0.00216255 0.00235447 0.0213798)
(-0.000368277 0.00142676 0.0236717)
(0.00151578 0.000333066 0.0279307)
(0.00177628 -0.00203141 0.0270072)
(-0.000976666 -0.00154459 0.0307339)
(0.0020032 0.0043355 0.04329)
(-0.000427918 0.00139951 0.0225635)
(-9.09903e-05 -0.000173194 0.0437953)
(8.39179e-05 -0.00249825 0.0360128)
(-5.46099e-05 -6.83474e-05 0.0015021)
(-0.0107804 0.00247773 0.0609336)
(0.000363305 -0.000491862 0.00267942)
(0.00173173 -0.000665414 0.0298851)
(0.00137721 -0.00293631 0.0159214)
(3.64516e-05 -0.000906235 0.0123197)
(0.000377539 -0.000648223 0.0490907)
(0.00136122 -0.00167596 0.0319104)
(0.000192512 -0.000682515 0.0188771)
(0.000935462 -0.00192938 0.0307451)
(0.00105133 -0.00069789 0.0267493)
(-0.000458888 -0.00283807 0.0456334)
(-1.34856e-05 0.00389952 0.0308879)
(2.66611e-05 0.00075436 0.017388)
(0.000182937 0.000305037 0.0135876)
(-0.00176434 -0.00322582 0.0454184)
(-0.00325586 0.00359485 0.0385653)
(0.00220799 0.000519747 0.0146805)
(0.00479737 -0.00101012 0.0229821)
(0.00159168 0.00107085 0.0183371)
(0.00347675 0.00480592 0.0365402)
(0.00313663 0.0027688 0.019612)
(0.00182877 0.00121621 0.0124996)
(0.000418127 0.000329066 0.012976)
(0.000913861 -8.15675e-05 0.0103827)
(0.000828667 0.000843876 0.00995841)
(0.00122232 -0.00118536 0.0128967)
(0.00119645 -0.003165 0.0180854)
(0.00226597 -0.000882273 0.0320407)
(0.000397072 4.37975e-06 0.00517736)
(-0.0035932 -0.000393892 0.0317079)
(-0.000514819 0.000448284 0.0227047)
(0.000578495 0.00050231 0.00267834)
(0.00154215 -0.000890639 0.0187437)
(-1.78759e-05 -0.000227381 0.00568992)
(-0.000628062 -0.000196583 0.016792)
(9.22454e-05 0.00013578 0.0167411)
(0.000104142 0.00038082 0.0215839)
(0.000244978 -0.000825306 0.0272215)
(0.000576374 -0.000699956 0.0243493)
(0.000389789 0.000458409 0.0157191)
(0.000113746 0.000222402 0.012572)
(-8.38249e-05 0.000293032 0.0158368)
(0.00043702 -0.00023919 0.0280813)
(-0.000223512 0.000153982 0.00402145)
(8.78666e-06 -0.000403399 0.0191493)
(0.001157 -3.1652e-05 0.0100833)
(0.00021769 0.000317815 0.0213054)
(0.000342555 -0.000225677 0.0147041)
(0.000276501 -0.0003988 0.0276897)
(-0.000695055 0.000632604 0.017036)
(-0.000533994 -6.39362e-05 0.0246653)
(-0.000452105 0.000278262 0.0314404)
(-0.000966297 -0.000104685 0.0298053)
(-0.00117041 -0.00023759 0.0289775)
(-3.2941e-05 -0.00038421 0.0273514)
(-3.26955e-05 -0.000167331 0.0222738)
(-0.000385158 -0.000168566 0.0197603)
(-0.000957261 0.000732288 0.0229733)
(-8.54822e-05 0.000943552 0.0299793)
(-0.000610484 -8.84705e-05 0.013048)
(-1.63459e-05 -0.00027132 0.0218218)
(0.000148437 -4.18482e-05 0.0214971)
(0.000177491 0.000629244 0.0304205)
(0.000323154 -0.000551416 0.0053911)
(-0.000471693 6.69548e-05 0.00629528)
(-0.000195903 0.000518474 0.00541952)
(-0.000920947 0.000127572 0.00633816)
(-0.000607551 -0.000302658 0.00677176)
(-0.000710521 0.000449724 0.00703554)
(-0.000557448 -0.000454833 0.00734064)
(-0.000187783 -0.000666159 0.00742064)
(0.000223133 0.00107711 0.00499405)
(-0.00073669 0.000751566 0.00500136)
(-0.00144359 0.000483431 0.0059892)
(-0.000974154 -0.00023689 0.00751575)
(-0.000487878 -0.00046399 0.00332455)
(-0.00126741 -0.000730546 0.00477721)
(-0.0015057 -0.00064631 0.00531736)
(-0.00112409 -0.000258595 0.00693457)
(1.51108e-05 2.49443e-05 0.0141471)
(-0.000279152 0.000162368 0.0148647)
(-0.000202676 0.000216209 0.0143325)
(-0.000433251 7.17905e-05 0.0147178)
(-0.00032527 0.000120175 0.0147787)
(-0.000454113 0.000292542 0.0150917)
(-0.000405277 -9.75959e-06 0.0151479)
(-0.00025024 -0.00010626 0.0152028)
(-5.80171e-05 0.000471122 0.0140108)
(-0.000475579 0.00043445 0.0141786)
(-0.000685833 0.000373171 0.0145715)
(-0.000447026 0.00021036 0.0152269)
(-0.000191422 -0.00024819 0.0133114)
(-0.000547983 -0.000231964 0.0139737)
(-0.000618183 -6.83106e-05 0.0143928)
(-0.000330396 0.000170477 0.0151284)
(-2.23677e-05 6.90476e-05 0.0122016)
(-0.00013553 8.53918e-05 0.0124182)
(-0.000122943 5.85136e-05 0.0122965)
(-0.000196139 3.71608e-06 0.0123935)
(-0.00013646 6.80563e-05 0.0122781)
(-0.00022803 9.67345e-05 0.0124393)
(-0.000226908 -1.22773e-05 0.0125001)
(-0.000194766 -7.34003e-05 0.0125412)
(-5.70697e-05 0.0001134 0.0119842)
(-0.000247195 0.00011649 0.012098)
(-0.000335665 8.08657e-05 0.012242)
(-0.000292288 5.75728e-06 0.0124209)
(-6.57194e-05 -0.000176757 0.0117647)
(-0.000260725 -0.000159293 0.0119622)
(-0.000333057 -0.000116603 0.0120807)
(-0.0002841 -0.000101655 0.0122244)
(-1.05209e-05 5.47516e-05 0.0128248)
(-5.46787e-05 5.0524e-05 0.0128964)
(-5.73258e-05 3.0463e-05 0.0128723)
(-8.71082e-05 1.50569e-05 0.0128961)
(-4.50036e-05 3.91895e-05 0.0128246)
(-9.01523e-05 4.52213e-05 0.0128965)
(-9.39073e-05 1.61926e-05 0.0129294)
(-8.9258e-05 4.10231e-06 0.0129505)
(-1.70206e-05 2.08933e-05 0.0127373)
(-8.89444e-05 3.6125e-05 0.0127926)
(-0.000113937 4.13319e-05 0.0128482)
(-9.79216e-05 4.32091e-05 0.0129059)
(8.06314e-07 -0.000104154 0.012683)
(-6.92899e-05 -7.84912e-05 0.0127496)
(-8.32087e-05 -3.70516e-05 0.0127958)
(-5.37224e-05 -7.44215e-07 0.012842)
(2.89759e-06 3.02639e-05 0.0128728)
(-1.70407e-05 2.59615e-05 0.0128961)
(-2.31626e-05 1.6422e-05 0.01289)
(-3.76815e-05 1.26862e-05 0.0128896)
(-6.58933e-06 1.53293e-05 0.0128602)
(-2.86788e-05 1.73806e-05 0.0128867)
(-3.49137e-05 1.04462e-05 0.0128959)
(-3.86802e-05 9.22385e-06 0.0128948)
(4.88698e-06 -6.06518e-06 0.0128292)
(-2.43754e-05 3.81874e-06 0.0128468)
(-3.53372e-05 1.15752e-05 0.0128552)
(-3.61361e-05 1.78945e-05 0.0128527)
(1.85237e-05 -5.939e-05 0.0128096)
(-9.03387e-06 -4.48512e-05 0.0128211)
(-1.74675e-05 -2.51705e-05 0.0128135)
(-1.62268e-05 -1.14959e-05 0.0127883)
(1.00118e-05 1.5608e-05 0.0129062)
(-2.79096e-07 1.35188e-05 0.0129126)
(-6.38403e-06 1.04214e-05 0.0129075)
(-1.41044e-05 1.00821e-05 0.0128983)
(7.76758e-06 5.24998e-06 0.0128971)
(-3.13133e-06 6.76073e-06 0.0129046)
(-8.58605e-06 6.57582e-06 0.0129028)
(-1.31863e-05 8.59047e-06 0.0128916)
(1.33718e-05 -8.81761e-06 0.012883)
(9.38205e-07 -2.94431e-06 0.0128859)
(-5.1255e-06 3.15986e-06 0.01288)
(-8.46596e-06 9.50762e-06 0.0128627)
(2.12054e-05 -3.21501e-05 0.0128701)
(1.03358e-05 -2.44631e-05 0.0128667)
(5.92487e-06 -1.3945e-05 0.012849)
(3.67609e-06 -5.35605e-06 0.012816)
(1.15319e-05 8.18027e-06 0.0129275)
(5.53638e-06 7.49734e-06 0.0129268)
(8.89572e-07 6.6957e-06 0.01292)
(-3.77807e-06 7.08819e-06 0.012906)
(1.12634e-05 1.74865e-06 0.0129213)
(5.24695e-06 2.89969e-06 0.0129204)
(1.00235e-06 3.91466e-06 0.0129131)
(-2.78624e-06 5.77922e-06 0.0128964)
(1.40253e-05 -6.37503e-06 0.012912)
(7.94837e-06 -3.18316e-06 0.0129079)
(3.88475e-06 5.91787e-07 0.0128959)
(4.79593e-07 4.62549e-06 0.0128721)
(1.80635e-05 -1.69676e-05 0.0128982)
(1.30957e-05 -1.30609e-05 0.0128891)
(9.93269e-06 -7.66315e-06 0.0128681)
(6.89439e-06 -3.13051e-06 0.0128309)
(1.04791e-05 4.57381e-06 0.0129397)
(6.86449e-06 4.44257e-06 0.0129363)
(3.67625e-06 4.35722e-06 0.0129281)
(6.56902e-07 4.77026e-06 0.0129116)
(1.06206e-05 7.7216e-07 0.012935)
(7.12899e-06 1.5306e-06 0.0129309)
(4.14108e-06 2.413e-06 0.0129213)
(1.32446e-06 3.644e-06 0.0129018)
(1.1972e-05 -3.69872e-06 0.0129266)
(8.68861e-06 -2.04983e-06 0.0129201)
(5.93777e-06 2.31007e-08 0.0129061)
(3.17509e-06 2.24523e-06 0.0128799)
(1.39469e-05 -8.70933e-06 0.0129112)
(1.13182e-05 -6.77368e-06 0.0129008)
(8.98972e-06 -4.09885e-06 0.0128791)
(6.37846e-06 -1.77775e-06 0.0128411)
(8.65985e-06 2.76887e-06 0.0129465)
(6.42511e-06 2.78405e-06 0.0129422)
(4.33111e-06 2.86919e-06 0.0129333)
(2.32149e-06 3.14571e-06 0.0129154)
(8.80508e-06 5.35617e-07 0.0129425)
(6.70312e-06 9.95604e-07 0.0129374)
(4.70478e-06 1.5572e-06 0.0129267)
(2.71289e-06 2.25486e-06 0.012906)
(9.44829e-06 -1.88008e-06 0.0129342)
(7.54476e-06 -1.06048e-06 0.012927)
(5.68136e-06 -1.28031e-08 0.0129122)
(3.64392e-06 1.10284e-06 0.0128851)
(1.03551e-05 -4.31804e-06 0.0129175)
(8.81033e-06 -3.39585e-06 0.012907)
(7.13181e-06 -2.1359e-06 0.0128855)
(5.18149e-06 -1.00336e-06 0.0128474)
(6.79878e-06 1.78733e-06 0.0129504)
(5.4083e-06 1.83017e-06 0.012946)
(4.04612e-06 1.91895e-06 0.0129367)
(2.69433e-06 2.07504e-06 0.0129182)
(6.88832e-06 4.98235e-07 0.0129467)
(5.60108e-06 7.48755e-07 0.0129415)
(4.27405e-06 1.06175e-06 0.0129304)
(2.89987e-06 1.42088e-06 0.0129091)
(7.17432e-06 -8.12853e-07 0.0129382)
(6.01971e-06 -4.45281e-07 0.0129311)
(4.76772e-06 4.95754e-08 0.0129162)
(3.33046e-06 5.94543e-07 0.0128887)
(7.54612e-06 -2.05591e-06 0.0129207)
(6.58807e-06 -1.64034e-06 0.0129106)
(5.43915e-06 -1.06986e-06 0.0128894)
(4.06702e-06 -5.33223e-07 0.0128515)
(5.15011e-06 1.20459e-06 0.0129527)
(4.29089e-06 1.23908e-06 0.0129484)
(3.40372e-06 1.30092e-06 0.012939)
(2.49038e-06 1.37644e-06 0.0129202)
(5.19513e-06 4.68013e-07 0.0129491)
(4.40116e-06 5.91891e-07 0.012944)
(3.52447e-06 7.51974e-07 0.0129328)
(2.58425e-06 9.14372e-07 0.0129113)
(5.31146e-06 -2.55417e-07 0.0129405)
(4.59798e-06 -1.15106e-07 0.0129336)
(3.75309e-06 9.15567e-08 0.0129187)
(2.75686e-06 3.48846e-07 0.0128912)
(5.42646e-06 -9.09901e-07 0.0129226)
(4.81507e-06 -7.46241e-07 0.0129127)
(4.04901e-06 -5.08581e-07 0.0128918)
(3.11696e-06 -2.60648e-07 0.0128541)
(3.77858e-06 8.26331e-07 0.012954)
(3.25417e-06 8.4891e-07 0.0129498)
(2.67574e-06 8.85586e-07 0.0129405)
(2.05842e-06 9.15285e-07 0.0129216)
(3.79893e-06 4.11231e-07 0.0129505)
(3.30839e-06 4.64462e-07 0.0129455)
(2.73169e-06 5.3482e-07 0.0129344)
(2.09453e-06 5.98518e-07 0.0129128)
(3.83815e-06 -1.63964e-10 0.0129418)
(3.3892e-06 3.5341e-08 0.0129351)
(2.82502e-06 1.09857e-07 0.0129203)
(2.14914e-06 2.22473e-07 0.0128928)
(3.84438e-06 -3.55114e-07 0.0129236)
(3.45598e-06 -3.07329e-07 0.0129141)
(2.94908e-06 -2.24207e-07 0.0128934)
(2.3238e-06 -1.12568e-07 0.0128558)
(2.6721e-06 5.62158e-07 0.0129548)
(2.35633e-06 5.76057e-07 0.0129507)
(1.98341e-06 5.96825e-07 0.0129414)
(1.57241e-06 6.0427e-07 0.0129226)
(2.68057e-06 3.28813e-07 0.0129513)
(2.37987e-06 3.46492e-07 0.0129464)
(2.00605e-06 3.73179e-07 0.0129354)
(1.58141e-06 3.95623e-07 0.0129139)
(2.68467e-06 9.91545e-08 0.0129425)
(2.4065e-06 9.33618e-08 0.012936)
(2.04144e-06 1.07786e-07 0.0129213)
(1.58851e-06 1.50863e-07 0.0128939)
(2.66054e-06 -9.74682e-08 0.0129242)
(2.41019e-06 -9.63644e-08 0.0129149)
(2.07921e-06 -7.68731e-08 0.0128944)
(1.67058e-06 -3.64547e-08 0.012857)
(1.79696e-06 3.71658e-07 0.0129552)
(1.6118e-06 3.79189e-07 0.0129512)
(1.38172e-06 3.89833e-07 0.012942)
(1.11787e-06 3.90298e-07 0.0129232)
(1.80061e-06 2.43898e-07 0.0129517)
(1.61907e-06 2.44771e-07 0.012947)
(1.3886e-06 2.51877e-07 0.0129361)
(1.11601e-06 2.54537e-07 0.0129145)
(1.79303e-06 1.1625e-07 0.012943)
(1.62272e-06 9.96953e-08 0.0129365)
(1.39654e-06 9.37355e-08 0.012922)
(1.10687e-06 1.03342e-07 0.0128946)
(1.76609e-06 6.02964e-09 0.0129246)
(1.60916e-06 -6.77361e-09 0.0129154)
(1.40058e-06 -1.03385e-08 0.012895)
(1.14107e-06 -1.99532e-09 0.0128577)
(1.13035e-06 2.20431e-07 0.0129554)
(1.02863e-06 2.24026e-07 0.0129516)
(8.9514e-07 2.29203e-07 0.0129424)
(7.37583e-07 2.27338e-07 0.0129236)
(1.13111e-06 1.54021e-07 0.012952)
(1.02889e-06 1.49094e-07 0.0129473)
(8.95381e-07 1.48302e-07 0.0129365)
(7.33283e-07 1.44847e-07 0.012915)
(1.12078e-06 8.58286e-08 0.0129432)
(1.02426e-06 6.91167e-08 0.0129369)
(8.93171e-07 5.82238e-08 0.0129224)
(7.2176e-07 5.60877e-08 0.0128951)
(1.09848e-06 2.71508e-08 0.0129248)
(1.00845e-06 1.16389e-08 0.0129157)
(8.86646e-07 3.533e-10 0.0128954)
(7.3301e-07 -4.86938e-09 0.0128582)
(6.40291e-07 7.98878e-08 0.0129555)
(5.93149e-07 8.19371e-08 0.0129517)
(5.25473e-07 8.47855e-08 0.0129426)
(4.41979e-07 8.56722e-08 0.0129239)
(6.39469e-07 4.94057e-08 0.0129521)
(5.92711e-07 4.59591e-08 0.0129475)
(5.24741e-07 4.37359e-08 0.0129367)
(4.39932e-07 4.06318e-08 0.0129153)
(6.31781e-07 1.80064e-08 0.0129433)
(5.87866e-07 6.34896e-09 0.0129371)
(5.20098e-07 -1.86588e-09 0.0129226)
(4.31853e-07 -6.91431e-09 0.0128954)
(6.16952e-07 -8.03893e-09 0.0129249)
(5.77084e-07 -2.35978e-08 0.0129159)
(5.13501e-07 -3.6796e-08 0.0128957)
(4.28487e-07 -4.64026e-08 0.0128584)
(0.000355167 0.000169723 0.0246282)
(0.00109418 -3.78668e-05 0.0149733)
(0.00376978 -0.000809858 0.0264981)
(1.36635e-05 0.00259302 0.0129951)
(0.000106139 0.00129069 0.014763)
(0.00122152 0.00122866 0.00912113)
(0.00393883 0.00113614 0.0195422)
(0.00170716 0.0044726 0.0171829)
(0.00145111 0.00118527 0.0242722)
(0.00225682 0.00234809 0.022375)
(0.00335043 0.00167144 0.0206079)
(0.00247357 0.00569066 0.0251278)
(-6.70475e-05 8.00967e-05 0.00273714)
(0.000512093 -0.000205864 0.00948647)
(0.00293845 -0.00105077 0.0211301)
(0.00110711 0.000829865 0.0185576)
(-0.00236907 -0.00112285 0.0289875)
(0.000278481 0.000936558 0.0159973)
(0.000603698 -0.000272113 0.0280886)
(0.00283682 0.00165416 0.0324362)
(3.54258e-05 0.000210597 0.027012)
(0.000321668 0.000153028 0.0238648)
(0.000182335 9.37093e-05 0.00369282)
(0.000485136 1.10662e-05 0.019291)
(0.000848339 0.00118795 0.023981)
(0.00198263 -0.000405925 0.030351)
(0.00121531 0.000578542 0.035067)
(-0.00203784 0.000570724 0.0411853)
(0.00329415 0.00275702 0.0479706)
(0.000231073 0.00222581 0.0368752)
(-0.000385394 -0.000549478 0.0172891)
(0.000926768 0.00138937 0.0419595)
(0.000429588 -0.000156151 0.0127058)
(0.000350348 0.000287693 0.0291783)
(-0.000430412 0.00223073 0.023332)
(6.53091e-05 -0.000721795 0.00117576)
(0.000225564 0.000403267 0.0104571)
(0.0012971 -0.00231998 0.0376392)
(0.000107221 -0.000456656 0.0233839)
(-0.00238213 -0.00222211 0.0491221)
(-0.00113758 -0.00298924 0.030156)
(-0.00071656 -0.00150526 0.014402)
(-0.00160067 -0.00261832 0.0502021)
(-0.00176773 -0.00277499 0.0201789)
(-0.00235487 -0.00232704 0.0180315)
(0.00117639 -0.00253323 0.0330494)
(0.000634123 -0.000302454 0.0291705)
(-0.00156279 -0.000208129 0.0439598)
(0.00144585 0.00243992 0.0179413)
(-0.00181567 0.000611005 0.0380488)
(-0.0011524 0.000150409 0.0143062)
(-0.00140489 -0.00152625 0.0286202)
(0.00155026 0.000781337 0.0227489)
(-0.00254051 0.0011924 0.025552)
(-0.00165078 -0.000316561 0.0286366)
(0.000162246 -0.00258443 0.0383608)
(-0.000691757 -0.00278036 0.0430279)
(-0.00263065 -0.000811986 0.0331836)
(-0.0031624 -4.8283e-05 0.030956)
(-0.000782191 -0.000809633 0.0207377)
(-0.00225194 -0.000486985 0.0312115)
(-0.00213737 -0.00234582 0.0277677)
(-0.00135484 -0.00048516 0.0245924)
(-0.00103274 -0.000869733 0.0379319)
(0.00111799 0.00161351 0.0253158)
(-0.00322283 0.00359282 0.0462626)
(-0.0017596 -0.000198272 0.0273296)
(-0.00100742 -0.000408105 0.014851)
(-0.00258718 -0.000603913 0.0481233)
(-0.000707363 0.000335185 0.0147714)
(-0.00189105 0.000149048 0.0237559)
(-0.000480239 0.000211696 0.0289537)
(-6.29614e-05 -0.0002419 0.00125494)
(-0.00198946 0.00167217 0.0521513)
(-0.00152535 0.00271031 0.0522455)
(-0.000653074 -0.000134868 0.0202212)
(-0.00150993 0.000145961 0.0215513)
(-0.000341899 0.000855779 0.0199856)
(-0.00150244 0.00142897 0.0250473)
(-0.00184395 -0.000136399 0.0401984)
(-0.00467897 0.00934247 0.0424676)
(0.0013283 -0.000714022 0.0149755)
(0.00181463 0.00123259 0.0178562)
(-0.00024357 0.000307284 0.00508647)
(-1.98249e-06 0.000144416 0.00134738)
(0.000148147 0.00319708 0.022127)
(-0.000171385 0.000387392 0.0119388)
(-0.00145416 0.00156021 0.0205487)
(-0.00077408 0.00211964 0.0262475)
(-0.000402891 0.00153046 0.0151653)
(-0.000172771 -1.12122e-05 0.0182054)
(-0.000467151 0.000623796 0.0126236)
(-0.000446487 0.000666857 0.0132034)
(-0.000928392 0.000633948 0.0200469)
(-0.000674593 0.00106561 0.0214981)
(-0.0017521 0.000251781 0.0161672)
(-0.000206075 4.37586e-05 0.00630137)
(-2.19e-05 0.000256798 0.0200403)
(0.000161837 -8.62904e-05 0.01792)
(-0.000194837 -0.000747523 0.0141555)
(-8.25985e-05 0.000170695 0.0232155)
(9.73178e-05 2.55693e-05 0.0137007)
(-0.000673846 -0.00136104 0.0165559)
(-0.00118854 -0.00313519 0.0128346)
(-0.000720177 0.000696751 0.019775)
(-0.000317705 0.000118068 0.0301027)
(0.000250022 -0.000240536 0.0241924)
(-0.000176694 -0.000312806 0.019369)
(4.657e-05 0.000197737 0.0147812)
(-0.000381088 0.000498646 0.0165829)
(-0.000237048 9.58918e-05 0.019577)
(-0.00182975 -0.0018389 0.0215322)
(-0.000105602 0.000173699 0.022448)
(-6.21967e-05 0.000305835 0.026178)
(7.34789e-05 -0.000197938 0.0257409)
(0.000174223 0.00011202 0.0258657)
(-0.000393329 4.96258e-05 0.0344771)
(-5.64867e-05 -0.000724431 0.0247991)
(3.54109e-05 -0.000637053 0.0247742)
(1.60701e-05 -0.0004428 0.0233998)
(-0.000948481 0.000120087 0.0289265)
(-0.000252073 -0.000526865 0.0309076)
(0.000543174 -0.000519726 0.0288303)
(0.000176634 -0.000493181 0.0256272)
(0.000540427 -0.000116491 0.021047)
(0.000181671 0.000253469 0.0240117)
(0.000434796 -0.000130726 0.0274798)
(0.0002797 -0.000337613 0.0288105)
(-0.000104908 -0.00192852 0.00509848)
(-0.000701344 -0.000977001 0.00567636)
(-0.0008354 -0.00075037 0.00579401)
(-0.00071081 -0.000177486 0.00602499)
(0.000182725 -0.0010445 0.00799572)
(-6.71498e-05 -0.00103727 0.00624075)
(-0.00058635 -0.000713387 0.00591715)
(-0.000629695 -0.000356305 0.00553021)
(0.000599298 0.000625795 0.00785437)
(-0.000228611 -0.000263593 0.00765841)
(-0.000263872 -0.000550011 0.00666657)
(-0.000536419 -0.00061455 0.00578213)
(0.00112806 0.000489542 0.00627229)
(-0.000493899 0.000454706 0.00629462)
(-0.000471698 8.99454e-05 0.00642976)
(-0.000307461 -0.000249042 0.00608523)
(1.66214e-05 -0.000982119 0.0143155)
(-0.000215867 -0.000614429 0.01459)
(-0.000216549 -0.000355594 0.014715)
(-0.0001284 -1.55667e-05 0.0149358)
(0.000235984 -0.000765562 0.0155276)
(0.000116653 -0.000673065 0.0149969)
(1.91146e-05 -0.000437041 0.0148598)
(-1.37933e-05 -0.000131667 0.0148105)
(0.000510176 6.39321e-05 0.0155485)
(0.000215994 -0.000199596 0.0154745)
(0.000273756 -0.00026051 0.0150932)
(0.000135351 -0.00016111 0.0148341)
(0.00076411 0.000170892 0.014703)
(0.00017198 0.000103583 0.0148934)
(0.000254702 -6.56761e-05 0.0149735)
(0.000189776 -0.000125003 0.0148868)
(2.14992e-05 -0.000449675 0.0121072)
(-0.000149891 -0.000326725 0.012166)
(-0.000212297 -0.000198128 0.0121208)
(-0.00017179 -0.000135897 0.0120672)
(0.000139563 -0.000391622 0.0125399)
(-1.24587e-05 -0.000329218 0.0123443)
(-9.85523e-05 -0.000196496 0.0121298)
(-0.000101385 -0.000118825 0.0119341)
(0.00027658 -0.000122236 0.0126011)
(5.84534e-05 -0.000194651 0.0124769)
(6.27024e-06 -0.000169383 0.0121262)
(-4.44362e-05 -0.000138195 0.0118168)
(0.000377832 -1.15505e-05 0.0122243)
(6.73687e-05 -4.96683e-05 0.0121772)
(4.94824e-05 -7.81624e-05 0.0119336)
(1.75646e-05 -9.18843e-05 0.0116618)
(4.82052e-05 -0.000218124 0.0128)
(-8.45508e-06 -0.00016654 0.0128263)
(-1.29666e-05 -9.61479e-05 0.0128143)
(2.2575e-08 -4.60625e-05 0.0128084)
(0.00010729 -0.000197675 0.0129251)
(5.67787e-05 -0.00016768 0.0128764)
(5.00157e-05 -0.000103099 0.0127929)
(3.60412e-05 -4.90088e-05 0.0127435)
(0.000171281 -7.33576e-05 0.0129215)
(0.000104546 -9.6862e-05 0.0128772)
(0.000108673 -7.97826e-05 0.01274)
(7.16525e-05 -4.92372e-05 0.0126577)
(0.000215505 -1.15167e-05 0.0127612)
(0.000119797 -4.14922e-05 0.0127525)
(0.000132806 -6.381e-05 0.0126345)
(8.48184e-05 -5.50146e-05 0.0125615)
(4.10593e-05 -0.000103412 0.0128386)
(1.61591e-05 -8.25938e-05 0.0128293)
(9.56182e-06 -5.04756e-05 0.0127877)
(1.06597e-05 -3.28177e-05 0.0127309)
(6.81022e-05 -9.79104e-05 0.0128568)
(4.4004e-05 -8.46628e-05 0.0128178)
(3.78196e-05 -5.25384e-05 0.0127363)
(2.64082e-05 -3.19227e-05 0.0126557)
(9.61714e-05 -5.1503e-05 0.0128076)
(6.65688e-05 -6.04379e-05 0.0127618)
(6.21953e-05 -4.87828e-05 0.0126517)
(3.79081e-05 -3.75989e-05 0.0125568)
(0.000114715 -1.67283e-05 0.0126634)
(7.65426e-05 -3.34838e-05 0.0126303)
(7.4483e-05 -4.21163e-05 0.0125203)
(4.44854e-05 -3.82673e-05 0.0124314)
(3.16565e-05 -4.97524e-05 0.0128638)
(2.18166e-05 -4.1352e-05 0.0128497)
(1.86348e-05 -2.61157e-05 0.0128146)
(1.66824e-05 -1.73816e-05 0.0127657)
(4.34578e-05 -4.72103e-05 0.0128374)
(3.39687e-05 -4.21656e-05 0.0128105)
(3.16684e-05 -2.70815e-05 0.0127558)
(2.35552e-05 -1.66396e-05 0.0126975)
(5.51701e-05 -2.92179e-05 0.012766)
(4.43164e-05 -3.31184e-05 0.0127343)
(4.27687e-05 -2.697e-05 0.0126665)
(2.85241e-05 -2.01889e-05 0.0126057)
(6.30341e-05 -1.15555e-05 0.012637)
(5.02802e-05 -2.10243e-05 0.0126109)
(4.88679e-05 -2.58326e-05 0.0125438)
(3.00605e-05 -2.25847e-05 0.0124917)
(2.27681e-05 -2.43902e-05 0.0128764)
(1.83101e-05 -2.09572e-05 0.0128605)
(1.55872e-05 -1.40619e-05 0.0128279)
(1.29134e-05 -1.0005e-05 0.0127789)
(2.78319e-05 -2.31401e-05 0.0128315)
(2.33865e-05 -2.14516e-05 0.0128087)
(2.12202e-05 -1.44382e-05 0.0127645)
(1.56007e-05 -9.49228e-06 0.0127112)
(3.25753e-05 -1.55923e-05 0.0127491)
(2.79271e-05 -1.80208e-05 0.012723)
(2.59994e-05 -1.49738e-05 0.0126722)
(1.72092e-05 -1.18276e-05 0.0126199)
(3.56352e-05 -6.79641e-06 0.0126209)
(3.07457e-05 -1.22314e-05 0.0125977)
(2.84143e-05 -1.47357e-05 0.0125487)
(1.72895e-05 -1.30248e-05 0.0125057)
(1.59794e-05 -1.21303e-05 0.0128825)
(1.36695e-05 -1.07147e-05 0.0128668)
(1.15113e-05 -7.68618e-06 0.0128362)
(9.15982e-06 -5.74116e-06 0.0127884)
(1.80647e-05 -1.15256e-05 0.0128296)
(1.58398e-05 -1.0999e-05 0.0128092)
(1.38959e-05 -7.88351e-06 0.0127711)
(1.01661e-05 -5.3636e-06 0.0127212)
(1.99789e-05 -8.18929e-06 0.0127417)
(1.77451e-05 -9.79869e-06 0.0127193)
(1.59198e-05 -8.48298e-06 0.0126777)
(1.06722e-05 -6.88853e-06 0.0126306)
(2.10293e-05 -3.85795e-06 0.0126122)
(1.89483e-05 -7.09554e-06 0.0125921)
(1.68465e-05 -8.51121e-06 0.012554)
(1.03146e-05 -7.57595e-06 0.0125171)
(1.11766e-05 -6.03709e-06 0.0128854)
(9.81489e-06 -5.54733e-06 0.0128704)
(8.20334e-06 -4.26516e-06 0.0128411)
(6.42029e-06 -3.36483e-06 0.0127942)
(1.19475e-05 -5.82237e-06 0.012829)
(1.0711e-05 -5.72866e-06 0.0128102)
(9.19177e-06 -4.39434e-06 0.0127752)
(6.69588e-06 -3.11656e-06 0.0127271)
(1.26568e-05 -4.33384e-06 0.0127383)
(1.14955e-05 -5.37235e-06 0.0127181)
(9.94211e-06 -4.95432e-06 0.0126812)
(6.74904e-06 -4.20802e-06 0.0126367)
(1.29261e-05 -2.18036e-06 0.0126077)
(1.18878e-05 -4.14787e-06 0.0125898)
(1.01779e-05 -5.04268e-06 0.0125573)
(6.33675e-06 -4.59043e-06 0.0125232)
(7.84845e-06 -2.96981e-06 0.012887)
(6.98658e-06 -2.88328e-06 0.0128728)
(5.84985e-06 -2.38905e-06 0.0128443)
(4.56838e-06 -2.01751e-06 0.0127979)
(8.06171e-06 -2.92502e-06 0.0128289)
(7.3097e-06 -3.02545e-06 0.0128113)
(6.21591e-06 -2.48616e-06 0.012778)
(4.54919e-06 -1.84531e-06 0.0127309)
(8.26537e-06 -2.29693e-06 0.0127369)
(7.59204e-06 -2.99848e-06 0.0127181)
(6.42835e-06 -2.97731e-06 0.0126838)
(4.43378e-06 -2.63916e-06 0.0126406)
(8.23204e-06 -1.24975e-06 0.0126056)
(7.63449e-06 -2.4678e-06 0.0125891)
(6.36657e-06 -3.08629e-06 0.0125597)
(4.05554e-06 -2.88871e-06 0.0125272)
(5.50628e-06 -1.43008e-06 0.012888)
(4.94741e-06 -1.49576e-06 0.0128743)
(4.17139e-06 -1.34296e-06 0.0128464)
(3.27005e-06 -1.24128e-06 0.0128004)
(5.51825e-06 -1.45267e-06 0.0128291)
(5.03007e-06 -1.61423e-06 0.0128122)
(4.25951e-06 -1.42488e-06 0.0127799)
(3.14341e-06 -1.12518e-06 0.0127334)
(5.52227e-06 -1.21245e-06 0.0127364)
(5.08472e-06 -1.71826e-06 0.0127185)
(4.25355e-06 -1.83794e-06 0.0126855)
(2.98922e-06 -1.69187e-06 0.0126431)
(5.39232e-06 -7.25381e-07 0.0126047)
(4.98987e-06 -1.51015e-06 0.0125891)
(4.0987e-06 -1.94568e-06 0.0125613)
(2.67421e-06 -1.86997e-06 0.0125297)
(3.83833e-06 -6.6099e-07 0.0128886)
(3.468e-06 -7.66212e-07 0.0128753)
(2.95397e-06 -7.56459e-07 0.0128478)
(2.33529e-06 -7.76032e-07 0.012802)
(3.78745e-06 -7.08323e-07 0.0128293)
(3.46318e-06 -8.65523e-07 0.0128129)
(2.92968e-06 -8.199e-07 0.0127811)
(2.17926e-06 -6.96291e-07 0.012735)
(3.72682e-06 -6.39271e-07 0.0127363)
(3.42473e-06 -1.0091e-06 0.0127189)
(2.84656e-06 -1.157e-06 0.0126867)
(2.03645e-06 -1.10253e-06 0.0126447)
(3.57796e-06 -4.25518e-07 0.0126043)
(3.29369e-06 -9.46639e-07 0.0125893)
(2.68588e-06 -1.24856e-06 0.0125624)
(1.78907e-06 -1.23119e-06 0.0125313)
(2.62402e-06 -2.88266e-07 0.012889)
(2.38416e-06 -3.8937e-07 0.012876)
(2.04784e-06 -4.31703e-07 0.0128487)
(1.62956e-06 -4.83775e-07 0.0128031)
(2.56532e-06 -3.36179e-07 0.0128295)
(2.3463e-06 -4.63621e-07 0.0128135)
(1.98802e-06 -4.79351e-07 0.012782)
(1.49396e-06 -4.35703e-07 0.0127361)
(2.49537e-06 -3.37041e-07 0.0127363)
(2.28385e-06 -6.0188e-07 0.0127193)
(1.89522e-06 -7.27903e-07 0.0126875)
(1.37708e-06 -7.16562e-07 0.0126458)
(2.3651e-06 -2.52123e-07 0.0126042)
(2.1633e-06 -5.99432e-07 0.0125896)
(1.76126e-06 -8.03628e-07 0.0125632)
(1.19245e-06 -8.08724e-07 0.0125324)
(1.72542e-06 -1.11156e-07 0.0128893)
(1.57612e-06 -1.91553e-07 0.0128764)
(1.36372e-06 -2.43586e-07 0.0128493)
(1.09183e-06 -2.94643e-07 0.0128038)
(1.67815e-06 -1.51386e-07 0.0128296)
(1.53354e-06 -2.45618e-07 0.0128138)
(1.30335e-06 -2.79557e-07 0.0127826)
(9.89673e-07 -2.69538e-07 0.0127368)
(1.61909e-06 -1.74764e-07 0.0127363)
(1.47615e-06 -3.53847e-07 0.0127196)
(1.22686e-06 -4.48445e-07 0.0126881)
(9.02561e-07 -4.55387e-07 0.0126466)
(1.52325e-06 -1.47827e-07 0.0126042)
(1.38379e-06 -3.70984e-07 0.0125899)
(1.12643e-06 -5.05056e-07 0.0125637)
(7.7239e-07 -5.18728e-07 0.0125331)
(1.06802e-06 -3.9388e-08 0.0128894)
(9.81036e-07 -9.47814e-08 0.0128767)
(8.55259e-07 -1.36719e-07 0.0128497)
(6.93021e-07 -1.74755e-07 0.0128043)
(1.03261e-06 -6.74932e-08 0.0128297)
(9.46716e-07 -1.3215e-07 0.0128141)
(8.10243e-07 -1.64841e-07 0.0127829)
(6.25119e-07 -1.67214e-07 0.0127373)
(9.92247e-07 -8.99166e-08 0.0127364)
(9.05243e-07 -2.02342e-07 0.0127198)
(7.56834e-07 -2.66787e-07 0.0126884)
(5.65445e-07 -2.78463e-07 0.012647)
(9.33003e-07 -8.53545e-08 0.0126042)
(8.46365e-07 -2.22653e-07 0.01259)
(6.91526e-07 -3.0763e-07 0.0125641)
(4.82162e-07 -3.22342e-07 0.0125335)
(5.97981e-07 -3.40102e-08 0.0128895)
(5.57696e-07 -6.51807e-08 0.0128769)
(4.91481e-07 -9.07522e-08 0.0128499)
(4.05395e-07 -1.13608e-07 0.0128046)
(5.76747e-07 -4.6257e-08 0.0128298)
(5.36146e-07 -8.67748e-08 0.0128142)
(4.64815e-07 -1.12319e-07 0.0127832)
(3.68614e-07 -1.22667e-07 0.0127376)
(5.57425e-07 -5.34159e-08 0.0127364)
(5.1505e-07 -1.18344e-07 0.01272)
(4.35301e-07 -1.61015e-07 0.0126887)
(3.33124e-07 -1.76235e-07 0.0126473)
(5.35292e-07 -5.07937e-08 0.0126042)
(4.91478e-07 -1.33474e-07 0.0125902)
(4.06274e-07 -1.89314e-07 0.0125643)
(2.94854e-07 -2.07103e-07 0.0125338)
(0.00236701 0.000163811 0.0240423)
(0.00360811 0.000455777 0.0244631)
(0.00230205 0.000106717 0.0125427)
(0.00142576 -4.32337e-05 0.0149403)
(0.00170827 -0.000844893 0.0198469)
(0.00286342 -3.12369e-06 0.0230285)
(0.00164348 -0.000983146 0.0136745)
(8.6828e-05 -0.000885726 0.0168857)
(-0.000664526 -2.90897e-05 0.0046548)
(0.00225024 0.00085249 0.0208127)
(0.00224402 0.00208333 0.0208193)
(0.000943559 0.00239585 0.0230714)
(-0.00199508 0.00422705 0.0324559)
(0.000858655 0.00159104 0.0115156)
(0.0028212 0.00551498 0.0225481)
(-2.41176e-05 0.00277705 0.0191625)
(-0.00273145 -0.00128753 0.0166087)
(0.00191595 0.000690465 0.0164629)
(0.00823906 0.00304581 0.0419617)
(0.00287932 -0.00230707 0.0452898)
(0.000648572 0.000326372 0.0107055)
(0.000903214 0.00194171 0.0211269)
(0.00178011 -0.00145314 0.0359343)
(0.000394817 -0.00139745 0.0262555)
(0.00295348 -0.000135328 0.0312764)
(-0.000126907 -0.000851727 0.0163105)
(1.96763e-05 -0.000728758 0.010384)
(0.00144458 -0.00029407 0.0271003)
(-0.000731202 -0.000762584 0.0245063)
(-0.000260417 -2.82072e-05 0.00503804)
(-0.00035943 0.000594794 0.0202955)
(0.000471428 0.000579752 0.0372659)
(0.00271675 -0.000735781 0.0198806)