/*--------------------------------*- C++ -*----------------------------------*\
| =========                 |                                                 |
| \\      /  F ield         | OpenFOAM: The Open Source CFD Toolbox           |
|  \\    /   O peration     | Version:  2506                                  |
|   \\  /    A nd           | Website:  www.openfoam.com                      |
|    \\/     M anipulation  |                                                 |
\*---------------------------------------------------------------------------*/
FoamFile
{
    version     2.0;
    format      ascii;
    arch        "LSB;label=32;scalar=64";
    class       volScalarField;
    location    "0.06";
    object      voidfraction;
}
// * * * * * * * * * * * * * * * * * * * * * * * * * * * * * * * * * * * * * //

dimensions      [0 0 0 0 0 0 0];

internalField   nonuniform List<scalar> 
1152
(
0.570764
0.41803
0.415396
0.339029
0.547064
0.42593
0.43383
0.436463
0.341663
0.44173
0.412763
0.47333
0.44963
0.420663
0.468063
0.46543
0.510197
0.404863
0.462797
0.428563
0.468063
0.44173
0.383796
0.399596
0.328496
0.460163
0.399596
0.381163
0.436463
0.40223
0.48123
0.352196
0.357463
0.360096
0.378529
0.51283
0.325862
0.383796
0.381163
0.381163
0.42593
0.412763
0.383796
0.404863
0.399596
0.381163
0.391696
0.452263
0.275829
0.370629
0.439097
0.362729
0.428563
0.375896
0.39433
0.370629
0.391696
0.407496
0.404863
0.428563
0.436463
0.41013
0.436463
0.444363
0.286362
0.499664
0.383796
0.389063
0.349563
0.362729
0.452263
0.412763
0.38643
0.399596
0.412763
0.45753
0.42593
0.360096
0.373263
0.45753
0.533897
0.42593
0.404863
0.428563
0.491764
0.412763
0.396963
0.39433
0.365363
0.352196
0.383796
0.404863
0.460163
0.333763
0.44963
0.431196
0.462797
0.549697
0.562864
0.683998
0.583931
0.670831
0.723498
0.810399
0.589197
0.589197
0.665565
0.734032
0.47333
0.715598
0.586564
0.631331
1
1
1
1
1
1
1
1
1
1
1
1
1
1
1
1
1
1
1
1
1
1
1
1
1
1
1
1
1
1
1
1
1
1
1
1
1
1
1
1
1
1
1
1
1
1
1
1
1
1
1
1
1
1
1
1
1
1
1
1
1
1
1
1
1
1
1
1
1
1
1
1
1
1
1
1
1
1
1
1
1
1
1
1
1
1
1
1
1
1
1
1
1
1
1
1
1
1
1
1
1
1
1
1
1
1
1
1
1
1
1
1
1
1
1
1
1
1
1
1
1
1
1
1
1
1
1
1
1
1
1
1
1
1
1
1
1
1
1
1
1
1
1
1
1
1
1
1
1
1
1
1
1
1
1
1
1
1
1
1
1
1
1
1
1
1
1
1
1
1
1
1
1
1
1
1
1
1
1
1
1
1
1
1
1
1
1
1
1
1
1
1
1
1
1
1
1
1
1
1
1
1
1
1
1
1
1
1
1
1
1
1
1
1
1
1
1
1
1
1
1
1
1
1
1
1
1
1
1
1
1
1
1
1
1
1
1
1
1
1
1
1
1
1
1
1
1
1
1
1
1
1
1
1
1
1
1
1
1
1
1
1
1
1
1
1
1
1
1
1
1
1
0.458734
0.396362
0.499307
0.426086
0.407469
0.389834
0.423863
0.423346
0.489644
0.448165
0.461609
0.480198
0.382564
0.403512
0.480367
0.484719
0.431169
0.380121
0.447954
0.439229
0.422946
0.408828
0.349076
0.397959
0.426344
0.437593
0.459173
0.483292
0.489944
0.472117
0.417315
0.492813
0.358499
0.396362
0.370924
0.351609
0.358828
0.430195
0.412784
0.466867
0.394695
0.361478
0.464045
0.405941
0.384354
0.432097
0.417315
0.468532
0.361005
0.436965
0.364505
0.404181
0.387571
0.406454
0.421093
0.455987
0.432279
0.424908
0.434812
0.396659
0.391513
0.388266
0.406444
0.444252
0.421146
0.458621
0.393391
0.369133
0.460531
0.385086
0.393394
0.401586
0.329416
0.469308
0.466482
0.384283
0.370037
0.374926
0.399921
0.430763
0.511357
0.412603
0.409439
0.329703
0.374305
0.423073
0.376775
0.397959
0.432279
0.41645
0.417758
0.384283
0.40762
0.422569
0.428186
0.401087
0.53391
0.621034
0.634109
0.680185
0.717
0.650995
0.698082
0.648205
0.71515
0.758969
0.700353
0.715347
0.774502
0.731294
0.702135
0.689752
1
1
1
1
1
1
1
1
1
1
1
1
1
1
1
1
1
1
1
1
1
1
1
1
1
1
1
1
1
1
1
1
1
1
1
1
1
1
1
1
1
1
1
1
1
1
1
1
1
1
1
1
1
1
1
1
1
1
1
1
1
1
1
1
1
1
1
1
1
1
1
1
1
1
1
1
1
1
1
1
1
1
1
1
1
1
1
1
1
1
1
1
1
1
1
1
1
1
1
1
1
1
1
1
1
1
1
1
1
1
1
1
1
1
1
1
1
1
1
1
1
1
1
1
1
1
1
1
1
1
1
1
1
1
1
1
1
1
1
1
1
1
1
1
1
1
1
1
1
1
1
1
1
1
1
1
1
1
1
1
1
1
1
1
1
1
1
1
1
1
1
1
1
1
1
1
1
1
1
1
1
1
1
1
1
1
1
1
1
1
1
1
1
1
1
1
1
1
1
1
1
1
1
1
1
1
1
1
1
1
1
1
1
1
1
1
1
1
1
1
1
1
1
1
1
1
1
1
1
1
1
1
1
1
1
1
1
1
1
1
1
1
1
1
1
1
1
1
1
1
1
1
1
1
1
1
1
1
1
1
1
1
1
1
1
1
1
1
1
1
1
1
0.478781
0.469375
0.418432
0.438044
0.428845
0.439692
0.431251
0.432097
0.361296
0.423863
0.432375
0.47167
0.474277
0.397959
0.452352
0.490115
0.371029
0.369883
0.467885
0.479206
0.358465
0.406454
0.454508
0.422569
0.422277
0.376775
0.354418
0.423838
0.430467
0.347184
0.415223
0.476626
0.386064
0.336719
0.42041
0.450572
0.439672
0.442066
0.414336
0.403512
0.380553
0.440483
0.393397
0.44558
0.452372
0.365318
0.399753
0.42267
0.416134
0.431789
0.45206
0.472048
0.342224
0.413576
0.418565
0.4664
0.39981
0.459872
0.405578
0.480367
0.3998
0.358065
0.387377
0.409181
0.413628
0.387571
0.384804
0.409409
0.342224
0.420699
0.420679
0.369209
0.342038
0.429403
0.364163
0.426012
0.44361
0.45236
0.415223
0.395692
0.463745
0.442844
0.473819
0.412989
0.409896
0.41595
0.433365
0.447343
0.358086
0.465412
0.415322
0.43036
0.364752
0.343558
0.378095
0.444252
0.659203
0.69268
0.695369
0.642066
0.72119
0.681859
0.826627
0.708426
0.707929
0.664844
0.637013
0.591251
0.583803
0.539402
0.600867
0.549467
1
1
1
1
1
1
1
1
1
1
1
1
1
1
1
1
1
1
1
1
1
1
1
1
1
1
1
1
1
1
1
1
1
1
1
1
1
1
1
1
1
1
1
1
1
1
1
1
1
1
1
1
1
1
1
1
1
1
1
1
1
1
1
1
1
1
1
1
1
1
1
1
1
1
1
1
1
1
1
1
1
1
1
1
1
1
1
1
1
1
1
1
1
1
1
1
1
1
1
1
1
1
1
1
1
1
1
1
1
1
1
1
1
1
1
1
1
1
1
1
1
1
1
1
1
1
1
1
1
1
1
1
1
1
1
1
1
1
1
1
1
1
1
1
1
1
1
1
1
1
1
1
1
1
1
1
1
1
1
1
1
1
1
1
1
1
1
1
1
1
1
1
1
1
1
1
1
1
1
1
1
1
1
1
1
1
1
1
1
1
1
1
1
1
1
1
1
1
1
1
1
1
1
1
1
1
1
1
1
1
1
1
1
1
1
1
1
1
1
1
1
1
1
1
1
1
1
1
1
1
1
1
1
1
1
1
1
1
1
1
1
1
1
1
1
1
1
1
1
1
1
1
1
1
1
1
1
1
1
1
1
1
1
1
1
1
1
1
1
1
1
1
)
;

boundaryField
{
    inlet
    {
        type            fixedValue;
        value           uniform 1;
    }
    outlet
    {
        type            fixedValue;
        value           uniform 1;
    }
    wall
    {
        type            zeroGradient;
    }
    procBoundary3to1
    {
        type            processor;
        value           nonuniform List<scalar> 
192
(
0.420663
0.431196
0.52863
0.49703
0.40223
0.357463
0.325862
0.41013
0.40223
0.436463
0.47333
0.328496
0.341663
0.423296
0.41803
0.349563
0.452263
0.299529
0.45753
0.423296
0.454897
0.381163
0.439097
0.439097
0.475963
0.626064
0.791965
0.749832
0.997367
1
1
1
1
1
1
1
1
1
1
1
1
1
1
1
1
1
1
1
1
1
1
1
1
1
1
1
1
1
1
1
1
1
1
1
1
1
1
1
1
1
1
1
1
1
1
1
1
1
1
1
1
1
1
1
1
1
1
1
1
1
1
1
1
1
1
1
0.350982
0.453899
0.473819
0.443413
0.391075
0.343352
0.410519
0.370037
0.451216
0.400836
0.382826
0.472048
0.41864
0.407469
0.368979
0.373616
0.38857
0.414102
0.426344
0.480996
0.386064
0.414102
0.400629
0.384354
0.711826
0.723633
0.855597
0.808505
1
1
1
1
1
1
1
1
1
1
1
1
1
1
1
1
1
1
1
1
1
1
1
1
1
1
1
1
1
1
1
1
1
1
1
1
1
1
1
1
1
1
1
1
1
1
1
1
1
1
1
1
1
1
1
1
1
1
1
1
1
1
1
1
1
1
1
1
)
;
    }
    procBoundary3to2
    {
        type            processor;
        value           nonuniform List<scalar> 
192
(
0.357463
0.339029
0.52863
0.452263
0.317962
0.431196
0.431196
0.383796
0.478597
0.460163
0.396963
0.365363
0.446997
0.399596
0.423296
0.341663
0.436463
0.378529
0.468063
0.328496
0.325862
0.41013
0.38643
0.328496
0.594464
0.591831
0.602364
0.591831
1
1
1
1
1
1
1
1
1
1
1
1
1
1
1
1
1
1
1
1
1
1
1
1
1
1
1
1
1
1
1
1
1
1
1
1
1
1
1
1
1
1
1
1
1
1
1
1
1
1
1
1
1
1
1
1
1
1
1
1
1
1
1
1
1
1
1
1
0.408616
0.422946
0.465907
0.446992
0.355993
0.391992
0.410519
0.395092
0.476275
0.467164
0.372935
0.395092
0.44871
0.389782
0.386782
0.441623
0.398593
0.374305
0.42041
0.40762
0.371029
0.469375
0.331395
0.493524
0.70932
0.64625
0.788341
0.83714
1
1
1
1
1
1
1
1
1
1
1
1
1
1
1
1
1
1
1
1
1
1
1
1
1
1
1
1
1
1
1
1
1
1
1
1
1
1
1
1
1
1
1
1
1
1
1
1
1
1
1
1
1
1
1
1
1
1
1
1
1
1
1
1
1
1
1
1
)
;
    }
}


// ************************************************************************* //
