/*--------------------------------*- C++ -*----------------------------------*\
| =========                 |                                                 |
| \\      /  F ield         | OpenFOAM: The Open Source CFD Toolbox           |
|  \\    /   O peration     | Version:  2506                                  |
|   \\  /    A nd           | Website:  www.openfoam.com                      |
|    \\/     M anipulation  |                                                 |
\*---------------------------------------------------------------------------*/
FoamFile
{
    version     2.0;
    format      ascii;
    arch        "LSB;label=32;scalar=64";
    class       volScalarField;
    location    "0.004";
    object      p;
}
// * * * * * * * * * * * * * * * * * * * * * * * * * * * * * * * * * * * * * //

dimensions      [0 2 -2 0 0 0 0];

internalField   nonuniform List<scalar> 
512
(
-0.34853
29.6582
54.8827
67.3665
63.8772
65.4605
65.2503
48.9975
30.6949
26.6267
26.5564
15.7604
1.53889
-3.92215
-5.49507
-12.5849
-25.9436
-32.0123
-30.0098
-32.2822
-38.7411
-30.4727
-16.4553
-8.08569
-2.99644
-2.44264
-8.67995
-16.0077
-19.4789
-29.1779
-38.8814
-26.6844
-0.59804
27.9679
51.0667
59.7093
64.9419
71.6791
66.4343
45.4688
28.8706
25.9723
23.5751
12.4871
0.905437
-2.87606
-5.41678
-14.058
-26.2718
-29.4286
-27.2329
-31.0638
-37.4827
-28.7828
-16.7526
-11.497
-6.4709
-5.41919
-9.44932
-13.2858
-16.3309
-26.3275
-35.5398
-24.1336
2.37552
26.7611
46.4876
53.9748
63.1691
71.5401
64.525
43.0725
29.6886
26.1042
18.1519
5.14778
-0.222411
-0.626836
-3.99502
-13.126
-25.707
-26.716
-24.5885
-32.1982
-36.6606
-25.4476
-16.2631
-16.9556
-10.5153
-6.6701
-10.3148
-12.6436
-12.9651
-20.5049
-28.6857
-18.4801
7.51672
26.5007
42.1528
49.131
57.1641
66.1267
60.1493
41.9157
31.7342
25.8758
13.0469
0.314579
-2.68188
-0.545127
-1.91194
-11.9693
-25.8933
-26.6984
-23.5782
-28.2403
-33.6401
-25.292
-18.0304
-19.7467
-10.9192
-5.84638
-14.137
-15.8761
-9.48019
-11.3121
-19.2139
-10.546
14.9508
29.7296
37.9116
43.0638
52.355
58.2468
52.3335
36.6254
29.7827
26.8592
14.3573
-0.144851
-3.00972
0.605745
-1.88642
-13.5918
-26.3384
-26.589
-22.6366
-26.6107
-33.8528
-28.6367
-21.4747
-20.6267
-12.5286
-8.27505
-17.9564
-18.2384
-4.45725
-0.124578
-8.46704
-2.3605
21.1878
35.4835
41.506
39.5208
44.8734
50.3116
44.0234
32.1275
28.6797
27.7526
15.3992
0.563271
-2.43624
1.17112
-3.8653
-18.107
-25.6317
-24.3001
-22.3035
-26.6403
-37.26
-36.2631
-27.3215
-20.4987
-14.9142
-17.3436
-22.8223
-14.5865
3.59898
9.81492
4.92801
8.22146
27.1743
37.1402
40.9666
40.3365
40.8229
44.069
39.3817
29.0182
27.3873
28.2452
17.0797
1.99478
-1.9588
0.13995
-7.38124
-20.5462
-24.8988
-22.8791
-21.0605
-25.4093
-40.7393
-44.3499
-33.6536
-20.4631
-16.7446
-27.1955
-26.709
-13.3949
6.06535
22.5153
26.1685
19.6384
31.7313
36.9404
42.9059
42.1321
37.1328
39.7734
36.455
26.181
26.1062
29.1226
18.8298
3.26884
-1.73488
-0.943806
-9.75286
-22.4432
-25.0281
-21.3487
-19.777
-25.4061
-43.4657
-48.7399
-37.0435
-21.3644
-20.3642
-32.2027
-26.9012
-9.82721
8.48744
24.7636
33.7118
32.3112
0.371655
29.6361
52.0857
58.8666
63.4225
70.9203
66.3854
48.9115
34.4609
29.1567
23.3679
12.0275
1.03219
-4.6268
-9.4199
-16.6671
-24.3334
-31.7722
-35.5353
-39.1348
-41.5292
-30.6315
-12.9495
1.24435
4.58178
-4.8705
-10.9186
-15.4112
-19.277
-29.3587
-37.1713
-24.2765
2.23099
28.2797
48.64
54.8076
62.4356
71.1748
65.583
47.1505
33.9811
28.6907
21.9304
10.5289
0.995059
-4.15989
-10.3064
-18.5272
-24.1594
-28.4614
-32.2709
-37.2606
-40.7017
-30.4588
-14.2121
-2.33395
0.943095
-7.1004
-11.0135
-13.0344
-16.1699
-25.8486
-33.4701
-21.3429
5.36891
27.3736
43.9089
50.0869
58.9339
68.8942
63.9325
45.4951
33.4984
27.6226
20.1701
8.24595
-0.571765
-3.7087
-10.1447
-17.5343
-23.5492
-28.9757
-29.771
-33.2448
-38.4171
-27.5334
-14.9256
-10.6477
-6.22709
-6.0692
-10.3215
-12.3507
-12.365
-19.1394
-26.5016
-15.3901
11.6703
27.7579
35.9981
42.3282
53.7335
64.4241
60.995
44.0107
34.5243
27.5686
15.449
3.53878
-1.52695
-2.91298
-9.78058
-16.9532
-22.4946
-27.2429
-28.2494
-32.9453
-34.3551
-24.7331
-17.7453
-16.9017
-7.92349
-4.2681
-13.7056
-15.9156
-8.86521
-9.61107
-17.1431
-7.96878
18.5193
30.3925
34.3891
38.062
47.8353
56.1435
54.7525
42.2376
33.0649
26.2482
14.3249
2.67572
-1.38146
-2.94033
-9.93725
-16.7485
-21.9637
-26.5923
-27.6821
-31.2084
-31.7319
-28.753
-25.0222
-18.367
-9.2387
-7.05304
-16.2794
-17.0868
-3.51903
1.06025
-6.65365
0.526774
22.4498
33.4215
37.2858
35.5491
42.2674
48.9251
47.474
39.1508
31.3093
25.4793
14.797
3.10339
-1.61552
-3.86403
-10.8775
-17.1956
-21.3349
-27.4915
-28.4255
-27.8444
-32.8913
-37.6067
-31.4913
-20.2663
-11.7832
-14.3221
-21.2772
-13.2358
4.71268
11.8059
6.32333
9.9399
24.9484
32.0589
36.316
38.966
41.0539
44.2942
43.5866
35.6751
29.2014
26.0062
16.5496
3.88629
-1.84773
-4.41513
-10.6617
-18.0436
-23.1773
-26.1385
-27.4675
-28.3242
-36.046
-42.8815
-34.2245
-19.977
-15.2973
-25.7432
-26.4118
-12.8965
7.26983
24.6945
29.0251
20.7296
29.5335
30.587
36.5052
40.5047
39.851
41.7057
39.7991
30.7423
26.7208
26.9056
19.1682
4.97166
-2.23952
-4.87401
-11.3505
-18.6486
-23.0653
-24.8795
-26.8499
-29.3236
-38.5739
-45.2935
-35.5834
-21.3152
-21.609
-33.0264
-27.0742
-9.60542
9.57333
28.97
38.7779
32.1557
)
;

boundaryField
{
    wall
    {
        type            zeroGradient;
    }
    outlet
    {
        type            cyclic;
    }
    inlet
    {
        type            cyclic;
    }
    procBoundary0to1
    {
        type            processor;
        value           nonuniform List<scalar> 
256
(
3.88764
30.3414
48.568
52.1369
60.7654
70.2428
64.8312
45.6115
35.0134
32.535
25.4174
9.28474
-3.71549
-6.40995
-9.52506
-17.0354
-22.5975
-31.7428
-41.0516
-46.3638
-42.0417
-27.3867
-10.0704
3.7128
5.71119
-5.43791
-8.58646
-10.5306
-17.6742
-31.5986
-34.0659
-19.3996
6.40175
30.4318
46.4085
48.9175
57.0103
67.8764
64.1579
44.8091
33.9194
31.156
24.2602
8.87965
-2.35856
-5.5026
-11.6432
-18.2827
-22.3239
-29.6434
-35.7092
-42.9606
-42.5557
-28.9803
-12.2303
1.13076
3.63667
-6.26562
-8.40324
-8.87717
-15.0011
-28.0028
-30.9336
-16.1675
10.3635
29.9292
40.5312
43.4765
52.6282
64.7555
62.3266
44.2841
32.8053
27.9731
20.9984
9.50711
-1.05738
-5.80906
-13.4121
-18.1286
-21.0383
-28.5445
-33.0249
-38.5497
-39.8883
-28.258
-14.1088
-4.44171
-0.942849
-5.83335
-8.3428
-10.62
-12.092
-18.2685
-23.4202
-11.0074
16.7169
29.9373
33.3546
37.7385
48.7481
59.1477
58.2689
44.707
34.3554
26.3373
15.8003
6.45813
0.109087
-5.30558
-14.2871
-18.3951
-21.4326
-29.3655
-31.977
-33.8737
-33.6834
-24.5708
-15.8474
-11.0241
-6.21484
-6.182
-10.01
-12.3959
-7.66248
-8.44032
-14.2599
-3.31
21.7804
31.26
31.47
32.4973
41.6322
50.9075
52.119
44.0743
34.8145
26.0179
13.1159
3.34672
-0.126883
-4.6069
-12.7039
-18.8536
-25.2505
-27.5883
-28.5039
-33.4497
-30.8345
-26.0065
-23.1667
-16.7001
-8.11005
-6.42267
-13.4158
-13.9442
-1.26505
3.65217
-4.81654
3.81604
21.0959
28.4135
32.251
34.0871
39.7266
45.4393
46.7924
41.6549
32.7712
25.3617
15.2513
4.58456
-2.0983
-6.65681
-12.1742
-17.4769
-23.1725
-27.7011
-30.4581
-30.0718
-31.3584
-33.5797
-28.2066
-18.7119
-11.4834
-14.6515
-20.5287
-11.2943
7.79285
17.3136
12.5464
12.5918
22.7009
25.4622
31.9201
37.5987
39.1029
41.665
43.7176
39.3174
30.9602
25.1002
16.5895
5.88148
-2.40842
-7.62343
-12.0329
-16.4743
-22.3329
-26.9884
-29.9351
-29.5707
-34.0985
-39.0959
-31.4926
-19.3574
-16.7495
-26.6437
-25.5439
-11.0046
9.68955
27.2643
31.9492
23.4518
24.953
26.4248
35.0686
39.7417
35.3501
37.4595
41.3508
37.5375
29.6149
25.0677
17.554
6.46678
-2.14846
-7.48536
-11.2994
-15.7527
-21.833
-26.0913
-28.8242
-30.3422
-37.6406
-40.9662
-31.6466
-21.1808
-24.7281
-34.322
-26.6074
-8.57724
11.15
32.2678
42.8031
31.8886
)
;
    }
}


// ************************************************************************* //
