FoamFile
{version 2.0; format ascii;class vectorField; location 0;object  v;}
1000
(
( 0 0 -0.163145 )  
( 0 0 0.01943 )  
( 0 0 0.29751 )  
( 0 0 -0.129609 )  
( 0 0 0.0633349 )  
( 0 0 -0.0938339 )  
( 0 0 -0.112834 )  
( 0 0 0.30114 )  
( 0 0 -6.57036e-14 )  
( 0 0 0.158528 )  
( 0 0 0.214149 )  
( 0 0 0.0612382 )  
( 0 0 -3.83022e-08 )  
( 0 0 -2.92894e-05 )  
( 0 0 0.203596 )  
( 0 0 6.37579e-05 )  
( 0 0 0.322395 )  
( 0 0 -0.00537215 )  
( 0 0 -0.0317081 )  
( 0 0 -0.133192 )  
( 0 0 -0.039071 )  
( 0 0 0.162741 )  
( 0 0 -0.0385964 )  
( 0 0 0.261902 )  
( 0 0 -2.35801e-13 )  
( 0 0 0.245061 )  
( -0.0418651 -0.0358389 -2.35801e-13 )  
( 0 0 -0.0848358 )  
( 0.166872 -0.00727711 0.0661756 )  
( 0 0 -0.0800238 )  
( 0 0 -0.0480246 )  
( 0 0 -0.127516 )  
( -0.318376 -0.143833 -0.0111019 )  
( 0 0 -0.0606797 )  
( 0 0 -0.0706445 )  
( 0 0 0.142152 )  
( 0 0 -0.0499672 )  
( 0 0 -0.0271508 )  
( 0 0 -0.0744277 )  
( 0 0 0.187678 )  
( 0 0 0.0769627 )  
( 0 0 0.352229 )  
( 0 0 0.059379 )  
( 0 0 0.0232866 )  
( 0 0 -0.00246638 )  
( 0 0 0.0354742 )  
( 0 0 0.0705348 )  
( 0 0 -0.159147 )  
( 0 0 -0.208649 )  
( 0 0 0.205946 )  
( 0 0 -0.049164 )  
( 0 0 1.40775e-10 )  
( 0 0 0.0943308 )  
( 0 0 -3.35816e-13 )  
( 0 0 0.318689 )  
( 0 0 0.272435 )  
( 0 0 0.077635 )  
( 0 0 -0.209763 )  
( 0 0 0.132406 )  
( 0 0 0.128767 )  
( 0 0 0.0378815 )  
( 0 0 -0.0469848 )  
( 0 0 -0.16703 )  
( 0 0 0.194717 )  
( 0 0 0.117827 )  
( -0.0107719 -0.0283122 -1.16648e-05 )  
( 0 0 0.00628455 )  
( 0 0 -0.0315246 )  
( 0 0 0.25676 )  
( 0 0 -0.0570277 )  
( 0 0 -0.124193 )  
( 0 0 0.326149 )  
( 0 0 0.24402 )  
( 0 0 -0.0100153 )  
( 0 0 -0.118495 )  
( 0 0 0.020315 )  
( 0 0 0.216566 )  
( 0 0 0.208116 )  
( 0 0 0.140741 )  
( 0 0 0.31893 )  
( 0 0 0.0412738 )  
( 0 0 -0.182122 )  
( 0 0 -0.144196 )  
( 0 0 0.0394769 )  
( 0 0 0.0728226 )  
( 0 0 0.0416044 )  
( 0 0 0.0602041 )  
( 0 0 3.64339e-12 )  
( 0 0 -0.140944 )  
( 0 0 -0.0184491 )  
( 0 0 0.342499 )  
( 0 0 -4.67547e-13 )  
( -0.0315979 0.00244181 -0.000273958 )  
( 0 0 0.0211833 )  
( 0 0 -4.05898e-13 )  
( 0 0 0.109466 )  
( 0 0 -0.0216175 )  
( -0.00152274 -0.106679 -3.23594e-06 )  
( 0 0 -0.0948513 )  
( 0 0 -0.193809 )  
( 0 0 -0.0739072 )  
( 0 0 0.000187769 )  
( 0 0 0.335113 )  
( 0 0 -3.2863e-07 )  
( 0 0 0.206963 )  
( 0.0106317 0.290175 0.0211023 )  
( 0 0 -4.05898e-13 )  
( 0.0804043 -0.0178028 5.59287e-05 )  
( 0 0 -0.0408372 )  
( -0.00594964 -0.162385 -0.00689654 )  
( 0 0 0.0558711 )  
( 0 0 -0.142981 )  
( 0 0 -0.00313465 )  
( 0 0 -0.07367 )  
( 0 0 -0.185571 )  
( 0 0 -0.199722 )  
( 0.0062068 -0.149436 0.000142894 )  
( 0 0 0.126247 )  
( 0 0 -0.203486 )  
( 0 0 0.0016725 )  
( 0 0 0.314624 )  
( 0 0 -0.132999 )  
( 0 0 0.14682 )  
( 0 0 0.014572 )  
( -0.0974933 -0.108494 -0.0236923 )  
( 0 0 0.0905563 )  
( 0 0 -0.0178856 )  
( 0 0 0.0139819 )  
( 0 0 0.131619 )  
( 0 0 0.336709 )  
( 0 0 0.0845965 )  
( 0 0 -0.116372 )  
( 0 0 0.140522 )  
( 0 0 -0.112593 )  
( 0 0 -0.0299134 )  
( 0 0 -0.183903 )  
( 0 0 -1.21749e-10 )  
( 0 0 -2.49229e-13 )  
( 0 0 -0.240807 )  
( 0 0 0.0201941 )  
( 0 0 0.0431858 )  
( 0 0 -0.0900654 )  
( 0 0 0.301916 )  
( 0 0 -2.35801e-13 )  
( 0 0 -0.0213465 )  
( 0 0 -0.0476495 )  
( 0 0 -0.231627 )  
( 0 0 0.0421793 )  
( -0.120205 0.295993 -0.0458783 )  
( 0 0 -2.84899e-05 )  
( 0 0 -6.57036e-14 )  
( 0 0 0.0854011 )  
( 0 0 -0.0493142 )  
( 0 0 -0.0296625 )  
( 0 0 -0.0885551 )  
( 0 0 0.283264 )  
( 0 0 0.107048 )  
( 0 0 -4.07631e-10 )  
( 0 0 0.0712164 )  
( 0 0 0.119093 )  
( 0 0 0.0648129 )  
( 0 0 0.235113 )  
( 0 0 -0.0264024 )  
( 0 0 0.00544716 )  
( 0 0 0.1105 )  
( 0 0 0.312912 )  
( 0 0 0.0426047 )  
( 0 0 -0.00247193 )  
( 0 0 -0.0848741 )  
( 0 0 0.24395 )  
( 0.385143 -0.011363 -1.71259e-06 )  
( 0 0 -0.000151934 )  
( 0 0 -4.05898e-13 )  
( 0 0 0.0683114 )  
( 0 0 0.249477 )  
( 0 0 0.35743 )  
( 0 0 0.143426 )  
( -0.00235411 -0.00106491 0.0561104 )  
( 0 0 0.0753194 )  
( 0.147917 0.105935 -5.75998e-13 )  
( 0 0 0.0185721 )  
( 0 0 -0.0124888 )  
( 0 0 0.00022546 )  
( 0 0 0.0199308 )  
( 0 0 -0.142157 )  
( 0 0 0.0595116 )  
( 0 0 -0.0614087 )  
( 0 0 -0.0671315 )  
( 0 0 -0.177017 )  
( 0 0 -0.00821376 )  
( 0 0 -0.113458 )  
( 0 0 0.165988 )  
( 0 0 -0.0997569 )  
( 0 0 0.00238002 )  
( 0 0 0.334395 )  
( 0 0 -2.35802e-13 )  
( 0 0 -0.06914 )  
( 0 0 0.270844 )  
( 0 0 0.0708942 )  
( -0.0211897 -0.0158102 1.21978e-10 )  
( 0 0 -3.1935e-13 )  
( 0 0 4.96252e-10 )  
( 0 0 -0.19856 )  
( -0.0525256 -0.038534 0.346493 )  
( 0 0 0.189102 )  
( 0 0 -0.0190519 )  
( 0 0 0.0532977 )  
( 0 0 0.290136 )  
( 0 0 0.0800015 )  
( 0 0 -4.05898e-13 )  
( 0 0 -0.0643296 )  
( 0 0 0.21022 )  
( 0 0 0.0253623 )  
( 0 0 -0.0811777 )  
( 0 0 0.189711 )  
( 0 0 -0.102304 )  
( 0 0 -4.05898e-13 )  
( 0.00567194 0.39736 0.12034 )  
( 0 0 -0.00700377 )  
( 0 0 0.315291 )  
( 0 0 -4.05898e-13 )  
( 0 0 0.320153 )  
( 0 0 0.023339 )  
( 0 0 0.182199 )  
( -0.0757522 -0.155047 -0.0340447 )  
( 0 0 0.00119498 )  
( 0 0 -0.1402 )  
( 0 0 -0.118751 )  
( -0.455929 0.0198825 -0.0371938 )  
( 0 0 -0.00542768 )  
( 0.151123 -0.0632129 0.205345 )  
( 0.00792441 0.00581354 -4.05898e-13 )  
( 0 0 0.35074 )  
( 0 0 0.123345 )  
( 0 0 2.58659e-07 )  
( 0 0 0.155041 )  
( 0 0 0.0651051 )  
( 0 0 0.00522771 )  
( 0 0 0.26241 )  
( 0 0 0.238624 )  
( 0 0 -0.0260624 )  
( 0 0 -0.0236503 )  
( 0 0 0.279394 )  
( 0 0 -0.00356972 )  
( -0.175023 0.00516376 4.44587e-13 )  
( 0 0 -0.157086 )  
( 0 0 -0.0102279 )  
( 0.220148 -0.0170125 0.0727294 )  
( 0 0 0.180015 )  
( 0.000720306 0.000325838 0.240222 )  
( 0 0 0.155945 )  
( 0 0 -4.68793e-11 )  
( 0 0 4.6301e-11 )  
( 0 0 -0.162149 )  
( 0 0 -0.17155 )  
( 0 0 0.291776 )  
( 0 0 0.0528015 )  
( 0 0 0.104577 )  
( 0 0 -0.0266222 )  
( 0 0 -0.109122 )  
( -0.178289 0.182788 -0.0104932 )  
( 0 0 0.152319 )  
( 0 0 0.278911 )  
( 0 0 0.345231 )  
( 0 0 0.0115661 )  
( 0 0 1.19133e-08 )  
( 0 0 0.294499 )  
( 0 0 -0.0838817 )  
( 0 0 -0.0966264 )  
( 0 0 0.275795 )  
( 0 0 0.0002625 )  
( 0 0 0.00593293 )  
( 0 0 0.245421 )  
( 0 0 0.181791 )  
( -0.142738 -0.0775307 -1.48719e-11 )  
( 0 0 -0.132759 )  
( 0 0 -0.0554608 )  
( 0 0 -0.203894 )  
( 0 0 0.320698 )  
( 0 0 0.00961809 )  
( 0 0 0.0879379 )  
( 0 0 0.358259 )  
( 0 0 0.0681368 )  
( 0 0 -0.042618 )  
( 0 0 -0.227081 )  
( 0 0 0.0182056 )  
( 0 0 0.00822027 )  
( 0 0 -0.132091 )  
( 0 0 -0.00722627 )  
( 0 0 -0.177924 )  
( 0 0 -0.0163696 )  
( 0 0 0.298386 )  
( 0 0 0.0954391 )  
( 0.332448 0.1733 0.085139 )  
( 0 0 0.148118 )  
( 0 0 -0.0548609 )  
( 0 0 -0.159075 )  
( 0 0 -0.125448 )  
( 0 0 -2.35801e-13 )  
( 0 0 -0.207803 )  
( 0 0 -0.0824982 )  
( 0 0 0.0603985 )  
( 0 0 0.253892 )  
( -0.159359 0.0246603 -2.35801e-13 )  
( 0 0 0.0798005 )  
( 0 0 -0.144359 )  
( 0 0 -0.0808983 )  
( 0 0 -0.0566868 )  
( 0 0 0.0375987 )  
( -0.134639 -0.0842473 0.110871 )  
( 0 0 -0.0944187 )  
( 0 0 -0.248798 )  
( 0 0 -0.0657081 )  
( 0 0 0.233346 )  
( 0 0 0.273171 )  
( 0 0 0.158522 )  
( 0 0 0.0795235 )  
( 0 0 0.352517 )  
( 0 0 -0.203335 )  
( 0 0 0.00295613 )  
( 0 0 -0.00938653 )  
( 0 0 -0.210663 )  
( 0 0 -0.0463416 )  
( 0 0 -0.0878891 )  
( 0 0 0.21122 )  
( 0 0 0.105988 )  
( 0 0 0.330131 )  
( 0 0 -0.0408312 )  
( 0 0 0.0228376 )  
( 0 0 0.267268 )  
( 0 0 -4.05898e-13 )  
( 0 0 0.00556914 )  
( 0 0 -0.191654 )  
( 0 0 0.239685 )  
( 0 0 0.141451 )  
( 0 0 -0.0454405 )  
( 0 0 -0.161033 )  
( 0 0 0.136694 )  
( 0 0 -0.033866 )  
( 0 0 -0.0686743 )  
( 0.140917 -0.144473 0.277474 )  
( 0 0 0.180393 )  
( 0 0 -2.35801e-13 )  
( 0 0 0.0596976 )  
( 0 0 -0.104009 )  
( 0 0 -0.195264 )  
( 0 0 0.0956144 )  
( 0 0 0.325823 )  
( 0 0 -0.198631 )  
( 0 0 0.0193223 )  
( 0 0 0.109232 )  
( 0 0 -0.177196 )  
( 0 0 0.0468979 )  
( 0 0 -0.179822 )  
( 0 0 -0.208347 )  
( 0 0 0.0106919 )  
( 0 0 0.018891 )  
( 0 0 0.0630738 )  
( 0 0 0.343577 )  
( 0 0 -0.0631517 )  
( 0 0 -0.0555175 )  
( 0 0 -0.0925632 )  
( 0 0 0.0561351 )  
( 0 0 0.271496 )  
( 0 0 -0.0320773 )  
( 0.463762 -0.0717656 0.145341 )  
( 0 0 0.143334 )  
( 0 0 0.338169 )  
( 0 0 0.00163645 )  
( 0 0 9.57859e-07 )  
( 0 0 -4.0248e-10 )  
( 0 0 -2.25517e-07 )  
( 0 0 -0.178483 )  
( 0 0 0.0573705 )  
( 0 0 0.341919 )  
( 0 0 -0.005497 )  
( 0 0 -2.3556e-09 )  
( 0 0 0.0461116 )  
( 0.350229 0.174869 -0.0165241 )  
( 0 0 -0.0207669 )  
( 0 0 -0.137738 )  
( 0 0 -0.115385 )  
( 0 0 0.177186 )  
( 0 0 0.306161 )  
( 0 0 0.288694 )  
( 0 0 0.0167201 )  
( 0 0 -2.35801e-13 )  
( 0 0 0.118744 )  
( 0.190275 0.0212684 4.44587e-13 )  
( 0 0 0.0814673 )  
( 0 0 0.0272226 )  
( 0 0 -0.130482 )  
( 0 0 -0.206242 )  
( 0 0 0.301034 )  
( 0 0 0.0852831 )  
( 0 0 0.20636 )  
( 0 0 0.0569561 )  
( 0 0 -3.28638e-07 )  
( 0 0 -0.031729 )  
( 0.360617 0.225648 0.0467595 )  
( 0 0 0.230735 )  
( 0 0 -2.35801e-13 )  
( 0 0 0.20799 )  
( 0 0 -0.0536482 )  
( 0 0 0.0631003 )  
( 0 0 0.116814 )  
( 0 0 0.181674 )  
( 0 0 -0.0406284 )  
( 0 0 0.0319197 )  
( 0 0 4.25322e-11 )  
( 0 0 -0.18438 )  
( 0 0 0.0662975 )  
( 0 0 0.041978 )  
( 0 0 -0.0213614 )  
( 0 0 -0.00185481 )  
( 0 0 0.0165661 )  
( 0 0 0.292571 )  
( 0 0 -0.00070853 )  
( 0 0 -0.109017 )  
( 0 0 0.279558 )  
( 0 0 0.00248865 )  
( 0 0 -0.0360422 )  
( 0 0 -4.05898e-13 )  
( 0 0 0.000527435 )  
( 0 0 -0.13146 )  
( -0.420613 -0.047015 4.06267e-06 )  
( 0 0 -0.00338878 )  
( 0 0 0.0207478 )  
( 0 0 -0.113749 )  
( 0 0 -2.8878e-08 )  
( 0 0 0.261636 )  
( 0 0 0.327569 )  
( 0 0 -2.35801e-13 )  
( 0 0 -0.0946763 )  
( 0 0 0.353114 )  
( 0 0 0.0120772 )  
( 0 0 -6.57209e-14 )  
( 0 0 0.308481 )  
( 0 0 -0.00954512 )  
( 0 0 0.24212 )  
( 0 0 0.295472 )  
( -0.159481 -0.0831352 0.125246 )  
( 0 0 -0.0683115 )  
( 0 0 0.249276 )  
( 0 0 -0.0901126 )  
( 0 0 0.0446555 )  
( 0 0 4.41405e-08 )  
( 0 0 -0.0527727 )  
( 0 0 -0.17415 )  
( 0 0 0.132305 )  
( 0 0 -0.0495462 )  
( 0 0 -6.57036e-14 )  
( 0 0 -0.164416 )  
( 0 0 -0.00597989 )  
( 0 0 -0.00734132 )  
( 0 0 -0.105896 )  
( 0 0 -0.07149 )  
( 0 0 0.214599 )  
( 0 0 -0.204507 )  
( 0 0 0.299456 )  
( 0 0 -0.00586769 )  
( 0 0 0.249107 )  
( 0.267755 0.145436 4.44587e-13 )  
( 0 0 -2.35801e-13 )  
( 0 0 -0.05758 )  
( 0 0 -0.202731 )  
( 0 0 7.47256e-10 )  
( 0 0 0.319509 )  
( 0 0 0.0028639 )  
( 0 0 0.0561443 )  
( 0 0 8.2566e-06 )  
( 0 0 -0.0101204 )  
( -0.172158 -0.0859581 0.0050828 )  
( 0 0 -2.85009e-08 )  
( 0 0 -1.7924e-07 )  
( 0 0 -6.60771e-14 )  
( 0 0 0.0281005 )  
( 0 0 -2.35801e-13 )  
( 0 0 0.333438 )  
( 0 0 0.254917 )  
( 0 0 -0.00459712 )  
( 0 0 -0.2092 )  
( 0 0 -0.159691 )  
( 0 0 -0.0985825 )  
( 0 0 -0.128087 )  
( 0 0 0.136704 )  
( 0 0 -3.77492e-13 )  
( 0 0 0.120509 )  
( 0 0 0.202391 )  
( 0 0 0.0724835 )  
( 0 0 -0.134701 )  
( 0 0 -0.203734 )  
( 0 0 0.167355 )  
( 0 0 0.0697652 )  
( 0 0 -2.35801e-13 )  
( 0 0 -0.105987 )  
( 0 0 0.241891 )  
( 0 0 0.131185 )  
( 0 0 0.0561207 )  
( 0 0 0.0917671 )  
( 0 0 -0.0595454 )  
( 0 0 0.0191553 )  
( 0 0 0.000280661 )  
( 0 0 -0.172923 )  
( 0 0 0.188836 )  
( 0 0 -0.176967 )  
( 0 0 0.117004 )  
( 0 0 -0.196037 )  
( 0 0 0.260522 )  
( 0 0 -0.0992709 )  
( 0 0 0.198823 )  
( 0 0 0.0500611 )  
( 0 0 0.0572211 )  
( 0 0 0.227911 )  
( 0 0 0.0468626 )  
( 0 0 0.153681 )  
( 0 0 -0.0785361 )  
( 0 0 -6.57036e-14 )  
( 0 0 0.0826517 )  
( 0 0 0.0645495 )  
( 0 0 0.30655 )  
( 0 0 -0.0557698 )  
( 0 0 -0.12857 )  
( 0 0 0.0527514 )  
( -0.0166434 -0.254444 2.7449e-13 )  
( 0 0 -0.218344 )  
( 0 0 0.171884 )  
( -0.145874 0.0298479 0.188919 )  
( 0 0 0.0082927 )  
( 0 0 0.329623 )  
( 0 0 0.271167 )  
( 0 0 0.068824 )  
( 0 0 0.282253 )  
( 0 0 -0.122615 )  
( 0.200539 0.336191 0.194649 )  
( 0 0 0.320198 )  
( 0 0 0.106137 )  
( 0 0 0.175017 )  
( 0 0 -0.100219 )  
( 0 0 -0.190622 )  
( 0 0 -0.0220518 )  
( 0 0 0.0932665 )  
( 0 0 0.116779 )  
( 0 0 -0.160983 )  
( 0 0 -0.148743 )  
( 0 0 0.342509 )  
( 0 0 -0.156308 )  
( 0 0 -0.02697 )  
( 0 0 -0.070891 )  
( 0 0 -0.0198092 )  
( 0 0 -0.149709 )  
( 0 0 -4.05898e-13 )  
( 0 0 -0.0386464 )  
( 0 0 0.203503 )  
( 0 0 -0.086573 )  
( 0 0 -2.35829e-13 )  
( 0 0 -2.35802e-13 )  
( 0 0 -0.012659 )  
( 0 0 -4.05898e-13 )  
( 0 0 -0.146694 )  
( 0 0 -1.65071e-10 )  
( 0 0 -0.159127 )  
( 0 0 0.0625777 )  
( 0 0 0.1266 )  
( 0 0 -0.0539941 )  
( 0 0 0.152317 )  
( 0 0 0.0449262 )  
( 0 0 0.225274 )  
( 0.183809 -0.416431 0.0987855 )  
( 0 0 0.102704 )  
( 0 0 -4.05898e-13 )  
( 0 0 0.332078 )  
( 0 0 -0.135208 )  
( 0.0298774 0.130958 -0.0277939 )  
( 0 0 0.241184 )  
( 0 0 0.0293192 )  
( 0.0684971 0.309213 -6.57031e-14 )  
( 0 0 0.332533 )  
( 0 0 0.208284 )  
( 0 0 -0.102294 )  
( 0 0 0.0249624 )  
( 0 0 0.00580129 )  
( 0 0 -0.052661 )  
( 0 0 0.0368382 )  
( 0 0 0.277989 )  
( 0 0 -0.194853 )  
( 0 0 0.20816 )  
( 0 0 -0.171499 )  
( 0 0 0.276122 )  
( 0 0 0.0683224 )  
( 0 0 0.142012 )  
( 0 0 -0.192713 )  
( -9.86407e-06 -0.165785 4.44587e-13 )  
( 0 0 -6.57036e-14 )  
( 0 0 -0.0810638 )  
( 0 0 -0.174602 )  
( 0 0 -0.18062 )  
( 0 0 -0.154887 )  
( 0 0 0.296953 )  
( 0 0 -2.36425e-13 )  
( 0 0 0.115392 )  
( 0 0 0.159807 )  
( 0 0 -0.109494 )  
( 0 0 0.122883 )  
( 0 0 -0.044427 )  
( 0 0 0.283318 )  
( 0 0 0.130318 )  
( 0 0 -0.176883 )  
( 0 0 0.0261424 )  
( 0 0 0.0507238 )  
( 0 0 0.0151701 )  
( 0 0 0.19458 )  
( 0 0 0.0320603 )  
( 0 0 -0.160916 )  
( 0 0 -0.0836656 )  
( 0 0 0.213186 )  
( 0 0 -0.101107 )  
( 0 0 0.000581598 )  
( 0 0 -0.179535 )  
( 0 0 0.00311664 )  
( 0 0 -2.57449e-13 )  
( 0 0 0.335447 )  
( 0.110668 -0.220853 0.239849 )  
( 0 0 -2.35801e-13 )  
( 0 0 -4.05898e-13 )  
( 0 0 -0.00273026 )  
( 0 0 -0.160112 )  
( 0 0 -0.0353396 )  
( -0.049042 0.111108 -4.05908e-13 )  
( 0 0 -2.36668e-13 )  
( 0 0 -0.076379 )  
( 0 0 0.0981582 )  
( 0 0 -0.0419144 )  
( 0 0 -0.117977 )  
( 0 0 -0.0806766 )  
( 0 0 -0.0565072 )  
( 0 0 -0.179225 )  
( 0 0 0.0367692 )  
( 0 0 -0.0819616 )  
( 0 0 -0.0617557 )  
( 0 0 0.352544 )  
( 0 0 0.290871 )  
( -0.0979864 -0.164268 -0.000950453 )  
( 0 0 0.315752 )  
( 0 0 0.0526319 )  
( 0 0 -0.0646429 )  
( -0.0552722 -0.242268 -0.0145613 )  
( -0.00859139 -0.00723018 -2.35801e-13 )  
( 0 0 0.0545611 )  
( 0 0 0.0917104 )  
( 0 0 -0.16619 )  
( 0 0 -6.57062e-14 )  
( 0 0 -2.35801e-13 )  
( 0 0 -0.0840761 )  
( 0 0 0.00204198 )  
( 0 0 0.0643772 )  
( 0 0 -0.0362514 )  
( 0 0 1.03931e-05 )  
( 0 0 0.26811 )  
( 0 0 -0.209098 )  
( 0 0 -0.0327657 )  
( 0 0 0.0146298 )  
( 0 0 0.07067 )  
( 0.0557842 0.0469458 0.0801002 )  
( 0 0 -0.074208 )  
( 0 0 -0.00236299 )  
( 0 0 -0.0572314 )  
( 0 0 0.0623917 )  
( 0 0 0.169406 )  
( 0 0 0.0634996 )  
( 0 0 -0.00282293 )  
( 0 0 0.308284 )  
( 0 0 -0.00088581 )  
( 0 0 0.192825 )  
( 0 0 -0.150408 )  
( -0.0418733 -0.398956 0.0532208 )  
( 0 0 0.203587 )  
( 0 0 0.204109 )  
( 0 0 -0.0846704 )  
( 0 0 0.0167249 )  
( 0 0 -1.15202e-07 )  
( 0 0 0.204231 )  
( 0 0 0.0404198 )  
( 0 0 0.111278 )  
( 0 0 0.29391 )  
( 0.00270793 0.00278624 -0.0567678 )  
( 0 0 -6.57036e-14 )  
( 0 0 0.352238 )  
( 0 0 -0.00253984 )  
( 0 0 -0.0379474 )  
( 0 0 -0.0513877 )  
( 0 0 -5.05476e-13 )  
( 0 0 -4.05898e-13 )  
( 0.00898085 0.137299 -0.00270368 )  
( 0 0 0.0659377 )  
( 0 0 -0.112483 )  
( 0 0 0.168385 )  
( 0 0 0.0947322 )  
( 0 0 0.184569 )  
( 0 0 -0.0186734 )  
( 0 0 -0.148494 )  
( 0 0 -0.0248411 )  
( 0 0 3.09746e-10 )  
( 0 0 0.177059 )  
( 0 0 0.0123896 )  
( -0.302992 0.15434 0.241524 )  
( 0 0 -0.124575 )  
( -0.0255598 0.155056 -4.05897e-13 )  
( 0 0 -6.57036e-14 )  
( 0 0 0.000303417 )  
( -0.00104027 0.0939001 0.0102339 )  
( 0 0 -0.146384 )  
( 0 0 -0.151373 )  
( 0 0 -0.0974889 )  
( 0 0 0.0216052 )  
( 0 0 -0.0386127 )  
( 0 0 0.0731125 )  
( 0 0 -0.0695471 )  
( 0 0 -0.157082 )  
( -0.181083 -0.23814 0.052772 )  
( 0 0 -4.05898e-13 )  
( 0 0 -0.171061 )  
( 0 0 0.336704 )  
( 0 0 -0.127901 )  
( 0 0 0.0738078 )  
( 0 0 0.348908 )  
( 0 0 -0.140981 )  
( 0 0 -3.40211e-10 )  
( 0.00112555 0.0011581 0.0755447 )  
( 0 0 0.151399 )  
( 0 0 -4.21781e-10 )  
( 0 0 -0.190011 )  
( 0 0 0.33499 )  
( 0 0 0.238338 )  
( 0 0 0.0804164 )  
( 0 0 -0.067066 )  
( 0 0 0.108358 )  
( 0 0 0.220201 )  
( 0 0 0.00259224 )  
( 0 0 0.241812 )  
( 0 0 -0.042269 )  
( 0 0 -0.000869812 )  
( 0 0 -0.0150304 )  
( 0 0 0.2373 )  
( 0 0 0.326525 )  
( 0.0212957 -0.0269459 -0.0466122 )  
( 0.315557 -0.0645674 0.121136 )  
( 0 0 0.0102755 )  
( 0 0 0.191817 )  
( 0 0 0.231443 )  
( 0 0 0.271579 )  
( 0 0 -0.0678584 )  
( 0 0 -2.35801e-13 )  
( 0 0 -0.201692 )  
( 0 0 -0.0637943 )  
( 0 0 -0.0932661 )  
( 0 0 0.0256503 )  
( 0.0243283 -0.00179572 -6.57036e-14 )  
( 0 0 0.0198703 )  
( 0 0 0.161141 )  
( 0.0597663 -0.0871415 0.242073 )  
( 0 0 0.300496 )  
( 0 0 -0.199951 )  
( 0.21084 -0.125249 0.0865009 )  
( 0 0 0.242882 )  
( 0 0 -0.0486169 )  
( 0 0 -0.127326 )  
( 0 0 0.291491 )  
( 0 0 0.00835719 )  
( 0 0 0.0724204 )  
( 0 0 -2.35801e-13 )  
( 0 0 0.0990377 )  
( 0 0 0.187458 )  
( 0 0 0.226198 )  
( 0 0 0.112343 )  
( 0 0 0.00440065 )  
( 0 0 0.0370311 )  
( 0 0 -0.0314998 )  
( 0 0 0.219969 )  
( 0 0 0.154591 )  
( 0 0 0.0062233 )  
( 0 0 0.222378 )  
( 0 0 0.327834 )  
( 0 0 0.035804 )  
( -0.15479 0.00903489 0.155963 )  
( 0 0 0.170363 )  
( 0 0 -0.116589 )  
( 0 0 -0.11162 )  
( 0 0 0.0363147 )  
( 0 0 0.150853 )  
( 0 0 -0.0996911 )  
( 0 0 -0.071462 )  
( 0 0 0.164167 )  
( 0 0 -0.168408 )  
( 0 0 -0.0771366 )  
( 0 0 0.240627 )  
( 0 0 -0.154127 )  
( 0 0 0.0621628 )  
( 0 0 -0.196731 )  
( 0 0 0.209048 )  
( 0 0 -0.0955573 )  
( 0.0103113 0.0128263 0.0813353 )  
( 0.21039 0.31966 -0.00342192 )  
( 0 0 0.136318 )  
( 0 0 -2.35801e-13 )  
( 0 0 0.209942 )  
( 0 0 -2.86769e-11 )  
( 0 0 0.113194 )  
( 0 0 -0.0140278 )  
( 0 0 0.15286 )  
( 0 0 0.210409 )  
( 0 0 0.241149 )  
( 0 0 0.156814 )  
( 0 0 -0.106933 )  
( 0 0 -0.136736 )  
( 0 0 1.07062e-09 )  
( 0 0 0.026897 )  
( 0 0 -0.0522323 )  
( -0.124185 0.0357188 -2.358e-13 )  
( 0 0 -0.0335886 )  
( 0 0 -0.0592658 )  
( 0 0 -0.0628478 )  
( 0 0 -0.177179 )  
( 0 0 0.0752509 )  
( 0 0 -0.162983 )  
( 0 0 0.144427 )  
( 0 0 0.242716 )  
( 0 0 -0.0170161 )  
( 0 0 0.311041 )  
( 0 0 0.243951 )  
( 0.119476 -0.133624 1.04393e-13 )  
( 0 0 -0.0553695 )  
( 0 0 0.285273 )  
( 0 0 -0.0776836 )  
( 0 0 0.116152 )  
( 0 0 -0.141652 )  
( 0 0 0.158669 )  
( 0 0 -0.10278 )  
( 0 0 0.0143783 )  
( 0 0 -0.224196 )  
( -0.0371168 -0.224914 0.0399421 )  
( 0 0 -0.00193299 )  
( 0 0 -0.0502485 )  
( 0 0 -0.0923735 )  
( 0 0 -2.35801e-13 )  
( 0 0 -2.35801e-13 )  
( 0 0 0.263756 )  
( 0 0 -3.65045e-11 )  
( 0 0 -0.185587 )  
( 0 0 0.0269442 )  
( 0 0 0.243211 )  
( 0 0 -0.000259091 )  
( 0 0 0.245396 )  
( 0 0 -0.0385553 )  
( 0 0 -2.35801e-13 )  
( 0 0 -0.00995421 )  
( 0 0 -0.0960757 )  
( 0 0 -0.120356 )  
( 0 0 -0.0781992 )  
( 0 0 -0.146856 )  
( 0 0 -2.35801e-13 )  
( -0.106078 0.047959 -0.00731115 )  
( 0 0 -0.0176907 )  
( 0 0 0.0778539 )  
( 0 0 -3.1945e-13 )  
( 0 0 0.320467 )  
( 0 0 -0.0247891 )  
( 0 0 -0.0844103 )  
( 0 0 0.149548 )  
( -0.0329021 -0.105966 0.235856 )  
( 0 0 0.022274 )  
( 0 0 0.104205 )  
( -0.0106887 -0.00445249 0.0371749 )  
( 0 0 0.139543 )  
( 0.0946948 -0.0175016 0.0940718 )  
( 0 0 -0.18386 )  
( 0 0 0.0796873 )  
( 0 0 -0.0109138 )  
( 0 0 0.169385 )  
( 0 0 -0.0811572 )  
( -0.0832924 -0.126552 0.0883799 )  
( 0 0 0.247479 )  
( 0 0 0.0647265 )  
( -0.026219 0.00653063 -4.05897e-13 )  
( 0 0 0.0742432 )  
( 0.318604 0.132718 -0.0355673 )  
( 0 0 -1.4558e-08 )  
( 0 0 -0.00679377 )  
( 0 0 -0.125674 )  
( 0 0 -4.05898e-13 )  
( 0 0 0.201974 )  
( 0 0 -2.35826e-13 )  
( 0 0 0.0708579 )  
( 0 0 -0.0103208 )  
( 0 0 0.164605 )  
( 0 0 -0.107337 )  
( 0 0 0.163956 )  
( 0 0 -0.00555661 )  
( 0 0 0.27983 )  
( 0 0 0.00350302 )  
( 0 0 0.156173 )  
( -0.157524 -0.391847 0.0182065 )  
( 0 0 -0.0311263 )  
( 0.00913414 0.000984057 -0.0758034 )  
( 0 0 -1.89634e-06 )  
( 0 0 -0.020009 )  
( 0 0 0.00990884 )  
( 0 0 0.110481 )  
( 0 0 -0.113106 )  
( 0 0 0.0984371 )  
( 0 0 0.337095 )  
( 0 0 0.0830373 )  
( 0 0 0.332448 )  
( 0.0799547 0.0218295 1.04393e-13 )  
( 0 0 -0.0811935 )  
( 0 0 0.315963 )  
( 0 0 0.289365 )  
( 0 0 0.00470361 )  
( -0.229828 0.0169641 0.319381 )  
( 0 0 -2.35801e-13 )  
( 0 0 -0.101617 )  
( 0.0867817 -0.00506534 0.100586 )  
( 0 0 0.0551839 )  
( 0 0 -8.51275e-10 )  
( 0 0 0.0559037 )  
( 0 0 -0.06562 )  
( 0 0 2.83308e-06 )  
( 0 0 -0.0691454 )  
( 0 0 0.212116 )  
( 0 0 8.32611e-09 )  
( 0 0 0.232416 )  
( 0 0 -0.135276 )  
( 0 0 -0.0394404 )  
( 0 0 0.322257 )  
( 0 0 -0.103655 )  
( 0 0 -0.156465 )  
( 0 0 -0.109629 )  
( -0.0456559 0.0510624 -2.35801e-13 )  
( 0 0 -0.019598 )  
( 0 0 0.0150549 )  
( 0 0 0.257219 )  
( 0 0 0.227135 )  
( 0 0 0.172909 )  
( 0 0 0.0438041 )  
( 0 0 -0.185415 )  
( 0 0 0.100414 )  
( 0 0 0.00774286 )  
( 0 0 -2.35812e-13 )  
( 0 0 0.237599 )  
( 0.0187698 -0.147611 -2.35801e-13 )  
( 0 0 -0.130706 )  
( 0 0 0.292182 )  
( 0 0 0.288319 )  
( 0 0 -2.38286e-13 )  
( 0.221191 0.0512622 0.231369 )  
( 0 0 0.106429 )  
( 0 0 0.00407551 )  
( 0 0 0.0206564 )  
( 0 0 -2.4606e-07 )  
( 0 0 0.138314 )  
( 0 0 -0.0944727 )  
( 0 0 -0.0211872 )  
( -0.130128 -0.185978 -2.35801e-13 )  
( 0 0 0.0766759 )  
( 0 0 -0.101319 )  
( 0 0 0.213897 )  
( 0 0 0.142912 )  
( 0 0 -0.199372 )  
( 0 0 0.0734865 )  
( 0 0 -0.0546367 )  
( 0 0 -0.121031 )  
( 0 0 -0.144233 )  
( 0 0 0.0707863 )  
( 0 0 0.00825359 )  
( 0 0 0.203216 )  
( 0 0 0.0698612 )  
( 0.0948684 -0.111327 6.88809e-09 )  
( 0 0 -0.0542468 )  
( 0 0 -0.0125754 )  
( 0 0 -1.12302e-13 )  
( 0 0 0.358963 )  
( 0 0 0.304998 )  
( 0 0 0.0628831 )  
( -0.0589775 -0.298555 0.00951954 )  
( 0 0 0.023256 )  
( -0.115873 -0.0172536 1.04393e-13 )  
( 0 0 -0.071358 )  
( 0 0 0.0576872 )  
( 0.103911 0.024257 -5.75994e-13 )  
( 0 0 0.280229 )  
( 0 0 0.273718 )  
( 0.346363 0.0515738 2.29476e-05 )  
( 0 0 0.213709 )  
( 0 0 -0.168045 )  
( 0 0 -0.203159 )  
( 0 0 0.102961 )  
( 0 0 -0.090975 )  
( -0.00167431 -0.0311029 0.00707432 )  
( 0 0 -0.213042 )  
( 0 0 -0.00529211 )  
)
