/*--------------------------------*- C++ -*----------------------------------*\
| =========                 |                                                 |
| \\      /  F ield         | OpenFOAM: The Open Source CFD Toolbox           |
|  \\    /   O peration     | Version:  2506                                  |
|   \\  /    A nd           | Website:  www.openfoam.com                      |
|    \\/     M anipulation  |                                                 |
\*---------------------------------------------------------------------------*/
FoamFile
{
    version     2.0;
    format      ascii;
    arch        "LSB;label=32;scalar=64";
    class       volScalarField;
    location    "0.07";
    object      Ksl;
}
// * * * * * * * * * * * * * * * * * * * * * * * * * * * * * * * * * * * * * //

dimensions      [1 -3 -1 0 0 0 0];

internalField   nonuniform List<scalar> 
1152
(
56574.8
107074
99453.9
122790
139724
71119.8
199146
133098
101400
124369
132164
72701.4
193954
96224.3
67080.4
60647.5
209077
331090
188179
269236
212683
268857
309833
173162
168256
207972
199400
263385
237472
595667
1.53345e+07
223773
115057
331422
194843
1.49852e+06
441997
180744
249651
168385
285263
299127
207589
341353
149392
151364
125490
229707
410364
167506
623589
258210
425711
409079
152908
189600
154161
257212
259001
360175
3.18192e+07
304220
209950
517847
166093
268272
167438
230923
209822
319839
288333
211433
385063
150316
431195
187520
125205
5.33742e+06
112389
191835
1.03024e+06
147879
309681
120613
119587
501786
173026
828798
354901
150687
221135
315749
119809
327086
220138
154402
54137.2
39957
102289
38152.8
53738.6
121135
61240.9
143045
102870
42497.2
109460
54828.3
360644
65494.8
21350.9
36994
0
0
0
0
0
0
0
0
0
0
0
0
604.355
0
0
0
0
0
0
0
0
0
0
0
0
0
0
0
0
0
0
0
0
0
0
0
0
0
0
0
0
0
0
0
0
0
0
0
0
0
0
0
0
0
0
0
0
0
0
0
0
0
0
0
0
0
0
0
0
0
0
0
0
0
0
0
0
0
0
0
0
0
0
0
0
0
0
0
0
0
0
0
0
0
0
0
0
0
0
0
0
0
0
0
0
0
0
0
0
0
0
0
0
0
0
0
0
0
0
0
0
0
0
0
0
0
0
0
0
0
0
0
0
0
0
0
0
0
0
0
0
0
0
0
0
0
0
0
0
0
0
0
0
0
0
0
0
0
0
0
0
0
0
0
0
0
0
0
0
0
0
0
0
0
0
0
0
0
0
0
0
0
0
0
0
0
0
0
0
0
0
0
0
0
0
0
0
0
0
0
0
0
0
0
0
0
0
0
0
0
0
0
0
0
0
0
0
0
0
0
0
0
0
0
0
0
0
0
0
0
0
0
0
0
0
0
0
0
0
0
0
0
0
0
0
0
0
0
0
0
0
0
0
0
0
0
0
0
0
0
0
0
0
0
0
0
0
0
0
0
0
0
73979.5
161357
181338
109481
135548
96495.8
65962.8
104304
124442
205991
87632.8
76488.4
85411.4
110694
98287.2
347679
272202
164530
235063
124649
279411
162817
219705
303809
157771
218917
160795
207220
196018
266057
349337
193955
225081
204027
210422
237696
283684
291200
191286
132459
272355
252448
208766
384582
1.94471e+07
178126
348480
119059
810445
209938
330202
118633
963040
181791
185059
733292
156016
200370
277557
239735
270947
478972
199489
343583
274803
157692
189683
214308
200360
282783
277174
238706
164316
762043
144542
293575
313099
154909
600376
136407
6.87909e+06
136073
298960
161089
124436
200246
175068
161728
312339
156516
280873
206711
201973
416222
162981
695357
128958
110382
84952.2
52230.8
37378.1
42877.6
130097
141586
35009.8
48097.9
46994.7
35330.4
30032.2
50260.6
48599.3
63625
0
0
0
0
0
0
0
0
0
0
0
0
0
0
0
0
0
0
0
0
0
0
0
0
0
0
0
0
0
0
0
0
0
0
0
0
0
0
0
0
0
0
0
0
0
0
0
0
0
0
0
0
0
0
0
0
0
0
0
0
0
0
0
0
0
0
0
0
0
0
0
0
0
0
0
0
0
0
0
0
0
0
0
0
0
0
0
0
0
0
0
0
0
0
0
0
0
0
0
0
0
0
0
0
0
0
0
0
0
0
0
0
0
0
0
0
0
0
0
0
0
0
0
0
0
0
0
0
0
0
0
0
0
0
0
0
0
0
0
0
0
0
0
0
0
0
0
0
0
0
0
0
0
0
0
0
0
0
0
0
0
0
0
0
0
0
0
0
0
0
0
0
0
0
0
0
0
0
0
0
0
0
0
0
0
0
0
0
0
0
0
0
0
0
0
0
0
0
0
0
0
0
0
0
0
0
0
0
0
0
0
0
0
0
0
0
0
0
0
0
0
0
0
0
0
0
0
0
0
0
0
0
0
0
0
0
0
0
0
0
0
0
0
0
0
0
0
0
0
0
0
0
0
0
0
0
0
0
0
0
0
0
0
0
0
0
0
0
0
0
0
0
75160.3
96128.5
131922
70750
92239.6
176640
733952
143731
174068
135178
89274
126749
392192
146639
91633.1
98906.3
1.08229e+06
170832
259861
255843
293975
274893
151776
107825
287488
109226
225293
169846
167835
1.15739e+06
167623
613014
121706
198284
646352
189849
196562
247449
211502
218628
209590
751059
142720
362510
189080
204994
283399
118529
437167
194064
479245
154211
376959
418728
149447
283221
229483
183166
9.53519e+06
157747
216039
266022
2.02077e+06
1.67954e+07
295241
146171
483743
470884
204913
195487
217586
159776
237104
275283
121058
407567
270666
191546
162648
105372
768681
167933
3.27162e+06
97226.1
164942
372513
104127
527663
173232
272392
197703
182335
271400
174417
375160
370412
49672.6
67073.1
77654.1
54618.2
52347.8
97596.7
50641
18673.3
85448.9
37817.3
20446.7
52456.8
65888.7
46640.8
20191.4
19092.7
0
0
0
0
0
0
0
0
0
0
0
0
0
0
0
0
0
0
0
0
0
0
0
0
0
0
0
0
0
0
0
0
0
0
0
0
0
0
0
0
0
0
0
0
0
0
0
0
0
0
0
0
0
0
0
0
0
0
0
0
0
0
0
0
0
0
0
0
0
0
0
0
0
0
0
0
0
0
0
0
0
0
0
0
0
0
0
0
0
0
0
0
0
0
0
0
0
0
0
0
0
0
0
0
0
0
0
0
0
0
0
0
0
0
0
0
0
0
0
0
0
0
0
0
0
0
0
0
0
0
0
0
0
0
0
0
0
0
0
0
0
0
0
0
0
0
0
0
0
0
0
0
0
0
0
0
0
0
0
0
0
0
0
0
0
0
0
0
0
0
0
0
0
0
0
0
0
0
0
0
0
0
0
0
0
0
0
0
0
0
0
0
0
0
0
0
0
0
0
0
0
0
0
0
0
0
0
0
0
0
0
0
0
0
0
0
0
0
0
0
0
0
0
0
0
0
0
0
0
0
0
0
0
0
0
0
0
0
0
0
0
0
0
0
0
0
0
0
0
0
0
0
0
0
0
0
0
0
0
0
0
0
0
0
0
0
0
0
0
0
0
0
)
;

boundaryField
{
    inlet
    {
        type            zeroGradient;
    }
    outlet
    {
        type            zeroGradient;
    }
    wall
    {
        type            zeroGradient;
    }
    procBoundary1to0
    {
        type            processor;
        value           nonuniform List<scalar> 
192
(
389549
151749
127729
125695
539705
215787
685984
245620
1.41693e+07
201226
129816
512353
167560
157855
1.71206e+07
129593
204560
709434
110913
7.61784e+06
209041
118853
163264
345074
76031.2
308301
40412.1
66115.2
0
0
0
0
0
0
0
0
0
0
0
0
0
0
0
0
0
0
0
0
0
0
0
0
0
0
0
0
0
0
0
0
0
0
0
0
0
0
0
0
0
0
0
0
0
0
0
0
0
0
0
0
0
0
0
0
0
0
0
0
0
0
0
0
0
0
0
0
345335
155268
84830.9
666110
137750
144346
345787
129147
210614
179415
378867
170452
136289
228013
173370
291563
153906
209673
604012
150949
122258
235617
128822
163549
62695.4
83205
33321.6
54576.6
0
0
0
0
0
0
0
0
0
0
0
0
0
0
0
0
0
0
0
0
0
0
0
0
0
0
0
0
0
0
0
0
0
0
0
0
0
0
0
0
0
0
0
0
0
0
0
0
0
0
0
0
0
0
0
0
0
0
0
0
0
0
0
0
0
0
0
0
)
;
    }
    procBoundary1to3
    {
        type            processor;
        value           nonuniform List<scalar> 
192
(
52492.5
170280
136211
1.24887e+06
114997
271994
131494
167666
954722
271192
676476
169439
858399
296919
151260
242631
7.7987e+06
102390
7.25427e+06
491548
127058
260922
162117
181286
315100
97541.5
149437
64705.6
0
0
0
0
0
0
0
0
0
0
0
0
0
0
0
0
0
0
0
0
0
0
0
0
0
0
0
0
0
0
0
0
0
0
0
0
0
0
0
0
0
0
0
0
0
0
0
0
0
0
0
0
0
0
0
0
0
0
0
0
0
0
0
0
0
0
0
0
85923.6
61789.9
201405
153388
275627
335270
120352
141621
275771
766302
222709
182596
185353
196104
141571
168671
177330
301778
381476
248024
151976
174227
106752
175620
56117.1
54260.6
54007.1
84024.5
0
0
0
0
0
0
0
0
0
0
0
0
0
0
0
0
0
0
0
0
0
0
0
0
0
0
0
0
0
0
0
0
0
0
0
0
0
0
0
0
0
0
0
0
0
0
0
0
0
0
0
0
0
0
0
0
0
0
0
0
0
0
0
0
0
0
0
0
)
;
    }
}


// ************************************************************************* //
