/*--------------------------------*- C++ -*----------------------------------*\
| =========                 |                                                 |
| \\      /  F ield         | OpenFOAM: The Open Source CFD Toolbox           |
|  \\    /   O peration     | Version:  2506                                  |
|   \\  /    A nd           | Website:  www.openfoam.com                      |
|    \\/     M anipulation  |                                                 |
\*---------------------------------------------------------------------------*/
FoamFile
{
    version     2.0;
    format      ascii;
    arch        "LSB;label=32;scalar=64";
    class       volScalarField;
    location    "0.07";
    object      p;
}
// * * * * * * * * * * * * * * * * * * * * * * * * * * * * * * * * * * * * * //

dimensions      [0 2 -2 0 0 0 0];

internalField   nonuniform List<scalar> 
1152
(
17.4609
17.5996
17.6288
17.6588
17.5307
17.5279
17.7212
17.5624
17.3688
17.4448
17.4066
17.3881
17.2273
17.291
17.1392
17.2668
15.33
15.4789
15.3949
15.382
15.1214
15.346
15.078
15.1003
14.7881
14.9854
14.8317
15.3606
14.255
14.8079
14.8566
15.1393
12.089
11.8588
12.1131
12.0064
11.7072
11.7959
11.6704
11.8591
10.4119
11.404
11.8145
11.9146
8.6754
10.9805
11.9959
11.9476
9.34768
8.7784
8.57042
8.44855
8.55226
8.77854
8.62943
8.61068
8.30429
8.22145
8.57992
8.30087
7.49395
8.21152
8.33232
8.28961
5.36025
5.19081
5.05854
4.84509
5.20262
5.3176
5.33028
5.26527
6.61962
5.40091
5.19473
5.01381
8.02489
5.95243
5.1993
4.80724
1.62529
1.60433
1.77587
1.63788
1.99726
1.78111
1.73133
1.78757
2.23988
1.88115
1.73765
1.59304
3.0271
2.03317
1.56931
1.53404
1.0276
1.02547
1.01072
1.02075
1.04198
1.01499
1.01923
1.00199
1.03069
1.0383
1.01029
1.01041
1.00829
1.02765
1.03067
1.01612
1.00768
1.00666
1.00407
1.00187
1.00982
1.00747
1.00509
1.00174
1.00954
1.00856
1.00497
1.00175
1.00853
1.00697
1.00584
1.00185
1.01193
1.011
1.00936
1.00827
1.01193
1.01059
1.00936
1.00756
1.01144
1.0113
1.00913
1.00775
1.00984
1.0106
1.00978
1.00803
1.00773
1.00719
1.00637
1.00559
1.00758
1.00702
1.00626
1.00537
1.00726
1.00704
1.0061
1.00531
1.00668
1.00663
1.0061
1.00529
1.00705
1.00671
1.00624
1.00578
1.00688
1.00657
1.0061
1.00561
1.00667
1.00646
1.00595
1.00548
1.00637
1.0062
1.00583
1.00539
1.00612
1.00589
1.0056
1.0053
1.00598
1.00578
1.00549
1.00519
1.00584
1.00565
1.00537
1.00508
1.00564
1.00549
1.00525
1.00498
1.00542
1.00527
1.00509
1.00491
1.00532
1.00518
1.005
1.00481
1.00521
1.00507
1.0049
1.00472
1.00508
1.00496
1.0048
1.00464
1.00483
1.00473
1.00461
1.00449
1.00476
1.00465
1.00454
1.00442
1.00467
1.00457
1.00446
1.00435
1.00458
1.00449
1.00438
1.00428
1.0043
1.00423
1.00415
1.00407
1.00424
1.00417
1.00409
1.00401
1.00418
1.00411
1.00403
1.00396
1.00411
1.00404
1.00397
1.0039
1.0038
1.00375
1.0037
1.00364
1.00375
1.00371
1.00365
1.0036
1.00371
1.00366
1.00361
1.00356
1.00366
1.00361
1.00356
1.00352
1.00332
1.00329
1.00325
1.00321
1.00329
1.00326
1.00322
1.00318
1.00325
1.00322
1.00319
1.00315
1.00322
1.00318
1.00315
1.00312
1.00286
1.00284
1.00281
1.00278
1.00284
1.00281
1.00279
1.00276
1.00281
1.00279
1.00276
1.00274
1.00278
1.00276
1.00274
1.00271
1.00241
1.00239
1.00237
1.00236
1.00239
1.00237
1.00236
1.00234
1.00237
1.00236
1.00234
1.00232
1.00235
1.00234
1.00232
1.0023
1.00197
1.00195
1.00194
1.00193
1.00195
1.00194
1.00193
1.00191
1.00194
1.00193
1.00191
1.0019
1.00192
1.00191
1.0019
1.00189
1.00152
1.00152
1.00151
1.0015
1.00152
1.00151
1.0015
1.00149
1.00151
1.0015
1.00149
1.00148
1.0015
1.00149
1.00148
1.00147
1.00109
1.00108
1.00108
1.00107
1.00108
1.00108
1.00107
1.00106
1.00108
1.00107
1.00106
1.00106
1.00107
1.00106
1.00106
1.00105
1.00065
1.00065
1.00065
1.00064
1.00065
1.00065
1.00064
1.00064
1.00065
1.00064
1.00064
1.00064
1.00064
1.00064
1.00063
1.00063
1.00022
1.00022
1.00022
1.00021
1.00022
1.00022
1.00021
1.00021
1.00021
1.00021
1.00021
1.00021
1.00021
1.00021
1.00021
1.00021
17.6486
17.7101
17.6755
17.3933
17.7155
17.6178
17.5227
17.4973
17.5956
17.7533
17.5472
17.5015
17.4706
17.6451
17.6346
17.6371
15.7976
15.3436
15.3215
15.2371
15.4666
15.4831
15.6279
15.2194
15.2624
15.295
15.5255
15.4338
14.869
15.2761
15.5156
15.1282
12.381
12.2216
12.1621
12.0086
12.222
12.1509
12.1267
12.0867
11.5474
11.9812
12.2119
12.1061
12.0378
12.0869
12.0216
12.0636
8.748
8.42037
8.66079
8.8259
8.40948
8.58917
8.73071
9.00803
8.71982
8.74479
8.57893
8.73476
9.86131
8.80146
8.69292
8.75334
4.87206
4.91167
5.16184
5.3715
4.6243
4.99135
5.13441
5.02074
5.21764
5.02537
5.07551
5.00519
5.21214
5.12674
5.02403
5.0167
1.52255
2.08745
2.02448
1.82286
1.61972
1.65988
1.98362
1.87877
1.45973
1.53141
1.70048
1.60177
1.3877
1.54588
1.57286
1.6617
0.993245
1.02491
1.01477
1.01631
1.01962
1.02567
1.00945
1.00385
1.01905
1.01956
1.02024
1.0167
1.02238
1.01969
1.01776
1.01303
1.00214
1.00481
1.00162
0.999874
1.00453
1.00467
1.00194
0.999838
1.00546
1.00467
1.00288
1.00088
1.00675
1.00527
1.00354
1.00125
1.01008
1.01019
1.00895
1.00789
1.01097
1.01041
1.0088
1.00755
1.0113
1.01043
1.00926
1.00803
1.01155
1.01059
1.00938
1.00823
1.00687
1.00679
1.00613
1.00522
1.00731
1.00696
1.00617
1.00526
1.00757
1.00705
1.00628
1.0054
1.00767
1.0071
1.00635
1.00554
1.00699
1.00673
1.0063
1.0058
1.00702
1.00672
1.00625
1.00577
1.00708
1.00674
1.00628
1.00582
1.00709
1.00675
1.0063
1.00588
1.00622
1.00598
1.00565
1.00528
1.00623
1.00598
1.00564
1.0053
1.00622
1.00597
1.00565
1.00532
1.00618
1.00595
1.00565
1.00535
1.00557
1.0054
1.00517
1.00494
1.00556
1.00539
1.00515
1.00494
1.00553
1.00536
1.00515
1.00494
1.00549
1.00533
1.00514
1.00495
1.00497
1.00485
1.00468
1.00452
1.00495
1.00483
1.00467
1.00452
1.00492
1.00481
1.00466
1.00453
1.00489
1.00478
1.00465
1.00453
1.00441
1.00432
1.00421
1.0041
1.00439
1.00431
1.0042
1.0041
1.00437
1.00429
1.00419
1.0041
1.00434
1.00427
1.00418
1.0041
1.00388
1.00382
1.00375
1.00367
1.00387
1.00381
1.00374
1.00367
1.00386
1.0038
1.00373
1.00367
1.00383
1.00378
1.00372
1.00367
1.00339
1.00334
1.00329
1.00324
1.00338
1.00334
1.00329
1.00323
1.00337
1.00333
1.00328
1.00323
1.00335
1.00331
1.00327
1.00323
1.00291
1.00288
1.00284
1.0028
1.0029
1.00287
1.00284
1.0028
1.00289
1.00286
1.00283
1.0028
1.00288
1.00285
1.00283
1.0028
1.00245
1.00242
1.0024
1.00237
1.00244
1.00242
1.00239
1.00237
1.00243
1.00241
1.00239
1.00237
1.00242
1.0024
1.00238
1.00237
1.00199
1.00197
1.00196
1.00194
1.00199
1.00197
1.00195
1.00194
1.00198
1.00197
1.00195
1.00193
1.00198
1.00196
1.00195
1.00193
1.00154
1.00153
1.00152
1.00151
1.00154
1.00153
1.00152
1.0015
1.00154
1.00153
1.00152
1.0015
1.00153
1.00152
1.00151
1.0015
1.0011
1.00109
1.00108
1.00107
1.0011
1.00109
1.00108
1.00107
1.0011
1.00109
1.00108
1.00107
1.00109
1.00109
1.00108
1.00107
1.00066
1.00065
1.00065
1.00064
1.00066
1.00065
1.00065
1.00064
1.00066
1.00065
1.00065
1.00064
1.00065
1.00065
1.00065
1.00064
1.00022
1.00022
1.00022
1.00022
1.00022
1.00022
1.00022
1.00021
1.00022
1.00022
1.00022
1.00021
1.00022
1.00022
1.00022
1.00021
17.5744
17.5255
17.4652
17.3355
17.5719
17.5976
17.5045
17.1713
17.5627
17.2896
17.2218
17.2152
17.5476
17.5133
17.2082
17.1943
15.2062
15.3101
15.3744
15.4067
15.1644
15.013
14.8516
14.9395
14.9325
14.9656
14.8734
14.876
14.7403
14.7887
14.8303
14.1403
11.9958
12.03
12.0562
11.8529
11.9195
11.9452
11.8224
12.2426
11.7448
11.9106
11.0285
10.9083
11.6495
11.2435
10.8684
9.53453
8.91679
8.59013
8.641
8.73002
8.59909
8.39832
8.37076
8.35637
8.44349
8.37224
7.98881
8.06729
8.40818
8.18224
7.84028
8.32089
5.01319
5.02207
5.01512
4.70004
4.95944
5.0408
5.03077
5.13288
5.01634
5.33013
5.6224
5.71957
5.02843
5.10713
5.6478
6.56474
1.46943
1.73204
1.47389
1.61169
1.6803
1.70988
1.6251
1.26908
1.68937
1.37628
1.42312
1.48025
1.55375
1.52482
1.27003
1.50966
1.01061
1.00783
1.00456
1.00765
1.00885
0.996871
1.00464
1.00068
1.00131
1.00166
1.00397
0.99339
1.00366
1.00562
1.00549
1.00722
0.999632
0.998528
0.997633
0.996967
0.998887
0.996648
0.995113
0.994595
0.998267
0.9954
0.993571
0.991166
0.998464
0.995903
0.994456
0.993776
1.00714
1.00652
1.00608
1.00603
1.00637
1.00538
1.00489
1.00451
1.00608
1.00495
1.00434
1.00343
1.00621
1.00511
1.00454
1.00456
1.0049
1.00458
1.00434
1.00415
1.00463
1.00412
1.00379
1.00353
1.00447
1.00386
1.00346
1.00302
1.00445
1.00386
1.00352
1.00332
1.00547
1.00531
1.00519
1.00515
1.00521
1.00493
1.00473
1.00464
1.00503
1.00466
1.00441
1.00425
1.00493
1.00457
1.00432
1.00423
1.00509
1.00501
1.00494
1.00489
1.00495
1.00479
1.00467
1.0046
1.00482
1.00461
1.00446
1.00436
1.00473
1.00451
1.00436
1.00428
1.00479
1.00474
1.0047
1.00468
1.00467
1.00458
1.00451
1.00447
1.00456
1.00444
1.00435
1.0043
1.00448
1.00435
1.00426
1.00421
1.00441
1.00439
1.00437
1.00435
1.00433
1.00428
1.00424
1.00421
1.00425
1.00418
1.00412
1.00409
1.00418
1.0041
1.00404
1.00401
1.00402
1.004
1.00399
1.00398
1.00396
1.00392
1.0039
1.00388
1.0039
1.00385
1.00382
1.0038
1.00384
1.00379
1.00375
1.00373
1.00361
1.0036
1.00359
1.00359
1.00356
1.00354
1.00353
1.00352
1.00352
1.00349
1.00347
1.00345
1.00347
1.00344
1.00342
1.0034
1.00319
1.00319
1.00318
1.00318
1.00316
1.00314
1.00313
1.00313
1.00312
1.0031
1.00309
1.00308
1.00309
1.00307
1.00305
1.00304
1.00277
1.00277
1.00276
1.00276
1.00274
1.00273
1.00273
1.00272
1.00272
1.0027
1.0027
1.00269
1.00269
1.00268
1.00267
1.00266
1.00234
1.00234
1.00234
1.00234
1.00233
1.00232
1.00232
1.00231
1.00231
1.0023
1.00229
1.00229
1.00229
1.00228
1.00227
1.00227
1.00192
1.00192
1.00192
1.00192
1.00191
1.0019
1.0019
1.0019
1.00189
1.00189
1.00188
1.00188
1.00188
1.00187
1.00187
1.00186
1.00149
1.00149
1.00149
1.00149
1.00148
1.00148
1.00148
1.00148
1.00147
1.00147
1.00147
1.00146
1.00146
1.00146
1.00146
1.00145
1.00107
1.00107
1.00107
1.00107
1.00106
1.00106
1.00106
1.00106
1.00105
1.00105
1.00105
1.00105
1.00105
1.00104
1.00104
1.00104
1.00064
1.00064
1.00064
1.00064
1.00064
1.00064
1.00063
1.00063
1.00063
1.00063
1.00063
1.00063
1.00063
1.00063
1.00063
1.00063
1.00021
1.00021
1.00021
1.00021
1.00021
1.00021
1.00021
1.00021
1.00021
1.00021
1.00021
1.00021
1.00021
1.00021
1.00021
1.00021
)
;

boundaryField
{
    inlet
    {
        type            zeroGradient;
    }
    outlet
    {
        type            fixedValue;
        value           uniform 1;
    }
    wall
    {
        type            zeroGradient;
    }
    procBoundary1to0
    {
        type            processor;
        value           nonuniform List<scalar> 
192
(
17.8349
17.7178
17.5257
17.4141
14.9543
14.7394
14.4369
14.7043
10.8371
10.9052
9.80492
10.6347
9.5343
9.02766
8.3617
8.19386
5.53553
5.8528
7.17333
7.49542
1.98872
2.2681
2.29289
2.20451
1.02648
1.017
1.06057
1.02464
1.00814
1.00994
1.01078
1.00571
1.01225
1.0118
1.01308
1.01183
1.00804
1.00783
1.00796
1.00741
1.00729
1.00714
1.00704
1.00669
1.0063
1.00617
1.00605
1.00581
1.00555
1.00545
1.00534
1.00519
1.00492
1.00484
1.00475
1.00465
1.00436
1.0043
1.00423
1.00416
1.00384
1.0038
1.00375
1.0037
1.00335
1.00332
1.00328
1.00325
1.00288
1.00286
1.00283
1.00281
1.00243
1.00241
1.00239
1.00237
1.00198
1.00196
1.00195
1.00194
1.00153
1.00152
1.00152
1.0015
1.00109
1.00109
1.00108
1.00107
1.00065
1.00065
1.00065
1.00064
1.00022
1.00022
1.00022
1.00021
17.8125
17.6726
17.6237
17.6704
15.0146
15.0989
15.37
14.915
11.9089
12.1171
11.8245
12.1694
8.53206
8.72509
8.79197
9.04246
5.16288
5.14078
5.04417
5.14331
2.10574
1.85724
1.54119
1.78064
1.0227
1.01335
1.02634
1.02628
1.00509
1.00528
1.00648
1.00693
1.01204
1.01142
1.01211
1.01208
1.00766
1.00769
1.00801
1.00801
1.00735
1.00731
1.00736
1.00734
1.00644
1.00643
1.00641
1.00637
1.00572
1.0057
1.00567
1.00562
1.00507
1.00506
1.00503
1.00498
1.00448
1.00447
1.00444
1.00441
1.00394
1.00393
1.00391
1.00388
1.00342
1.00342
1.0034
1.00338
1.00294
1.00293
1.00292
1.0029
1.00246
1.00246
1.00245
1.00244
1.002
1.002
1.002
1.00199
1.00155
1.00155
1.00155
1.00154
1.0011
1.0011
1.0011
1.0011
1.00066
1.00066
1.00066
1.00066
1.00022
1.00022
1.00022
1.00022
)
;
    }
    procBoundary1to3
    {
        type            processor;
        value           nonuniform List<scalar> 
192
(
16.9181
17.2401
17.2876
17.4958
14.6016
14.8056
14.9548
14.8664
12.2365
11.581
11.8395
11.8672
8.4464
7.67811
7.89234
8.41405
5.03083
5.21728
5.22167
4.802
2.64135
2.51187
2.18408
1.63395
1.01046
1.01887
1.01533
1.00973
1.00457
1.00505
1.00346
1.001
1.0096
1.00999
1.00855
1.00754
1.00637
1.00626
1.00558
1.00499
1.00615
1.00597
1.00558
1.00522
1.00548
1.00532
1.0051
1.00486
1.00495
1.00483
1.00469
1.00454
1.00448
1.0044
1.0043
1.00421
1.00403
1.00398
1.00391
1.00385
1.0036
1.00356
1.00352
1.00347
1.00318
1.00315
1.00312
1.00309
1.00276
1.00273
1.00271
1.00269
1.00233
1.00232
1.0023
1.00229
1.00191
1.0019
1.00189
1.00188
1.00149
1.00148
1.00147
1.00146
1.00106
1.00106
1.00105
1.00105
1.00064
1.00063
1.00063
1.00063
1.00021
1.00021
1.00021
1.00021
17.4355
17.3502
17.2711
17.1705
15.2843
15.5439
14.7588
14.5298
11.5624
11.2555
11.4889
11.1703
8.24051
8.20215
8.34978
8.44837
4.85545
4.92766
5.06114
5.67469
1.68456
1.6205
1.68835
1.83367
1.00927
1.00746
1.00916
0.999811
0.99863
0.996632
0.994936
0.993387
1.00625
1.00523
1.00462
1.00377
1.00432
1.00376
1.0034
1.00292
1.00481
1.00447
1.00422
1.00407
1.00462
1.00442
1.00427
1.00417
1.00439
1.00427
1.00418
1.00413
1.00411
1.00403
1.00397
1.00394
1.00379
1.00373
1.0037
1.00368
1.00343
1.0034
1.00337
1.00336
1.00306
1.00304
1.00302
1.00301
1.00267
1.00265
1.00264
1.00264
1.00227
1.00226
1.00225
1.00225
1.00187
1.00186
1.00185
1.00185
1.00146
1.00145
1.00145
1.00144
1.00104
1.00104
1.00104
1.00103
1.00063
1.00062
1.00062
1.00062
1.00021
1.00021
1.00021
1.00021
)
;
    }
}


// ************************************************************************* //
