/*--------------------------------*- C++ -*----------------------------------*\
| =========                 |                                                 |
| \\      /  F ield         | OpenFOAM: The Open Source CFD Toolbox           |
|  \\    /   O peration     | Version:  2506                                  |
|   \\  /    A nd           | Website:  www.openfoam.com                      |
|    \\/     M anipulation  |                                                 |
\*---------------------------------------------------------------------------*/
FoamFile
{
    version     2.0;
    format      ascii;
    arch        "LSB;label=32;scalar=64";
    class       surfaceScalarField;
    location    "0.07";
    object      phi;
}
// * * * * * * * * * * * * * * * * * * * * * * * * * * * * * * * * * * * * * //

dimensions      [0 3 -1 0 0 0 0];

oriented        oriented;

internalField   nonuniform List<scalar> 
3120
(
-8.7e-09
-4.89727e-09
7.85575e-08
-4.75806e-10
-1.10757e-09
4.41942e-09
3.3188e-08
-1.86847e-09
-6.89258e-10
-1.53094e-09
4.38208e-08
-6.64994e-10
4.61101e-09
3.08044e-08
-3.60134e-10
7.01238e-09
5.36407e-10
6.60745e-09
3.45668e-08
-6.92559e-09
4.29389e-09
5.09437e-08
4.29987e-09
8.8306e-09
2.14331e-08
1.11704e-08
3.89913e-08
1.50562e-09
-2.11904e-09
5.34617e-09
5.32818e-08
5.84234e-10
6.45329e-09
3.75479e-08
2.6986e-10
1.64493e-08
3.54341e-08
1.05546e-08
5.04383e-08
-6.69785e-09
-2.1065e-09
3.09496e-08
9.48984e-09
3.52908e-08
-1.0546e-08
8.68257e-08
6.89701e-08
-1.36149e-08
-4.57077e-09
5.56921e-09
6.31355e-08
8.59891e-09
6.98186e-11
2.95352e-09
2.35041e-08
2.08982e-09
8.09906e-10
7.99107e-09
3.95263e-08
-4.43654e-09
6.26631e-09
1.83467e-08
4.15319e-09
2.84811e-09
-4.18452e-09
8.50635e-09
2.83821e-08
3.69067e-09
7.70387e-09
3.83182e-08
5.55472e-10
5.86481e-09
2.66946e-08
-3.64909e-09
4.88621e-08
6.00124e-10
-5.70084e-09
1.15112e-08
4.98029e-08
1.9391e-09
3.04591e-09
3.45659e-08
-9.51664e-09
1.58827e-08
3.6872e-08
5.26624e-09
2.4947e-08
7.05941e-09
-7.69975e-09
6.69963e-08
-1.2057e-08
4.34592e-08
-2.20032e-08
1.11275e-07
3.50964e-08
9.39484e-09
4.29251e-09
8.89307e-09
4.7785e-08
-3.05696e-08
-4.00856e-09
1.07228e-09
3.54049e-08
-4.67199e-09
-8.75407e-10
8.52803e-09
2.80735e-08
-2.08408e-10
2.86938e-09
1.99221e-08
-5.30966e-09
-1.05168e-11
-1.03499e-09
1.1354e-08
1.54298e-08
2.33802e-09
6.55312e-09
2.94644e-08
-3.9271e-09
-1.25366e-09
4.27414e-08
-5.08393e-10
4.88995e-08
-5.86752e-10
-1.19632e-08
2.94808e-08
2.9563e-08
-6.74911e-09
8.98442e-09
2.69205e-08
-1.60347e-09
-4.73763e-09
3.52103e-08
-3.61014e-10
2.0649e-08
2.54722e-09
-6.17868e-08
2.34322e-07
-3.49417e-08
3.8337e-08
7.26444e-10
6.7102e-08
2.68645e-08
6.72483e-09
8.85315e-09
5.21852e-09
4.09015e-08
-4.25882e-09
2.2497e-09
-5.88048e-10
4.29572e-08
-3.60826e-10
-1.08119e-10
-1.18943e-10
3.2941e-08
-2.39077e-09
-2.36357e-09
3.30429e-08
-4.55535e-09
-6.30991e-09
-2.25699e-09
4.04425e-09
2.67269e-08
1.70244e-09
5.48952e-09
1.94274e-08
3.54683e-10
1.63691e-09
4.23333e-08
5.17086e-09
4.15893e-08
1.30475e-10
8.5145e-10
-2.90428e-09
2.49109e-08
-5.18935e-09
2.29302e-10
3.82215e-08
2.93327e-09
4.63658e-09
2.40881e-08
2.20208e-10
3.06376e-08
-2.10467e-09
-1.10569e-08
2.42911e-07
-1.81313e-09
2.37174e-08
4.86303e-10
5.83988e-08
3.02109e-08
-1.63146e-09
3.20156e-09
3.16418e-09
3.51626e-08
3.13662e-09
1.79747e-09
-1.4722e-09
4.44813e-08
1.35219e-09
3.32701e-09
-4.65507e-09
3.63003e-08
-2.3367e-10
-7.09528e-09
5.28589e-08
-6.08655e-09
-3.30717e-09
-1.82376e-09
-1.957e-08
5.81993e-08
-5.81211e-10
-1.36665e-09
1.80793e-08
5.8554e-10
1.00733e-09
3.55042e-08
4.77691e-09
2.44612e-08
5.84153e-09
2.24071e-08
-3.19492e-08
2.90368e-08
2.91149e-09
-5.46302e-09
6.18135e-08
1.90436e-09
2.38582e-11
2.60787e-08
4.31027e-09
3.32937e-08
-2.85128e-10
4.13509e-08
1.0955e-07
1.73825e-08
2.49112e-08
1.12678e-08
6.60398e-08
4.93721e-08
-3.84125e-09
4.97917e-10
-8.64743e-09
4.56491e-08
2.84009e-09
-3.51246e-09
-3.32801e-09
5.02298e-08
1.58997e-09
3.30813e-09
5.0547e-10
2.44805e-08
4.49373e-09
-3.86994e-09
5.68132e-08
-2.08293e-10
3.43201e-09
4.76379e-09
-6.45915e-09
6.22869e-08
4.31444e-10
-2.21498e-09
2.12986e-08
-6.61919e-10
-3.06599e-10
3.74097e-08
1.011e-09
1.73359e-08
1.58243e-09
6.78065e-09
-1.91528e-08
3.54255e-08
3.25913e-09
-3.41486e-09
6.6535e-08
1.91615e-09
2.61321e-09
2.45019e-08
1.06549e-09
3.66308e-08
-1.4754e-09
2.36554e-08
3.49463e-08
7.06119e-09
4.41647e-08
7.83984e-10
8.83152e-08
5.40413e-08
-5.29975e-10
1.21271e-09
-2.22349e-09
4.67696e-08
3.43987e-10
2.27456e-09
2.0432e-09
4.53277e-08
1.79718e-09
-2.15387e-09
-1.30906e-09
3.0099e-08
1.19017e-10
1.20684e-09
4.88763e-08
3.17242e-09
1.40361e-09
2.81678e-09
1.63518e-09
5.26872e-08
-2.0185e-10
-3.31941e-09
2.96804e-08
1.8396e-09
5.90733e-10
3.34687e-08
-1.27339e-09
2.27188e-08
-1.06325e-09
-1.23553e-09
1.29998e-09
4.04125e-08
4.2692e-09
1.6069e-09
5.61047e-08
7.7728e-10
-2.57556e-09
3.11605e-08
-7.71211e-10
3.38971e-08
3.00894e-09
-1.13215e-09
3.8234e-08
-2.01566e-09
4.58353e-08
3.71493e-09
7.32581e-08
5.15052e-08
3.60665e-09
-2.85391e-10
-1.76964e-09
4.78032e-08
5.49189e-10
1.26121e-09
-3.55049e-10
4.19151e-08
2.22122e-09
-1.21218e-09
-2.21155e-09
3.33824e-08
1.40159e-09
-1.05968e-09
4.41831e-08
4.15509e-09
3.85181e-10
1.91603e-09
-9.61361e-10
5.02463e-08
-3.84882e-10
-2.25926e-09
3.38858e-08
-4.91165e-11
-2.38176e-09
3.33032e-08
-2.14732e-09
2.5897e-08
-2.14092e-09
1.15552e-09
-3.09749e-09
4.42996e-08
2.0458e-09
1.08128e-09
5.18737e-08
-4.11765e-10
-4.44128e-09
3.56775e-08
-1.57163e-09
3.42465e-08
-1.33683e-09
9.1933e-10
2.69897e-08
-3.48645e-09
4.91808e-08
2.22339e-09
5.93507e-08
4.91406e-08
1.11954e-09
2.72328e-09
1.09158e-09
4.45527e-08
-5.8093e-10
3.01318e-09
7.81089e-11
4.21622e-08
-6.15045e-10
-1.37584e-09
1.4256e-10
3.89749e-08
-1.34578e-09
3.37476e-09
4.13349e-08
-1.0075e-09
-8.9533e-10
3.64067e-09
1.82252e-09
4.48657e-08
2.53492e-09
-5.0946e-09
4.01642e-08
5.36427e-10
-3.14758e-09
3.85917e-08
-3.06061e-09
3.64582e-08
-3.59011e-09
2.45575e-09
3.38846e-09
4.42649e-08
4.61203e-09
-1.48539e-09
4.61078e-08
1.79953e-09
-5.57547e-09
4.09176e-08
-4.91802e-09
3.9475e-08
-1.57175e-09
-4.08574e-09
3.92654e-08
-2.5866e-09
4.58539e-08
1.6183e-09
4.83959e-08
4.52324e-08
9.98853e-10
1.62948e-09
2.98468e-10
4.34291e-08
-3.29048e-10
1.89775e-09
-3.79871e-10
4.24176e-08
-1.43597e-10
2.94551e-10
-7.08297e-10
4.11197e-08
1.67093e-10
-2.28374e-10
4.15365e-08
6.9059e-10
-3.69368e-10
1.58376e-09
4.63128e-10
4.33331e-08
1.407e-09
-2.11818e-09
4.20796e-08
2.90815e-10
-1.98703e-09
4.09867e-08
-2.07296e-09
4.03792e-08
-1.78596e-09
1.04847e-09
1.29208e-09
4.36436e-08
1.63506e-09
-6.0106e-10
4.40042e-08
4.46636e-10
-2.17477e-09
4.22937e-08
-2.34678e-09
4.15921e-08
-1.39672e-09
-1.69864e-09
4.21962e-08
-1.19844e-09
4.41561e-08
-1.25935e-10
4.4461e-08
4.36836e-08
-8.72206e-10
7.1893e-10
2.13766e-10
4.31821e-08
-2.21182e-10
6.33914e-10
-7.68163e-11
4.27596e-08
-1.799e-10
-2.19182e-10
-1.76373e-10
4.21815e-08
-3.19922e-11
8.66035e-11
4.21475e-08
-1.42432e-10
-7.74319e-10
5.74064e-10
1.55357e-10
4.31296e-08
5.1722e-10
-6.89894e-10
4.27498e-08
-1.65644e-10
-7.33761e-10
4.22271e-08
-6.66626e-10
4.20179e-08
-1.05142e-09
3.63652e-10
4.71318e-10
4.33594e-08
4.56613e-10
-1.99478e-10
4.34208e-08
-5.36666e-11
-7.31143e-10
4.28015e-08
-8.35129e-10
4.25276e-08
-8.20608e-10
-5.92742e-10
4.29364e-08
-4.51319e-10
4.35328e-08
-3.8542e-10
4.34897e-08
4.33016e-08
-7.99766e-10
4.10284e-10
9.86917e-11
4.31013e-08
-1.13255e-10
3.90743e-10
-5.87054e-11
4.29018e-08
-6.38668e-11
4.85174e-11
-1.92987e-10
4.26173e-08
9.98111e-11
-2.21874e-10
4.25055e-08
1.54719e-10
-2.42162e-10
2.88719e-10
4.39701e-11
4.31143e-08
2.65723e-10
-2.49936e-10
4.29641e-08
-5.53238e-11
-3.64794e-10
4.272e-08
-4.01027e-10
4.25982e-08
-4.56512e-10
1.40877e-10
1.89807e-10
4.32327e-08
1.7369e-10
-7.75988e-11
4.32155e-08
-8.38056e-11
-2.88211e-10
4.29824e-08
-3.80428e-10
4.28572e-08
-4.34071e-10
-2.1347e-10
4.31015e-08
-1.80742e-10
4.32825e-08
-2.79587e-10
4.32223e-08
4.31616e-08
-5.23902e-10
2.04454e-10
5.79585e-11
4.30896e-08
-5.99996e-11
1.71548e-10
-1.33569e-11
4.29871e-08
-3.89118e-11
-2.7147e-12
-8.17798e-11
4.28267e-08
4.70422e-11
-1.01221e-10
4.27068e-08
5.85163e-11
-1.61262e-10
1.37571e-10
3.20287e-11
4.31348e-08
1.04782e-10
-7.79309e-11
4.30615e-08
-5.4325e-11
-1.39725e-10
4.29372e-08
-1.64112e-10
4.28441e-08
-2.37447e-10
5.68327e-11
9.66269e-11
4.31924e-08
4.86987e-11
-2.36936e-11
4.31692e-08
-7.55167e-11
-1.00638e-10
4.30674e-08
-1.45263e-10
4.299e-08
-2.27292e-10
-6.73591e-11
4.31591e-08
-8.78081e-11
4.32077e-08
-1.64988e-10
4.31652e-08
4.31216e-08
-2.85147e-10
1.06113e-10
3.09494e-11
4.30926e-08
-3.08977e-11
8.47099e-11
9.26124e-14
4.303e-08
-2.13746e-11
3.35646e-12
-3.97457e-11
4.29224e-08
2.56577e-11
-5.84846e-11
4.28007e-08
4.06507e-11
-7.27058e-11
7.06764e-11
2.34121e-11
4.31514e-08
4.5638e-11
-2.00525e-11
4.31067e-08
-2.9894e-11
-5.52422e-11
4.30282e-08
-7.25546e-11
4.29396e-08
-1.11567e-10
3.09362e-11
4.57094e-11
4.31895e-08
1.40677e-11
-1.24603e-12
4.31672e-08
-4.57789e-11
-3.70212e-11
4.31089e-08
-5.64503e-11
4.30393e-08
-1.11494e-10
-2.08006e-11
4.31862e-08
-3.72542e-11
4.31902e-08
-8.4362e-11
4.31575e-08
4.31086e-08
-1.4195e-10
5.69193e-11
1.83513e-11
4.30985e-08
-1.7493e-11
4.30792e-11
3.22736e-12
4.30526e-08
-1.18461e-11
4.0135e-12
-1.76005e-11
4.2967e-08
1.2173e-11
-2.95251e-11
4.28454e-08
2.21246e-11
-3.33367e-11
3.88569e-11
1.62418e-11
4.31622e-08
2.1787e-11
-2.2408e-12
4.31293e-08
-1.46953e-11
-2.08444e-11
4.30678e-08
-3.09905e-11
4.29782e-08
-5.21949e-11
1.95499e-11
2.22206e-11
4.31955e-08
5.46753e-12
3.84797e-12
4.31752e-08
-2.40002e-11
-1.27083e-11
4.31301e-08
-2.18381e-11
4.30594e-08
-5.35755e-11
-1.65436e-12
4.3202e-08
-1.52666e-11
4.31931e-08
-4.07515e-11
4.31614e-08
4.31047e-08
-6.90241e-11
3.25604e-11
1.08286e-11
4.31033e-08
-1.02085e-11
2.38258e-11
3.19129e-12
4.3065e-08
-6.76458e-12
4.77201e-12
-7.17351e-12
4.29886e-08
4.70001e-12
-1.41926e-11
4.28664e-08
1.15894e-11
-1.37999e-11
2.31039e-11
1.0103e-11
4.31693e-08
1.26676e-11
1.27428e-12
4.31417e-08
-5.39141e-12
-7.64242e-12
4.30862e-08
-1.28648e-11
4.29947e-08
-2.3604e-11
1.3857e-11
1.10211e-11
4.32022e-08
4.24804e-12
3.08943e-12
4.31832e-08
-1.07946e-11
-4.18896e-12
4.31417e-08
-8.38228e-12
4.30686e-08
-2.46892e-11
4.79334e-12
4.32127e-08
-4.51985e-12
4.31997e-08
-1.82088e-11
4.3167e-08
4.31047e-08
-3.21856e-11
1.9857e-11
6.19812e-12
4.31068e-08
-5.93986e-12
1.4552e-11
2.39903e-12
4.3072e-08
-4.02133e-12
4.79712e-12
-2.48377e-12
4.29995e-08
1.43472e-12
-6.49877e-12
4.28769e-08
5.51247e-12
-4.88689e-12
1.50099e-11
5.75398e-12
4.3174e-08
8.73562e-12
1.55966e-12
4.31488e-08
-4.54018e-13
-2.73645e-12
4.30954e-08
-5.4748e-12
4.30024e-08
-9.50316e-12
1.0508e-11
5.33054e-12
4.32076e-08
4.49264e-12
1.79138e-12
4.31893e-08
-3.46891e-12
-1.44933e-12
4.31484e-08
-3.34766e-12
4.30734e-08
-1.05464e-11
6.51571e-12
4.32199e-08
6.89489e-13
4.32056e-08
-6.74453e-12
4.31717e-08
4.3106e-08
-1.38824e-11
1.28795e-11
3.41086e-12
4.31092e-08
-3.36728e-12
9.69055e-12
1.58832e-12
4.30761e-08
-2.40767e-12
4.59329e-12
-8.091e-13
4.30052e-08
1.53219e-13
-2.66338e-12
4.28823e-08
2.36227e-12
-7.05097e-13
1.04543e-11
2.99186e-12
4.31772e-08
6.7577e-12
1.00426e-12
4.31531e-08
1.80275e-12
-1.01557e-12
4.31003e-08
-2.39537e-12
4.30064e-08
-2.82029e-12
8.26219e-12
2.28858e-12
4.32114e-08
4.58815e-12
8.0542e-13
4.31933e-08
2.372e-13
-6.97913e-13
4.31525e-08
-1.51449e-12
4.30762e-08
-3.59683e-12
6.43335e-12
4.32246e-08
2.96623e-12
4.32099e-08
-1.19626e-12
4.31751e-08
4.31076e-08
-5.1507e-12
8.73976e-12
1.77714e-12
4.31108e-08
-1.8358e-12
6.83263e-12
9.52146e-13
4.30786e-08
-1.42685e-12
4.04007e-12
-1.33745e-13
4.30085e-08
-2.8828e-13
-1.01843e-12
4.28853e-08
7.98712e-13
1.07955e-12
7.5576e-12
1.38853e-12
4.31793e-08
5.39587e-12
4.51123e-13
4.31557e-08
2.66069e-12
-4.67475e-13
4.31031e-08
-1.08702e-12
4.30088e-08
1.05531e-13
6.48941e-12
8.43396e-13
4.32139e-08
4.32369e-12
9.76681e-14
4.3196e-08
1.81909e-12
-4.97269e-13
4.31551e-08
-8.32387e-13
4.30781e-08
-3.87514e-13
5.75707e-12
4.32278e-08
3.63425e-12
4.32129e-08
1.1945e-12
4.31776e-08
4.3109e-08
-1.14131e-12
6.05394e-12
8.62493e-13
4.3112e-08
-9.52203e-13
4.90779e-12
5.3898e-13
4.30802e-08
-8.44451e-13
3.32255e-12
1.05725e-13
4.30104e-08
-4.01361e-13
-3.29748e-13
4.28872e-08
1.08423e-13
1.65072e-12
5.51002e-12
5.38015e-13
4.31807e-08
4.23426e-12
1.41076e-13
4.31574e-08
2.68494e-12
-2.46889e-13
4.31049e-08
-4.89898e-13
4.30102e-08
1.18122e-12
5.02688e-12
1.10634e-13
4.32156e-08
3.73082e-12
-1.52809e-13
4.31978e-08
2.26615e-12
-3.8766e-13
4.31568e-08
-5.03125e-13
4.30794e-08
9.12155e-13
4.71173e-12
4.32298e-08
3.42819e-12
4.32148e-08
1.96074e-12
4.31792e-08
4.31102e-08
5.42896e-13
4.17571e-12
4.16973e-13
4.31127e-08
-4.95327e-13
3.48303e-12
3.3072e-13
4.30812e-08
-5.29708e-13
2.57651e-12
1.89045e-13
4.30115e-08
-4.0588e-13
1.01143e-14
4.28883e-08
-2.09946e-13
1.63807e-12
3.94834e-12
2.08942e-13
4.31816e-08
3.18484e-12
6.46917e-14
4.31584e-08
2.30349e-12
-9.04389e-14
4.3106e-08
-1.7018e-13
4.30112e-08
1.42352e-12
3.73693e-12
-4.52615e-14
4.32167e-08
2.95528e-12
-1.56304e-13
4.3199e-08
2.09838e-12
-2.46078e-13
4.31579e-08
-2.78674e-13
4.30803e-08
1.26909e-12
3.59111e-12
4.3231e-08
2.81897e-12
4.3216e-08
1.95581e-12
4.31803e-08
4.3111e-08
1.097e-12
2.85363e-12
2.63149e-13
4.31131e-08
-3.03718e-13
2.44207e-12
2.60417e-13
4.30818e-08
-3.79126e-13
1.93286e-12
2.35501e-13
4.30123e-08
-3.84892e-13
1.8684e-13
4.28891e-08
-3.46951e-13
1.42232e-12
2.77616e-12
1.50158e-13
4.31821e-08
2.32433e-12
1.04681e-13
4.31591e-08
1.833e-12
5.71654e-14
4.31068e-08
5.1551e-14
4.3012e-08
1.33051e-12
2.69101e-12
-2.04384e-15
4.32173e-08
2.21897e-12
-5.50596e-14
4.31997e-08
1.73617e-12
-8.43456e-14
4.31586e-08
-8.25482e-14
4.3081e-08
1.24085e-12
2.61333e-12
4.32316e-08
2.16136e-12
4.32167e-08
1.6681e-12
4.31811e-08
4.31117e-08
1.14815e-12
2.06209e-12
2.33856e-13
4.31134e-08
-2.44157e-13
1.82163e-12
2.67177e-13
4.30822e-08
-3.23493e-13
1.53014e-12
2.92764e-13
4.30128e-08
-3.79138e-13
3.12902e-13
4.28897e-08
-4.13884e-13
1.24125e-12
2.05376e-12
1.92041e-13
4.31824e-08
1.78808e-12
2.04522e-13
4.31595e-08
1.50877e-12
2.02075e-13
4.31073e-08
2.17211e-13
4.30125e-08
1.21439e-12
2.02913e-12
8.23782e-14
4.32176e-08
1.75511e-12
7.82043e-14
4.32001e-08
1.47649e-12
8.00292e-14
4.31591e-08
9.77905e-14
4.30815e-08
1.15854e-12
1.99398e-12
4.3232e-08
1.7375e-12
4.32171e-08
1.44879e-12
4.31815e-08
4.31122e-08
1.11349e-12
1.93484e-12
3.52227e-13
-3.30821e-13
1.77348e-12
4.18841e-13
-4.28045e-13
1.54871e-12
4.84389e-13
-5.19186e-13
5.60416e-13
-5.81988e-13
1.24774e-12
1.96895e-12
3.50555e-13
1.7951e-12
3.88405e-13
1.57953e-12
4.27855e-13
4.79412e-13
1.32152e-12
1.99092e-12
2.9636e-13
1.81124e-12
3.12471e-13
1.58642e-12
3.35018e-13
3.65798e-13
1.30976e-12
1.99786e-12
1.82123e-12
1.58625e-12
1.29755e-12
-1.9653e-09
-5.1629e-09
7.53962e-08
7.07425e-10
4.98919e-09
5.15675e-08
5.50568e-09
1.43194e-08
3.31013e-08
-9.3741e-09
5.43211e-08
2.48022e-09
3.45835e-09
5.84375e-09
4.17384e-08
5.72152e-09
-6.68912e-09
6.25115e-08
1.75172e-09
-2.14267e-09
6.7092e-08
-1.22266e-09
2.90635e-08
1.2437e-09
-3.30927e-09
6.79413e-09
5.40872e-08
6.49648e-09
3.35833e-09
2.84704e-08
1.63039e-09
-5.95189e-09
4.94028e-08
-9.34615e-09
4.12265e-08
-5.33921e-11
-7.14786e-09
6.48345e-08
9.18475e-10
3.55006e-08
-6.25281e-11
2.93363e-08
1.37033e-08
2.37128e-09
5.66781e-09
1.04843e-08
4.79903e-08
1.47321e-09
-5.31462e-09
6.09327e-08
1.72156e-09
-1.10467e-08
4.28047e-08
-8.11783e-10
5.64805e-08
-7.23385e-10
-2.09349e-09
8.85093e-09
3.48976e-08
-1.73423e-09
7.23544e-09
4.96022e-08
4.42187e-09
2.98837e-09
4.69009e-08
-6.72191e-09
3.93186e-08
7.69834e-11
-2.34912e-09
1.23576e-08
5.17562e-08
-4.05522e-09
1.5211e-09
3.58909e-08
2.54932e-09
1.66237e-09
4.41242e-08
1.22887e-08
2.23213e-08
2.44393e-09
-8.82004e-09
9.47458e-08
-3.04112e-09
3.33326e-08
5.92993e-09
1.75911e-08
3.54552e-08
6.19881e-10
1.60597e-09
4.55488e-09
3.46926e-08
9.42672e-10
2.58317e-09
5.95268e-08
2.21409e-09
2.465e-09
3.99663e-08
-4.33065e-09
6.02949e-08
1.89625e-09
-4.29081e-10
1.24039e-08
2.41923e-08
2.34467e-10
4.1369e-09
4.7385e-08
1.33587e-09
-7.57113e-10
4.90216e-08
9.28664e-10
3.45031e-08
8.92036e-10
-4.62218e-09
2.6104e-08
4.49441e-08
-2.62267e-09
-1.05182e-09
3.90801e-08
1.50139e-09
5.41182e-09
3.38312e-08
5.00571e-09
1.83895e-08
1.35613e-09
3.27511e-09
8.51632e-08
1.35056e-09
2.95334e-08
-4.21299e-10
2.45663e-08
3.25336e-08
2.1964e-09
2.28526e-09
1.6552e-09
2.83032e-08
-1.93392e-09
-4.91939e-09
6.84714e-08
-2.23535e-09
-1.15911e-09
4.1443e-08
-5.29234e-09
6.35751e-08
1.48371e-09
-2.15447e-09
-5.12622e-09
3.57746e-08
-2.62582e-09
-3.70906e-09
4.6646e-08
-1.85912e-09
5.34331e-09
4.17525e-08
6.55475e-09
1.97598e-08
1.03704e-09
-1.18158e-09
-2.72209e-08
6.94767e-08
1.53406e-09
-2.60517e-11
3.26815e-08
-1.66905e-09
-1.5012e-09
4.38789e-08
2.67735e-10
2.14595e-08
1.54802e-09
8.60683e-09
3.61888e-08
1.18364e-09
3.65697e-08
-3.12314e-10
2.21703e-08
2.88536e-08
-9.2e-10
-1.39951e-09
7.08637e-09
2.7194e-08
-4.59423e-09
-2.28811e-09
7.26396e-08
-2.6153e-09
1.24989e-09
3.83299e-08
1.21039e-08
4.62483e-08
3.05337e-09
-4.47205e-09
-1.64711e-08
7.02771e-08
-1.21727e-09
6.62265e-10
4.04408e-08
9.22491e-10
3.27809e-09
3.75845e-08
1.09653e-09
3.16198e-08
6.99205e-11
9.94998e-10
-1.16286e-09
5.07885e-08
-1.44194e-09
-1.47589e-09
3.72566e-08
7.84539e-10
2.99363e-09
4.19369e-08
7.91551e-10
2.28286e-08
-2.79633e-10
5.13152e-10
3.63648e-08
3.57093e-10
3.66021e-08
-3.94341e-10
2.56817e-08
2.34229e-08
-2.58605e-10
-1.05997e-08
6.27143e-09
3.36459e-08
2.98712e-10
1.85684e-08
4.31246e-08
2.20746e-09
1.89662e-09
3.48487e-08
-2.17049e-09
4.72439e-08
3.49551e-09
-4.5706e-10
6.02232e-09
7.63653e-08
-4.8466e-09
4.51122e-09
5.88876e-08
1.66564e-09
8.43242e-09
2.45365e-08
1.22295e-08
1.74039e-08
1.48154e-09
-1.04609e-09
1.23604e-09
5.91555e-08
-2.43795e-09
-7.04544e-10
4.38642e-08
1.49805e-09
3.19294e-09
4.32403e-08
-1.053e-09
3.91898e-08
-1.58065e-09
-1.48204e-09
5.1611e-08
-7.03504e-10
3.6709e-08
-1.41316e-09
3.4078e-08
2.03737e-08
3.74698e-10
-9.79068e-10
-1.07653e-08
4.77874e-08
-1.78713e-10
-1.27561e-09
4.35692e-08
-1.24595e-09
3.87811e-10
3.56068e-08
1.8576e-09
4.39874e-08
-3.21499e-10
-1.82834e-09
-2.52132e-09
6.94638e-08
-3.35437e-10
-5.13051e-11
5.61703e-08
-1.05161e-09
-3.17314e-09
2.88136e-08
-5.2944e-09
2.47231e-08
-1.21889e-09
9.70346e-10
1.17272e-10
5.89496e-08
1.79609e-10
-1.83877e-09
4.64425e-08
-8.45329e-11
-8.91969e-10
4.12232e-08
-2.83319e-10
3.40407e-08
5.33115e-11
3.31637e-09
5.27999e-08
7.52779e-10
3.92311e-08
2.60954e-10
3.37968e-08
2.40856e-08
-5.61962e-10
-4.07522e-09
-1.2149e-08
6.56914e-08
-1.02849e-09
-6.02225e-09
4.65451e-08
-2.1575e-09
-2.5637e-09
3.92997e-08
-1.48271e-09
4.57556e-08
-2.4431e-09
-2.43947e-09
-6.5661e-09
6.50489e-08
3.96669e-10
-4.36949e-09
5.16818e-08
-1.23247e-09
-5.59756e-09
3.34764e-08
-6.47117e-09
3.10464e-08
-2.56733e-09
2.90976e-10
-3.35161e-09
5.54943e-08
-1.40429e-10
-2.88481e-09
4.53894e-08
-1.13744e-09
-2.69932e-09
3.9322e-08
-3.27336e-09
3.1064e-08
-1.35879e-09
1.02654e-09
4.79681e-08
1.54522e-10
3.94395e-08
-3.02966e-10
3.29564e-08
2.61835e-08
-1.51953e-09
5.9722e-09
9.94732e-10
6.30673e-08
1.07612e-09
-1.99648e-09
5.34379e-08
-3.02353e-09
-1.20653e-09
4.4606e-08
3.42601e-09
4.0764e-08
-1.4584e-09
4.28898e-09
1.40825e-09
6.04733e-08
2.32711e-09
-4.38458e-10
5.20859e-08
-2.08336e-09
-4.027e-09
4.07074e-08
-3.1624e-10
3.42673e-08
-1.56239e-09
3.47191e-09
1.03752e-09
5.36715e-08
1.23186e-09
3.74204e-10
4.68169e-08
-1.44259e-09
-7.1442e-10
3.86841e-08
-7.52249e-11
2.98875e-08
-5.072e-10
3.17646e-09
4.66626e-08
1.6174e-09
4.07579e-08
-6.61147e-10
3.31749e-08
2.45516e-08
-1.12057e-10
3.17167e-09
-9.06051e-10
6.25836e-08
1.20335e-09
-1.524e-09
5.69305e-08
-7.68067e-10
-1.72558e-09
4.8303e-08
-2.12444e-10
4.13216e-08
-1.11363e-09
2.63552e-09
-2.54526e-11
5.74169e-08
1.77819e-09
-5.94146e-10
5.20134e-08
-5.03551e-10
-1.99607e-09
4.32596e-08
-7.20289e-10
3.53349e-08
-1.06354e-09
2.27265e-09
4.22717e-10
5.16581e-08
1.58026e-09
9.99529e-11
4.68154e-08
-1.17963e-10
-7.34409e-10
3.91208e-08
-6.1369e-10
3.03761e-08
-7.13318e-10
2.04154e-09
4.55495e-08
1.58977e-09
4.11663e-08
1.52376e-10
3.40453e-08
2.52415e-08
-4.60409e-10
1.26966e-09
2.28077e-10
6.20606e-08
3.72094e-10
1.83754e-10
5.76445e-08
-6.08427e-10
-1.14225e-10
4.93978e-08
6.12899e-10
4.06046e-08
-5.04638e-10
1.06426e-09
1.73732e-10
5.69337e-08
5.00986e-10
1.17931e-10
5.26428e-08
-5.61985e-10
-4.73548e-10
4.4682e-08
2.521e-10
3.56223e-08
-4.88847e-10
9.02975e-10
2.19223e-10
5.12671e-08
4.60453e-10
1.85457e-10
4.71907e-08
-4.30976e-10
-2.2889e-10
3.97678e-08
1.08343e-10
3.04532e-08
-3.64192e-10
8.1054e-10
4.53186e-08
4.84303e-10
4.14982e-08
-2.39392e-10
3.45084e-08
2.52327e-08
-2.64175e-10
6.73821e-10
-5.60678e-11
6.19593e-08
3.99281e-10
-5.40972e-11
5.79733e-08
-1.22389e-10
-2.77817e-10
5.01974e-08
-3.73755e-11
4.07943e-08
-2.74969e-10
5.94856e-10
3.42753e-11
5.66366e-08
4.27876e-10
3.51128e-11
5.27208e-08
-1.12779e-10
-2.78069e-10
4.52231e-08
-3.64217e-11
3.57645e-08
-2.55995e-10
5.36742e-10
1.09233e-10
5.10275e-08
4.14912e-10
8.86179e-11
4.72592e-08
-5.65205e-11
-1.64281e-10
4.01256e-08
-8.67549e-11
3.06593e-08
-2.12091e-10
4.8732e-10
4.51951e-08
3.90403e-10
4.162e-08
-2.38303e-12
3.48371e-08
2.54739e-08
-1.74859e-10
3.05972e-10
-1.68e-12
6.19401e-08
1.83018e-10
2.3071e-11
5.80733e-08
-7.34074e-11
-7.63584e-11
5.05303e-08
3.98996e-11
4.08112e-08
-1.30256e-10
2.81859e-10
2.30977e-11
5.65781e-08
1.84162e-10
3.95092e-11
5.28023e-08
-7.39009e-11
-1.0904e-10
4.55142e-08
7.78031e-12
3.58492e-08
-1.2655e-10
2.62034e-10
5.11769e-11
5.09723e-08
1.81115e-10
4.92249e-11
4.73306e-08
-5.21294e-11
-8.25603e-11
4.03326e-08
-3.01825e-11
3.07561e-08
-1.10689e-10
2.39824e-10
4.51689e-08
1.7275e-10
4.16975e-08
-2.84459e-11
3.50031e-08
2.55704e-08
-9.57365e-11
1.53268e-10
2.17539e-13
6.19463e-08
1.02958e-10
1.44193e-11
5.81094e-08
-2.08411e-11
-4.53819e-11
5.06997e-08
3.7887e-13
4.08529e-08
-6.29722e-11
1.44648e-10
1.0057e-11
5.65723e-08
1.01125e-10
1.99543e-11
5.28405e-08
-2.67673e-11
-5.81553e-11
4.56551e-08
-1.14416e-11
3.58966e-08
-6.25256e-11
1.38612e-10
2.40581e-11
5.09605e-08
1.00845e-10
2.20337e-11
4.73665e-08
-2.02308e-11
-4.41977e-11
4.04398e-08
-2.93212e-11
3.08088e-08
-5.48678e-11
1.28042e-10
4.51637e-08
9.03674e-11
4.17358e-08
-9.66211e-12
3.50848e-08
2.56226e-08
-4.97193e-11
8.1745e-11
1.40391e-14
6.19569e-08
5.87712e-11
7.29421e-12
5.81252e-08
-4.7286e-12
-2.28244e-11
5.07862e-08
-1.30661e-12
4.0877e-08
-2.75421e-11
8.01294e-11
4.62437e-12
5.65757e-08
5.79669e-11
1.01864e-11
5.28599e-08
-8.94967e-12
-2.71534e-11
4.57265e-08
-8.92969e-12
3.59238e-08
-2.87374e-11
7.54389e-11
1.19129e-11
5.09607e-08
5.37292e-11
1.17287e-11
4.73868e-08
-6.2541e-12
-2.11697e-11
4.04938e-08
-1.8145e-11
3.08372e-08
-2.54239e-11
6.63309e-11
4.51662e-08
4.64172e-11
4.17555e-08
-2.67314e-12
3.5125e-08
2.56494e-08
-2.47047e-11
4.73414e-11
-6.49329e-13
6.19647e-08
3.45596e-11
4.39536e-12
5.81336e-08
2.15355e-12
-1.05122e-11
5.08292e-08
-1.88564e-12
4.08921e-08
-1.10784e-11
4.2783e-11
2.73277e-12
5.65812e-08
3.20838e-11
5.15643e-12
5.287e-08
-1.08393e-12
-1.2546e-11
4.57619e-08
-6.08112e-12
3.5939e-08
-1.24185e-11
4.05435e-11
6.69489e-12
5.09639e-08
2.93184e-11
5.70644e-12
4.73975e-08
-3.56546e-13
-9.80212e-12
4.05205e-08
-1.06322e-11
3.08521e-08
-1.07521e-11
3.75802e-11
4.51694e-08
2.54942e-11
4.17664e-08
7.59965e-13
3.51447e-08
2.56626e-08
-1.08939e-11
2.71574e-11
-6.28484e-14
6.19703e-08
2.05548e-11
2.07856e-12
5.81382e-08
4.14554e-12
-4.86207e-12
5.08506e-08
-1.23773e-12
4.09006e-08
-3.22487e-12
2.4814e-11
1.53548e-12
5.65852e-08
1.85826e-11
2.41254e-12
5.2876e-08
1.90589e-12
-5.76224e-12
4.57795e-08
-3.6457e-12
3.59473e-08
-4.31705e-12
2.41119e-11
4.0698e-12
5.09669e-08
1.70676e-11
3.04038e-12
4.7404e-08
1.99835e-12
-4.41608e-12
4.0534e-08
-5.76914e-12
3.08599e-08
-3.78842e-12
2.25176e-11
4.51721e-08
1.51432e-11
4.17727e-08
2.22026e-12
3.51546e-08
2.56692e-08
-4.1997e-12
1.67217e-11
-2.03127e-14
6.19738e-08
1.28804e-11
8.67461e-13
5.81413e-08
4.3491e-12
-2.28252e-12
5.08615e-08
-7.32799e-13
4.09055e-08
6.48111e-15
1.54822e-11
1.09305e-12
5.65881e-08
1.14826e-11
1.1772e-12
5.28798e-08
2.83178e-12
-2.61937e-12
4.57885e-08
-2.06905e-12
3.59519e-08
-8.46943e-13
1.50779e-11
2.42772e-12
5.0969e-08
1.06774e-11
1.72716e-12
4.7408e-08
2.72867e-12
-1.91318e-12
4.0541e-08
-3.05184e-12
3.0864e-08
-6.72533e-13
1.4202e-11
4.5174e-08
9.69516e-12
4.17764e-08
2.67172e-12
3.51598e-08
2.56727e-08
-1.131e-12
1.08231e-11
3.80724e-14
6.19759e-08
8.43379e-12
3.64151e-13
5.81435e-08
3.83526e-12
-1.06745e-12
5.08672e-08
-4.01544e-13
4.09085e-08
1.15283e-12
1.0008e-11
6.87862e-13
5.65899e-08
7.46255e-12
5.96763e-13
5.28823e-08
2.80655e-12
-1.17463e-12
4.57933e-08
-1.13723e-12
3.59546e-08
5.08635e-13
9.77777e-12
1.37522e-12
5.09704e-08
7.04132e-12
9.9748e-13
4.74104e-08
2.66233e-12
-7.90031e-13
4.05447e-08
-1.60042e-12
3.08664e-08
5.99658e-13
9.32773e-12
4.51754e-08
6.5368e-12
4.17786e-08
2.55782e-12
3.51626e-08
2.56747e-08
2.04279e-13
7.15513e-12
5.44296e-14
6.19772e-08
5.65325e-12
1.35812e-13
5.8145e-08
3.09847e-12
-5.22527e-13
5.08704e-08
-2.31645e-13
4.09103e-08
1.41029e-12
6.58198e-12
3.74694e-13
5.6591e-08
4.9825e-12
2.94091e-13
5.28839e-08
2.40027e-12
-5.29029e-13
4.57959e-08
-6.48741e-13
3.59562e-08
9.53674e-13
6.45893e-12
7.29821e-13
5.09714e-08
4.76241e-12
5.65227e-13
4.74119e-08
2.26036e-12
-3.12228e-13
4.05468e-08
-8.79513e-13
3.08678e-08
1.01353e-12
6.24904e-12
4.51763e-08
4.50036e-12
4.178e-08
2.16374e-12
3.51642e-08
2.56758e-08
7.07049e-13
4.7255e-12
1.26771e-14
6.19779e-08
3.79062e-12
2.63092e-14
5.8146e-08
2.35227e-12
-2.83877e-13
5.08722e-08
-1.46049e-13
4.09115e-08
1.29589e-12
4.32377e-12
1.69031e-13
5.65917e-08
3.33779e-12
1.31952e-13
5.28849e-08
1.88715e-12
-2.42409e-13
4.57975e-08
-3.86604e-13
3.59573e-08
9.89993e-13
4.2655e-12
3.65586e-13
5.0972e-08
3.2248e-12
3.20026e-13
4.74129e-08
1.77172e-12
-1.18944e-13
4.05481e-08
-5.02378e-13
3.08687e-08
1.0359e-12
4.18574e-12
4.51769e-08
3.09201e-12
4.17809e-08
1.69543e-12
3.51652e-08
2.56766e-08
8.18562e-13
3.09851e-12
-1.91058e-14
6.19783e-08
2.52988e-12
-2.62081e-14
5.81467e-08
1.71954e-12
-1.58776e-13
5.08733e-08
-8.27695e-14
4.09124e-08
1.06914e-12
2.83413e-12
6.48883e-14
5.65921e-08
2.23976e-12
6.10575e-14
5.28856e-08
1.4277e-12
-9.11031e-14
4.57984e-08
-2.17039e-13
3.5958e-08
8.78578e-13
2.81734e-12
1.93153e-13
5.09724e-08
2.19174e-12
2.03705e-13
4.74136e-08
1.34621e-12
-9.4509e-15
4.05489e-08
-2.6399e-13
3.08693e-08
9.1391e-13
2.80438e-12
4.51773e-08
2.12804e-12
4.17815e-08
1.29182e-12
3.51659e-08
2.56771e-08
7.72219e-13
2.11296e-12
-6.01163e-15
6.19786e-08
1.76362e-12
-1.67496e-14
5.81471e-08
1.29083e-12
-6.39039e-14
5.0874e-08
-1.90579e-14
4.0913e-08
8.70128e-13
1.96749e-12
4.92091e-14
5.65923e-08
1.60897e-12
6.37643e-14
5.28861e-08
1.13844e-12
1.92615e-14
4.57991e-08
-5.89786e-14
3.59585e-08
7.69132e-13
1.97902e-12
1.46083e-13
5.09726e-08
1.60414e-12
1.81257e-13
4.7414e-08
1.09376e-12
1.0015e-13
4.05494e-08
-4.87394e-14
3.08698e-08
7.96988e-13
2.00247e-12
4.51775e-08
1.58301e-12
4.17819e-08
1.06405e-12
3.51663e-08
2.56774e-08
7.12937e-13
1.77692e-12
6.86097e-14
1.52631e-12
6.44888e-14
1.17322e-12
5.98018e-14
7.44575e-14
8.27879e-13
1.76551e-12
1.58335e-13
1.51027e-12
1.69255e-13
1.15331e-12
1.64341e-13
1.39632e-13
8.06827e-13
1.81191e-12
2.51101e-13
1.5469e-12
2.9288e-13
1.16328e-12
2.8683e-13
2.43786e-13
8.41675e-13
1.86564e-12
1.57081e-12
1.1492e-12
7.61181e-13
6.52747e-09
1.81685e-09
2.72695e-08
6.72894e-09
-6.39778e-10
3.17784e-08
1.71803e-08
1.14607e-09
2.65798e-08
6.63292e-09
5.49931e-08
1.26243e-09
1.61273e-09
3.43671e-08
5.89251e-09
6.84749e-09
2.48833e-08
1.61186e-08
5.33815e-09
3.04828e-08
-1.73376e-10
7.27851e-08
1.07151e-08
7.18936e-10
2.51087e-08
6.23651e-09
-5.32832e-09
6.39024e-08
1.7245e-09
3.03168e-11
6.35601e-08
8.43674e-10
6.0539e-08
1.25146e-09
2.73522e-08
1.62835e-08
2.29216e-08
2.20504e-09
7.31059e-08
6.68786e-08
1.75011e-10
1.6179e-09
2.89445e-08
-9.8877e-10
4.59671e-09
3.07894e-08
-1.387e-09
8.73026e-09
1.83247e-08
1.12151e-08
4.24612e-08
5.43371e-09
3.55324e-09
2.75982e-08
8.36485e-09
6.64174e-10
2.58847e-08
-4.54263e-09
5.32205e-10
5.15883e-08
3.33975e-09
7.48896e-08
2.6003e-09
3.5523e-09
2.95688e-08
8.12338e-09
-2.49092e-10
5.92926e-08
1.24234e-09
9.06993e-10
7.00664e-08
7.30709e-09
5.78794e-08
4.31718e-09
4.59638e-08
4.64975e-09
2.67435e-08
1.69593e-08
5.92651e-08
9.70628e-08
-8.47259e-10
2.02605e-09
2.99517e-08
-1.11131e-09
1.41135e-09
3.09983e-08
5.1777e-09
2.2535e-09
1.06743e-08
-2.05126e-09
5.116e-08
3.1987e-10
3.01388e-09
2.57038e-08
3.36141e-09
9.67997e-11
2.41577e-08
-1.36074e-08
1.45058e-08
5.63049e-08
1.33064e-08
4.63915e-08
-1.79352e-09
2.19657e-09
3.47268e-08
1.98226e-08
5.62506e-09
3.21483e-08
3.30128e-09
2.8901e-09
9.82034e-08
2.16685e-08
5.30585e-08
1.11414e-08
4.28684e-08
7.90314e-09
3.60868e-08
5.18608e-08
2.51491e-08
2.08325e-07
7.84928e-09
1.937e-09
1.29355e-08
-7.79759e-10
2.62e-09
3.85553e-08
-3.77459e-09
2.78146e-09
1.19247e-08
4.65375e-09
4.46535e-08
1.83533e-09
1.4284e-09
2.45075e-08
4.71459e-10
2.29628e-10
2.79119e-08
2.57367e-11
6.94663e-09
5.25855e-08
4.91878e-09
4.63072e-08
1.55726e-09
1.383e-10
3.2355e-08
-4.20952e-09
2.63788e-09
3.55068e-08
-1.23689e-08
-1.04277e-10
1.13414e-07
2.50843e-09
4.37079e-08
4.15661e-09
3.46247e-08
4.00126e-09
3.94407e-08
1.32325e-10
3.66454e-08
2.19056e-07
-9.46165e-10
2.88446e-10
1.00274e-08
-3.25565e-10
-7.72482e-10
3.84276e-08
3.81062e-09
3.79763e-11
7.82042e-09
-3.56729e-09
5.50649e-08
-2.76337e-09
-1.04471e-09
3.44456e-08
-5.92444e-10
-4.55649e-09
2.9525e-08
-3.95066e-09
-1.34867e-08
6.94684e-08
-6.28553e-09
4.52582e-08
-6.12186e-09
-4.01299e-10
3.75483e-08
-1.12701e-08
2.63011e-09
3.34685e-08
-3.55639e-09
-2.00186e-09
9.42151e-08
-1.51541e-08
5.02413e-08
-2.20475e-09
2.96648e-08
-1.79907e-08
5.54649e-08
-5.36653e-08
6.2383e-08
1.30867e-07
-6.44195e-09
-2.77206e-09
2.30482e-08
5.4277e-09
2.22417e-10
2.47549e-08
-1.04026e-08
-2.36821e-09
2.75004e-08
5.25314e-09
4.34049e-08
-6.39637e-10
-8.3421e-11
3.3979e-08
4.1733e-09