/*--------------------------------*- C++ -*----------------------------------*\
| =========                 |                                                 |
| \\      /  F ield         | OpenFOAM: The Open Source CFD Toolbox           |
|  \\    /   O peration     | Version:  2506                                  |
|   \\  /    A nd           | Website:  www.openfoam.com                      |
|    \\/     M anipulation  |                                                 |
\*---------------------------------------------------------------------------*/
FoamFile
{
    version     2.0;
    format      ascii;
    arch        "LSB;label=32;scalar=64";
    class       volVectorField;
    location    "0.07";
    object      U;
}
// * * * * * * * * * * * * * * * * * * * * * * * * * * * * * * * * * * * * * //

dimensions      [0 1 -1 0 0 0 0];

internalField   nonuniform List<vector> 
1152
(
(0.00636908 -0.00163497 0.0431795)
(-0.00202667 0.0017806 0.0198598)
(-0.000510512 -0.000550482 0.0218491)
(0.00108947 0.00131412 0.017015)
(0.00169829 0.000755553 0.0158848)
(-0.00288044 0.00284496 0.0307431)
(0.000117768 0.00208299 0.011062)
(0.00168174 0.00359114 0.0168853)
(0.00152028 0.00436995 0.0246403)
(-0.000137239 0.002354 0.0181988)
(-0.000447756 0.00638721 0.016788)
(-0.00263168 0.00654457 0.0293896)
(0.000492834 0.00296448 0.0131932)
(0.00113662 0.00307514 0.0241334)
(0.000599361 0.00323731 0.0366307)
(-0.00890337 -0.00253992 0.0388577)
(-0.00438589 -0.000495275 0.0254357)
(-0.00164787 2.945e-05 0.015299)
(0.000605204 0.00458876 0.0280297)
(0.00170591 0.00075642 0.0193859)
(-0.00441365 0.00389566 0.0262713)
(0.000437736 0.00359661 0.0203872)
(0.00130703 0.00383776 0.0176854)
(1.042e-05 0.000753598 0.0326104)
(-0.00525548 0.00687778 0.0417318)
(-0.000606668 0.00393479 0.0278516)
(-0.00300482 0.00203499 0.0268857)
(-0.000258143 0.000468334 0.0193869)
(-0.0012802 0.00110506 0.0339084)
(-0.00238253 0.000313076 0.00934799)
(-0.00120959 0.000393986 0.0016521)
(0.000380729 0.00400043 0.0237674)
(-0.0125415 0.0037965 0.0573655)
(-0.000244878 0.00109789 0.0209247)
(-0.00131459 0.00282126 0.033811)
(-0.000516059 0.000245481 0.00592922)
(-0.00220329 0.00365344 0.015738)
(0.000469824 0.00285869 0.0365055)
(-0.000344126 0.00236327 0.0252729)
(-0.00205833 0.000997565 0.0399063)
(-0.00647655 0.0108888 0.0222615)
(-0.00563961 0.0034069 0.0235314)
(-0.00306 -0.00150321 0.0309175)
(0.000131292 -0.000136833 0.0193753)
(-0.00301634 -0.0138355 0.0439103)
(-0.0274456 -0.00149886 0.0467732)
(-0.0102594 -0.000159531 0.0562324)
(0.00170468 0.00017472 0.0300193)
(0.00182841 0.00315047 0.0175289)
(0.00544104 -0.000300355 0.0403522)
(-3.1224e-05 0.000499795 0.0117966)
(-0.00272891 0.00115692 0.0253663)
(0.000139039 0.00215228 0.0143036)
(-0.000899158 0.00126326 0.0158862)
(0.00105248 0.000254641 0.0435884)
(0.00037742 0.00126942 0.0355964)
(0.000755965 0.00839879 0.0280949)
(-0.00175645 0.00234646 0.0231696)
(-0.000224373 0.00157442 0.0259452)
(5.21505e-05 0.00110651 0.0180797)
(-0.000228521 -0.000209668 0.00375484)
(-0.00317558 0.00209074 0.0173548)
(-0.000219329 0.00424562 0.0337392)
(-0.000402883 -0.000203073 0.0133355)
(0.00259758 3.02991e-05 0.0450049)
(0.00121863 -0.000907654 0.0259565)
(0.00172891 -0.00204402 0.0391654)
(-0.000340433 -0.00100697 0.0287645)
(0.00277635 -0.00680004 0.0309245)
(-0.000642956 -0.000627897 0.0194926)
(-0.000186385 -0.000676588 0.0217045)
(0.00215541 -0.000966079 0.0307124)
(0.00505619 -0.00866585 0.0176327)
(0.0110557 -0.00489973 0.0429688)
(0.000565067 0.000258461 0.0151659)
(0.00085704 0.0029398 0.0347279)
(0.0156434 0.0167138 0.0394988)
(0.000720365 0.00034954 0.00396701)
(0.012134 -0.000157017 0.0609544)
(0.000882122 0.00123952 0.0351271)
(0.000526091 -0.000856766 0.00590493)
(-0.00124326 -0.00214756 0.0277543)
(-0.000332346 -0.000851717 0.0136845)
(0.00378297 -0.00156959 0.0332395)
(0.00525967 -0.00671543 0.0378195)
(0.000405809 -0.000725229 0.00915628)
(-0.000130035 0.000180705 0.0240942)
(0.000164845 -0.000133956 0.00598115)
(0.00113526 -0.00349114 0.016457)
(0.00408348 -0.00231713 0.0302622)
(0.00148839 0.000642194 0.0190627)
(0.000136823 0.00070966 0.0128622)
(0.00225402 -0.00472877 0.0584338)
(0.00506905 -0.00232348 0.0150864)
(0.00281668 -0.00272303 0.0209755)
(2.8038e-05 -0.000221273 0.026021)
(0.000508925 -0.000705595 0.0186583)
(0.000734118 0.000326284 0.0247876)
(6.49736e-05 -0.000286739 0.0123337)
(-0.000235378 -8.42655e-05 0.0272731)
(2.73895e-05 8.78412e-05 0.0281192)
(0.000265393 5.83483e-06 0.0108521)
(0.000499462 -4.76457e-05 0.0185778)
(0.000138652 -0.00017213 0.00896518)
(0.000127067 0.000604807 0.017942)
(0.000785214 -0.000759806 0.0319127)
(0.000652377 -0.000373495 0.0119438)
(0.000577343 -0.000420993 0.0182245)
(6.37257e-05 0.000206931 0.00826318)
(-0.000619828 0.000732471 0.0231375)
(4.28382e-05 0.000560682 0.0437205)
(0.00126057 0.000296697 0.0258656)
(-0.000164653 -0.000247368 0.0323711)
(0.00031547 -0.000152929 0.0285504)
(-5.10702e-05 -0.00045508 0.0218479)
(-0.000146218 -0.000608377 0.0309023)
(0.000478268 -0.000116927 0.0345074)
(0.000168675 -0.000251529 0.0209194)
(-5.49079e-05 -0.000283794 0.0226563)
(-0.000221387 -0.000155437 0.0162571)
(0.000698364 -0.000583448 0.0283976)
(0.000254709 -0.00039253 0.035329)
(0.000243269 -0.00124463 0.0219069)
(-0.000187598 -0.000784268 0.0228609)
(0.000170886 -0.000100092 0.0103414)
(-0.000299598 0.00063246 0.0325788)
(-0.000393926 7.02906e-05 0.0394331)
(0.000968009 0.000272017 0.032577)
(0.000330111 0.000247481 0.00826301)
(0.00104032 0.000427776 0.00740652)
(0.000135288 0.000391643 0.00616759)
(-0.000504558 0.000865284 0.00730382)
(0.00041443 0.000222007 0.00873389)
(0.000944317 -0.000638453 0.00669314)
(0.000470861 -0.000272387 0.00615884)
(-0.000426621 0.000314954 0.00522644)
(0.00122244 0.00088875 0.00831586)
(0.000550477 -0.00115594 0.0090336)
(0.00106014 -0.00170024 0.00703117)
(-4.82342e-06 -0.00152915 0.00640789)
(0.000630479 0.0002141 0.00671395)
(-0.00162456 3.29245e-05 0.00872137)
(5.30851e-05 -0.000241929 0.0103435)
(0.000649318 -0.000512161 0.00877085)
(0.00028763 0.000111696 0.017038)
(0.00056273 5.99797e-05 0.0165399)
(0.000259563 -3.45335e-05 0.0158914)
(-3.35049e-05 -2.96402e-05 0.0162015)
(0.000269384 7.6346e-06 0.0169699)
(0.000450379 -0.000359222 0.0162253)
(0.000281497 -0.000323504 0.0157616)
(-0.000174791 -0.00018111 0.0154103)
(0.000459582 0.000256711 0.0170204)
(0.000220617 -0.000483414 0.0172913)
(0.000395784 -0.000777304 0.0163118)
(-8.32748e-05 -0.000779242 0.0159847)
(9.50196e-05 0.000222106 0.0161395)
(-0.000609647 7.11477e-05 0.0173268)
(-7.63326e-05 -6.22363e-05 0.0175331)
(-1.03947e-05 -0.000229105 0.0170561)
(0.000166165 7.57307e-05 0.0140525)
(0.000216998 4.79382e-05 0.0138346)
(6.73931e-05 2.59634e-05 0.0135289)
(-0.000157555 8.40125e-05 0.0135287)
(0.000138984 1.3921e-05 0.014034)
(0.000166113 -0.000118225 0.0138049)
(7.64235e-05 -0.00011462 0.0135532)
(-0.000157391 -5.11923e-05 0.013424)
(0.00016502 7.84235e-05 0.0141301)
(7.7656e-05 -0.000165008 0.0141875)
(0.000108289 -0.000271211 0.0138421)
(-0.000100943 -0.000274304 0.0137074)
(4.40988e-06 0.000112258 0.0138704)
(-0.000203437 3.16535e-05 0.0142322)
(-6.73856e-05 -2.82616e-05 0.0142448)
(-0.000114998 -8.87311e-05 0.0141266)
(0.000100292 3.38221e-05 0.0145283)
(0.000116336 9.76202e-06 0.0144433)
(6.58686e-05 -2.52321e-05 0.0143225)
(-2.78612e-05 -3.63613e-05 0.0143151)
(7.62886e-05 5.70207e-06 0.0145211)
(7.97492e-05 -4.92004e-05 0.0144492)
(4.06793e-05 -7.1157e-05 0.0143433)
(-6.33952e-05 -7.33645e-05 0.0143039)
(6.3649e-05 2.6752e-05 0.014569)
(3.45272e-05 -6.2058e-05 0.0145787)
(2.927e-05 -0.000110951 0.0144555)
(-6.19536e-05 -0.000129168 0.0144068)
(-5.05831e-06 5.84826e-05 0.0144935)
(-6.73009e-05 1.48828e-05 0.0146029)
(-4.16952e-05 -1.68191e-05 0.0145838)
(-9.08313e-05 -4.04657e-05 0.0145545)
(5.40228e-05 1.7162e-05 0.0144865)
(5.31135e-05 6.54088e-06 0.0144406)
(2.63184e-05 -1.16854e-05 0.0143704)
(-2.31576e-05 -1.51054e-05 0.0143268)
(3.97655e-05 7.36624e-06 0.0144972)
(3.47756e-05 -1.48012e-05 0.0144646)
(1.18109e-05 -2.93538e-05 0.0144096)
(-3.67527e-05 -3.32261e-05 0.0143745)
(2.59861e-05 1.36745e-05 0.0145228)
(1.38687e-05 -1.98527e-05 0.0145173)
(2.29821e-06 -4.04097e-05 0.0144674)
(-3.76828e-05 -5.02445e-05 0.014438)
(-2.20803e-06 2.84236e-05 0.0145007)
(-2.35329e-05 8.10856e-06 0.0145328)
(-2.50699e-05 -6.92307e-06 0.014516)
(-5.42875e-05 -1.50646e-05 0.0145015)
(2.90849e-05 8.70227e-06 0.0144805)
(2.61752e-05 3.80189e-06 0.0144554)
(1.32518e-05 -6.27501e-06 0.0144136)
(-9.42362e-06 -1.0514e-05 0.0143734)
(2.08643e-05 5.8465e-06 0.0144985)
(1.65927e-05 -3.87425e-06 0.0144808)
(4.08181e-06 -1.27125e-05 0.0144498)
(-1.77746e-05 -1.67198e-05 0.0144203)
(1.22015e-05 7.88594e-06 0.014513)
(6.54232e-06 -5.00707e-06 0.014506)
(-1.99227e-06 -1.48919e-05 0.0144819)
(-1.95811e-05 -2.04261e-05 0.0144587)
(6.39931e-07 1.33848e-05 0.0145085)
(-7.56431e-06 4.63484e-06 0.0145154)
(-1.34414e-05 -2.11765e-06 0.0145032)
(-2.80323e-05 -5.29092e-06 0.0144884)
(1.60946e-05 4.96236e-06 0.0144827)
(1.35388e-05 2.44697e-06 0.0144654)
(6.86182e-06 -2.70362e-06 0.0144343)
(-3.73456e-06 -5.45265e-06 0.0143936)
(1.16162e-05 4.17296e-06 0.0145035)
(8.48167e-06 -4.06124e-07 0.0144913)
(1.6886e-06 -5.22861e-06 0.0144689)
(-8.29427e-06 -7.83071e-06 0.0144392)
(7.0514e-06 4.71845e-06 0.0145151)
(3.64535e-06 -5.84566e-07 0.0145082)
(-1.67636e-06 -5.24306e-06 0.0144917)
(-9.6792e-06 -8.07904e-06 0.0144684)
(2.12968e-06 6.16135e-06 0.0145162)
(-1.93427e-06 2.60129e-06 0.0145148)
(-6.51686e-06 -3.8623e-07 0.0145041)
(-1.37719e-05 -1.5912e-06 0.0144863)
(9.28142e-06 2.90533e-06 0.0144848)
(7.513e-06 1.58843e-06 0.0144711)
(4.00486e-06 -9.55225e-07 0.0144444)
(-1.03743e-06 -2.55452e-06 0.0144035)
(6.96366e-06 2.6518e-06 0.0145067)
(4.87275e-06 4.33678e-07 0.0144969)
(1.21075e-06 -2.06751e-06 0.0144776)
(-3.45369e-06 -3.60411e-06 0.0144473)
(4.72931e-06 2.71483e-06 0.0145178)
(2.51967e-06 4.01415e-07 0.0145113)
(-6.11338e-07 -1.78835e-06 0.014497)
(-4.40361e-06 -3.18695e-06 0.0144729)
(2.60349e-06 2.72927e-06 0.0145209)
(1.76892e-07 1.27284e-06 0.014517)
(-2.67896e-06 3.7167e-08 0.0145061)
(-6.33591e-06 -3.97667e-07 0.014486)
(5.65067e-06 1.68911e-06 0.0144861)
(4.52113e-06 1.03935e-06 0.014474)
(2.61569e-06 -1.77762e-07 0.0144493)
(1.3792e-07 -1.04741e-06 0.0144081)
(4.48168e-06 1.55581e-06 0.0145086)
(3.15908e-06 4.71932e-07 0.0144999)
(1.16065e-06 -7.84456e-07 0.0144817)
(-1.09956e-06 -1.6135e-06 0.0144507)
(3.40048e-06 1.47061e-06 0.0145198)
(2.00646e-06 4.11844e-07 0.0145136)
(1.98538e-07 -6.08492e-07 0.0144998)
(-1.7063e-06 -1.28416e-06 0.0144749)
(2.47064e-06 1.12827e-06 0.0145237)
(9.86855e-07 5.30506e-07 0.0145191)
(-6.97842e-07 2.88046e-08 0.0145079)
(-2.59952e-06 -1.03916e-07 0.0144862)
(3.62412e-06 9.58491e-07 0.0144871)
(2.93545e-06 6.68258e-07 0.0144758)
(1.88453e-06 1.16295e-07 0.0144518)
(6.30572e-07 -3.44077e-07 0.0144106)
(3.04984e-06 8.50787e-07 0.0145099)
(2.25133e-06 3.29381e-07 0.0145016)
(1.13157e-06 -2.84812e-07 0.0144839)
(2.76276e-09 -7.12463e-07 0.0144525)
(2.52961e-06 7.19567e-07 0.0145213)
(1.6812e-06 2.3018e-07 0.0145152)
(6.37089e-07 -2.39528e-07 0.0145015)
(-3.63514e-07 -5.47674e-07 0.014476)
(2.1143e-06 3.90302e-07 0.0145257)
(1.23492e-06 1.45772e-07 0.0145208)
(2.49444e-07 -4.82587e-08 0.0145092)
(-7.96952e-07 -8.59965e-08 0.0144867)
(2.41965e-06 5.24213e-07 0.0144878)
(2.01156e-06 4.16657e-07 0.0144768)
(1.41446e-06 1.90206e-07 0.0144532)
(7.65816e-07 -3.9296e-08 0.0144118)
(2.14874e-06 4.29795e-07 0.0145107)
(1.67684e-06 1.85572e-07 0.0145027)
(1.0381e-06 -9.96815e-08 0.0144851)
(4.51294e-07 -3.01176e-07 0.0144534)
(1.90573e-06 2.97616e-07 0.0145223)
(1.39939e-06 8.52801e-08 0.0145163)
(7.9343e-07 -1.23972e-07 0.0145026)
(2.37495e-07 -2.57334e-07 0.0144768)
(1.73139e-06 5.38709e-08 0.0145269)
(1.21659e-06 -2.91412e-08 0.0145219)
(6.238e-07 -9.59783e-08 0.0145101)
(1.55173e-08 -9.94978e-08 0.0144872)
(1.64866e-06 2.73758e-07 0.0144882)
(1.41014e-06 2.55515e-07 0.0144775)
(1.0619e-06 1.83625e-07 0.014454)
(7.21312e-07 8.21159e-08 0.0144126)
(1.52798e-06 1.95588e-07 0.0145113)
(1.25464e-06 9.21815e-08 0.0145034)
(8.84372e-07 -2.96395e-08 0.0144858)
(5.66808e-07 -1.13649e-07 0.014454)
(1.42044e-06 1.01624e-07 0.014523)
(1.1272e-06 1.25474e-08 0.014517)
(7.66079e-07 -7.67522e-08 0.0145032)
(4.44068e-07 -1.30315e-07 0.0144773)
(1.35599e-06 -6.22091e-08 0.0145277)
(1.04948e-06 -8.55723e-08 0.0145227)
(6.91358e-07 -1.02992e-07 0.0145108)
(3.27738e-07 -9.53367e-08 0.0144876)
(1.12203e-06 1.43639e-07 0.0144885)
(9.82983e-07 1.63032e-07 0.0144779)
(7.78395e-07 1.57261e-07 0.0144545)
(5.99885e-07 1.20963e-07 0.0144131)
(1.07216e-06 8.90203e-08 0.0145117)
(9.1596e-07 5.11633e-08 0.0145039)
(6.99055e-07 5.24771e-09 0.0144862)
(5.27027e-07 -2.25503e-08 0.0144544)
(1.02259e-06 3.32619e-08 0.0145234)
(8.59481e-07 -3.64228e-09 0.0145175)
(6.44254e-07 -3.95845e-08 0.0145037)
(4.57662e-07 -5.76351e-08 0.0144776)
(9.94456e-07 -5.76292e-08 0.0145282)
(8.24625e-07 -7.2093e-08 0.0145232)
(6.10224e-07 -7.65594e-08 0.0145112)
(3.93862e-07 -7.00593e-08 0.014488)
(7.59251e-07 8.66513e-08 0.0144887)
(6.78654e-07 1.15364e-07 0.0144782)
(5.60311e-07 1.32536e-07 0.0144548)
(4.68843e-07 1.26967e-07 0.0144134)
(7.40575e-07 5.53923e-08 0.0145119)
(6.53861e-07 4.65445e-08 0.0145041)
(5.28584e-07 3.32911e-08 0.0144865)
(4.36647e-07 2.99741e-08 0.0144547)
(7.16123e-07 2.68508e-08 0.0145237)
(6.29853e-07 1.13731e-08 0.0145178)
(5.03673e-07 -1.4818e-09 0.014504)
(3.97984e-07 -4.30084e-09 0.0144779)
(6.93452e-07 -9.11256e-09 0.0145285)
(6.12975e-07 -2.94874e-08 0.0145235)
(4.89207e-07 -3.38021e-08 0.0145115)
(3.63074e-07 -3.03403e-08 0.0144882)
(5.42098e-07 6.90534e-08 0.0144888)
(4.96464e-07 9.52699e-08 0.0144783)
(4.27278e-07 1.16709e-07 0.014455)
(3.76709e-07 1.24608e-07 0.0144136)
(5.40138e-07 5.55014e-08 0.014512)
(4.91184e-07 5.91829e-08 0.0145043)
(4.18133e-07 6.10952e-08 0.0144867)
(3.64442e-07 6.91087e-08 0.0144549)
(5.30407e-07 4.09044e-08 0.0145238)
(4.84231e-07 3.67034e-08 0.0145179)
(4.10672e-07 3.58777e-08 0.0145042)
(3.45352e-07 4.08145e-08 0.0144781)
(5.14491e-07 3.2008e-08 0.0145287)
(4.77566e-07 1.48127e-08 0.0145237)
(4.06251e-07 1.13176e-08 0.0145117)
(3.2857e-07 1.33448e-08 0.0144884)
(5.0195e-07 9.041e-08 0.0144889)
(4.72188e-07 1.14654e-07 0.0144784)
(4.20876e-07 1.38235e-07 0.0144552)
(3.75185e-07 1.56782e-07 0.0144138)
(5.12715e-07 9.10212e-08 0.0145121)
(4.7929e-07 1.03699e-07 0.0145044)
(4.26771e-07 1.16284e-07 0.0144869)
(3.73888e-07 1.3287e-07 0.0144551)
(5.18862e-07 8.40034e-08 0.0145239)
(4.84227e-07 9.03594e-08 0.0145181)
(4.30636e-07 9.79181e-08 0.0145043)
(3.70361e-07 1.08083e-07 0.0144782)
(5.1762e-07 7.23889e-08 0.0145287)
(4.86529e-07 7.15526e-08 0.0145238)
(4.32921e-07 7.42987e-08 0.0145119)
(3.66608e-07 7.88543e-08 0.0144886)
(0.00142778 -0.0014331 0.0283672)
(-0.00027733 0.000630345 0.0137759)
(0.00110454 0.00178412 0.0120321)
(0.00377798 3.43399e-05 0.0204146)
(0.000364863 0.000750769 0.0158839)
(0.00230892 -0.000184549 0.0229304)
(0.00116868 0.00409868 0.032945)
(0.00189 -0.00133948 0.020344)
(-0.00123742 0.00238604 0.0188605)
(0.000444708 -0.000183743 0.010456)
(0.00415501 -0.000911608 0.0242486)
(0.00191517 -0.00371484 0.0296803)
(0.000525965 0.00157673 0.0314048)
(-0.00193194 0.00149408 0.0206445)
(0.000785533 -0.0013139 0.0217416)
(0.000797471 -0.00053635 0.00609539)
(-0.00274287 0.00306237 0.0188388)
(0.0035735 -0.000540172 0.0341314)
(0.00158233 -0.00176569 0.0227613)
(6.18752e-05 -0.000456958 0.046708)
(-0.00356309 0.00350342 0.0199366)
(-0.00103338 0.000369125 0.0337547)
(0.00235663 -0.00139184 0.0250346)
(0.0023812 -0.000967839 0.0167768)
(-0.0018008 0.0060927 0.0379558)
(-0.00207415 0.00197232 0.0253912)
(-0.00154673 0.00109127 0.0341052)
(0.00226889 0.00187552 0.0260915)
(-0.00362628 -0.000315086 0.0281924)
(-0.00397365 -0.000823707 0.0187985)
(6.31137e-05 0.00183221 0.013831)
(0.00202094 0.00278308 0.0275372)
(-0.00183273 0.00095786 0.0304481)
(0.00118933 0.000920105 0.0335344)
(0.000414456 0.000850249 0.0319164)
(0.00224263 0.000575877 0.0286938)
(-0.00135775 0.00421843 0.0228978)
(-0.000505251 0.00147285 0.0229133)
(0.000438781 0.00059855 0.0361046)
(0.00167913 -0.000508038 0.0492167)
(-0.000837316 0.00201701 0.0226269)
(-0.00270061 0.000462412 0.0244899)
(-0.000925695 0.00147201 0.0322916)
(0.000369423 0.00130192 0.0179318)
(-7.02373e-05 0.000785666 0.00349433)
(0.000186312 0.00173555 0.0356521)
(-0.000305908 0.00146944 0.0199018)
(-0.00105092 0.00273948 0.0577527)
(-0.000145787 0.000370278 0.00813943)
(0.000840095 -0.00107147 0.0325231)
(-0.00082707 -0.000639145 0.0197886)
(0.000711234 -0.00217199 0.0613264)
(6.22482e-05 0.000255205 0.00749423)
(-0.00148168 -0.00235595 0.0383063)
(-0.00244934 0.000175083 0.0368864)
(-0.000206235 0.00126721 0.00971777)
(0.000634538 -0.0111719 0.043221)
(0.000696554 -0.000646223 0.0347225)
(-0.000814052 0.000685287 0.0246974)
(-0.0017671 0.00214021 0.0267526)
(0.000827822 -0.00324641 0.0254805)
(0.00257348 9.1308e-05 0.014635)
(0.000601467 0.000191386 0.0331208)
(-0.000911931 0.00111475 0.019366)
(0.000267403 0.00140276 0.0233502)
(-0.00189368 -0.00176954 0.0413699)
(-0.00224089 -0.00067229 0.0332701)
(-0.00101859 0.00351332 0.0307442)
(0.000460232 -0.0013554 0.0320304)
(-0.00170686 -0.000241067 0.0218486)
(-0.000291798 0.000771596 0.0230688)
(-0.00134631 0.00245735 0.0264897)
(1.57589e-05 -0.0047012 0.0437894)
(-0.000284697 0.000121364 0.00921019)
(-0.000768588 0.00195803 0.047074)
(-0.000306697 0.000483067 0.0223662)
(-0.000526715 -0.00128023 0.0256457)
(0.00124316 -0.00124861 0.044735)
(-0.000564265 0.000450153 0.0112401)
(-0.000434746 0.00205573 0.05163)
(-0.000240418 0.000211655 0.00107558)
(-0.00441774 0.00372221 0.028724)
(0.000303278 0.0004975 0.0129144)
(0.0022694 0.000956752 0.0267022)
(0.00194203 0.00128207 0.0309816)
(-0.00256117 0.00358379 0.0196266)
(-0.00230891 0.00251515 0.0229958)
(0.000947959 0.00415009 0.0241195)
(0.000293088 0.000910778 0.0139711)
(-0.0019943 0.000563489 0.0256754)
(-0.000953629 0.00225451 0.014173)
(-0.00114482 0.00177232 0.0187012)
(0.00176022 -0.00103449 0.0206179)
(-0.000375694 -0.000428665 0.0102841)
(-0.00123902 -0.000772044 0.0241535)
(-5.46036e-05 -9.08086e-05 0.00629812)
(0.000323069 -0.000676125 0.00658529)
(-9.15158e-05 7.57652e-07 0.012546)
(-0.00054618 -0.000151492 0.0154051)
(-0.000563198 0.000179525 0.0234344)
(-7.27542e-05 -0.00255931 0.0271788)
(-0.000218956 -0.000286733 0.0239875)
(-0.00037557 -0.000351227 0.0101001)
(-0.000515872 -0.000627677 0.00866166)
(0.000635902 -7.14603e-05 0.0236181)
(0.000317634 -0.0001602 0.0190122)
(0.000328018 -0.000773292 0.0235302)
(0.000685499 -0.000819549 0.0273449)
(0.00167177 0.000241378 0.0233752)
(0.000614207 -0.000826369 0.018258)
(0.000409439 -8.48414e-05 0.0201396)
(8.79056e-05 -0.000614785 0.0168959)
(-0.000178453 -0.00109515 0.027753)
(-0.000244957 -0.000611876 0.0239443)
(-0.000631849 -0.000521853 0.0228227)
(-0.000608266 -0.000425611 0.0314563)
(-0.000424224 -0.00195136 0.0339657)
(0.000341429 -0.00108848 0.0295233)
(5.17047e-05 -0.000888017 0.0212275)
(-0.000199938 -0.00100409 0.023607)
(0.000271692 -0.00117675 0.0312683)
(0.000348824 -0.000732937 0.0278639)
(5.52999e-05 -0.00101104 0.0288262)
(0.000175317 -0.00112997 0.0290989)
(7.56147e-05 -0.000322025 0.0302801)
(0.000463218 -0.000631856 0.0272843)
(8.73064e-05 -0.000331898 0.0271673)
(9.59212e-06 -0.000847368 0.0287554)
(0.00171364 0.000229548 0.00641306)
(0.00120776 5.82325e-05 0.00585932)
(-0.000578334 -0.000303209 0.00549322)
(-0.00116145 -0.000211136 0.00761874)
(0.000633687 0.000348734 0.00803089)
(0.00133814 2.47811e-05 0.00708048)
(8.64208e-05 -0.000593419 0.00557482)
(-0.00102727 -0.000208534 0.00660379)
(0.000808365 0.000320758 0.00826778)
(0.00083909 0.00013202 0.00729806)
(5.84636e-05 -0.000641242 0.00697361)
(-0.000439039 -0.00034715 0.00723751)
(0.000678197 0.000185095 0.00821553)
(0.000807457 0.000129976 0.00725847)
(-1.16457e-05 0.000198227 0.0069659)
(-0.000457839 6.42938e-05 0.0072881)
(0.000879795 -3.95516e-05 0.0169265)
(0.000727447 9.23234e-06 0.0161277)
(6.57884e-05 -0.000149205 0.0155227)
(-0.000394209 -0.000271753 0.0167021)
(0.000488293 -6.68311e-05 0.0171733)
(0.000815783 -6.23423e-05 0.0164688)
(0.000317054 -0.00032981 0.0156107)
(-0.000315804 -0.000273037 0.0163328)
(0.000480369 9.59864e-05 0.0171259)
(0.000648563 7.71245e-05 0.0165642)
(0.000332133 -0.000246594 0.0161237)
(-0.000151651 -0.000216677 0.016417)
(0.000416869 0.000103709 0.0170214)
(0.000586234 7.09626e-05 0.0165156)
(0.000313731 -3.40643e-05 0.0161383)
(-6.39166e-05 -0.000173046 0.0163482)
(0.000393743 5.17919e-05 0.0136269)
(0.000252647 8.53328e-05 0.0133437)
(-5.92152e-05 -2.92374e-05 0.012931)
(-0.000272298 -0.000106244 0.013306)
(0.000262921 6.32444e-05 0.0139005)
(0.000269701 9.27437e-05 0.013599)
(-7.64516e-06 -6.88135e-05 0.0131368)
(-0.000295018 -4.416e-05 0.0133416)
(0.000234394 5.53491e-05 0.0140049)
(0.000234143 6.82794e-05 0.0137301)
(2.82125e-05 -8.96564e-05 0.0133869)
(-0.000221826 -3.15569e-05 0.0134152)
(0.000203993 5.67205e-05 0.0140225)
(0.000215144 5.81639e-05 0.0137755)
(4.29621e-05 -1.15341e-05 0.0134948)
(-0.00017071 1.29558e-05 0.0134588)
(0.000202577 8.33687e-06 0.0142238)
(0.000159647 3.61622e-05 0.0141602)
(5.00233e-05 -8.01706e-06 0.0139713)
(-8.32023e-05 -6.44151e-05 0.014178)
(0.000159718 6.95374e-06 0.0143516)
(0.000163233 3.21357e-05 0.014265)
(6.90658e-05 -4.1078e-05 0.0140798)
(-8.30032e-05 -5.28041e-05 0.0142245)
(0.00013968 2.46527e-05 0.0144477)
(0.000148624 3.91935e-05 0.0143548)
(7.62377e-05 -3.44955e-05 0.0142112)
(-6.48741e-05 -3.22153e-05 0.0142719)
(0.000122277 3.08278e-05 0.0144993)
(0.0001354 2.97423e-05 0.0144086)
(7.92103e-05 -2.13862e-05 0.0142906)
(-3.75743e-05 -3.41338e-05 0.0143011)
(9.77132e-05 6.61952e-06 0.0141456)
(7.16005e-05 2.20959e-05 0.0141102)
(1.9421e-05 4.25809e-07 0.0139745)
(-4.64576e-05 -2.70577e-05 0.01402)
(8.39412e-05 6.6385e-06 0.0142903)
(7.29394e-05 2.26156e-05 0.0142403)
(2.5199e-05 -1.23312e-05 0.014112)
(-4.97988e-05 -1.89917e-05 0.0141259)
(7.44039e-05 1.17524e-05 0.014391)
(6.93677e-05 2.10345e-05 0.0143348)
(3.00485e-05 -1.6054e-05 0.0142273)
(-3.9835e-05 -1.38365e-05 0.0142051)
(6.51686e-05 1.54214e-05 0.0144515)
(6.30775e-05 1.52153e-05 0.0143974)
(3.19586e-05 -1.32731e-05 0.0143112)
(-2.63557e-05 -1.48605e-05 0.0142664)
(4.9233e-05 3.57393e-06 0.0141459)
(3.69256e-05 1.1979e-05 0.014129)
(1.56271e-05 2.43937e-06 0.014052)
(-1.81231e-05 -1.24669e-05 0.0140634)
(4.42693e-05 3.39192e-06 0.0142803)
(3.63751e-05 1.18336e-05 0.0142535)
(1.69247e-05 -5.56936e-06 0.0141787)
(-1.95667e-05 -1.11896e-05 0.0141693)
(3.99549e-05 5.36028e-06 0.0143785)
(3.472e-05 1.01271e-05 0.014347)
(1.78494e-05 -7.99011e-06 0.0142814)
(-1.5656e-05 -9.16911e-06 0.0142523)
(3.49604e-05 7.45147e-06 0.0144424)
(3.14606e-05 7.06226e-06 0.0144122)
(1.76533e-05 -7.46357e-06 0.0143588)
(-9.94618e-06 -1.05863e-05 0.0143163)
(2.58835e-05 1.91198e-06 0.014149)
(1.93271e-05 6.39539e-06 0.0141344)
(9.47501e-06 2.17772e-06 0.0140826)
(-7.11555e-06 -4.88429e-06 0.0140698)
(2.38841e-05 1.73098e-06 0.014281)
(1.86559e-05 6.07861e-06 0.0142604)
(9.75463e-06 -2.05887e-06 0.0142078)
(-7.78001e-06 -5.03219e-06 0.0141805)
(2.18789e-05 2.65329e-06 0.014378)
(1.79075e-05 5.16684e-06 0.0143549)
(9.84427e-06 -3.43064e-06 0.0143068)
(-5.91367e-06 -4.70197e-06 0.0142678)
(1.93487e-05 3.92634e-06 0.0144429)
(1.63212e-05 3.53039e-06 0.0144216)
(9.35725e-06 -3.7741e-06 0.0143812)
(-3.51223e-06 -5.95296e-06 0.0143352)
(1.43032e-05 1.03028e-06 0.0141515)
(1.06919e-05 3.6139e-06 0.0141374)
(5.96818e-06 1.82525e-06 0.0140992)
(-2.19156e-06 -1.56088e-06 0.0140769)
(1.33924e-05 9.38736e-07 0.0142828)
(1.02002e-05 3.27872e-06 0.0142645)
(5.79573e-06 -5.19162e-07 0.0142232)
(-2.60377e-06 -2.18527e-06 0.0141887)
(1.2442e-05 1.52258e-06 0.0143791)
(9.83496e-06 2.66454e-06 0.0143597)
(5.66038e-06 -1.28921e-06 0.0143201)
(-1.80136e-06 -2.24523e-06 0.0142772)
(1.10411e-05 2.22167e-06 0.0144443)
(9.02186e-06 1.74798e-06 0.0144268)
(5.3446e-06 -1.81157e-06 0.0143924)
(-7.82959e-07 -3.14715e-06 0.0143454)
(8.30624e-06 6.57119e-07 0.014153)
(6.31876e-06 2.0999e-06 0.0141389)
(3.83423e-06 1.41829e-06 0.0141072)
(-2.44653e-07 -1.58803e-07 0.0140805)
(7.80459e-06 5.91684e-07 0.0142841)
(5.9415e-06 1.77781e-06 0.0142665)
(3.61112e-06 8.91581e-08 0.0142307)
(-5.21067e-07 -7.75805e-07 0.0141929)
(7.2925e-06 9.18755e-07 0.0143801)
(5.74927e-06 1.44082e-06 0.0143621)
(3.48851e-06 -3.289e-07 0.0143265)
(-1.44849e-07 -9.13496e-07 0.0142819)
(6.55538e-06 1.29548e-06 0.0144453)
(5.31943e-06 9.22565e-07 0.0144295)
(3.31923e-06 -8.04925e-07 0.0143978)
(3.03962e-07 -1.5763e-06 0.0143503)
(5.03086e-06 4.23189e-07 0.0141541)
(3.95134e-06 1.27829e-06 0.0141399)
(2.5782e-06 1.08384e-06 0.0141113)
(4.8599e-07 3.73451e-07 0.0140827)
(4.71073e-06 3.91277e-07 0.014285)
(3.68624e-06 1.01517e-06 0.0142678)
(2.39158e-06 2.98633e-07 0.0142345)
(3.00254e-07 -1.24899e-07 0.0141952)
(4.44744e-06 5.80353e-07 0.0143809)
(3.56647e-06 8.3457e-07 0.0143636)
(2.31083e-06 6.03187e-08 0.0143299)
(4.85132e-07 -2.52098e-07 0.0142844)
(4.07563e-06 7.43711e-07 0.0144461)
(3.34582e-06 5.08071e-07 0.0144311)
(2.23786e-06 -3.3343e-07 0.0144007)
(7.01106e-07 -7.40549e-07 0.0143529)
(3.16102e-06 2.83572e-07 0.0141547)
(2.57021e-06 8.15739e-07 0.0141405)
(1.78553e-06 8.15225e-07 0.0141134)
(6.75972e-07 5.13136e-07 0.014084)
(2.95121e-06 2.58808e-07 0.0142856)
(2.38296e-06 6.13859e-07 0.0142687)
(1.64451e-06 3.32575e-07 0.0142365)
(5.49816e-07 1.39714e-07 0.0141966)
(2.81745e-06 3.54353e-07 0.0143814)
(2.31503e-06 5.08003e-07 0.0143646)
(1.59976e-06 1.86403e-07 0.0143316)
(6.51717e-07 4.28256e-08 0.0142858)
(2.63719e-06 4.10976e-07 0.0144466)
(2.21104e-06 2.83143e-07 0.0144321)
(1.58322e-06 -1.22841e-07 0.0144022)
(7.73309e-07 -3.17609e-07 0.0143543)
(2.03343e-06 1.92302e-07 0.0141551)
(1.70732e-06 5.33123e-07 0.0141409)
(1.25009e-06 5.99261e-07 0.0141146)
(6.47723e-07 4.89588e-07 0.0140848)
(1.89273e-06 1.66916e-07 0.0142859)
(1.57506e-06 3.81936e-07 0.0142692)
(1.14916e-06 2.91813e-07 0.0142376)
(5.65726e-07 2.17378e-07 0.0141974)
(1.82883e-06 2.07125e-07 0.0143817)
(1.53979e-06 3.15822e-07 0.0143651)
(1.12581e-06 1.96058e-07 0.0143326)
(6.26367e-07 1.42487e-07 0.0142866)
(1.74578e-06 2.15698e-07 0.014447)
(1.49622e-06 1.56958e-07 0.0144327)
(1.13307e-06 -3.5173e-08 0.014403)
(7.00664e-07 -1.12193e-07 0.0143551)
(1.319e-06 1.26325e-07 0.0141553)
(1.13415e-06 3.47529e-07 0.0141412)
(8.67914e-07 4.26805e-07 0.0141152)
(5.38141e-07 4.05279e-07 0.0140853)
(1.22405e-06 1.00762e-07 0.0142862)
(1.0435e-06 2.37261e-07 0.0142695)
(7.99609e-07 2.2769e-07 0.0142382)
(4.88277e-07 2.12523e-07 0.0141979)
(1.19426e-06 1.16168e-07 0.014382)
(1.02659e-06 1.97847e-07 0.0143655)
(7.87455e-07 1.65571e-07 0.0143331)
(5.26655e-07 1.56151e-07 0.0142871)
(1.15966e-06 1.10814e-07 0.0144472)
(1.01255e-06 9.08206e-08 0.0144331)
(8.00952e-07 3.12156e-09 0.0144035)
(5.73384e-07 -1.25667e-08 0.0143556)
(8.5393e-07 8.08789e-08 0.0141555)
(7.48907e-07 2.25598e-07 0.0141414)
(5.96617e-07 2.97403e-07 0.0141156)
(4.16579e-07 3.13791e-07 0.0140856)
(7.93158e-07 5.92303e-08 0.0142863)
(6.90953e-07 1.49798e-07 0.0142698)
(5.53972e-07 1.71719e-07 0.0142385)
(3.89817e-07 1.84929e-07 0.0141982)
(7.80465e-07 6.63581e-08 0.0143821)
(6.85213e-07 1.28417e-07 0.0143657)
(5.4937e-07 1.32746e-07 0.0143335)
(4.16052e-07 1.4321e-07 0.0142875)
(7.69561e-07 6.39489e-08 0.0144474)
(6.84267e-07 6.27236e-08 0.0144333)
(5.62025e-07 2.59506e-08 0.0144039)
(4.46328e-07 3.77255e-08 0.0143559)
(5.72282e-07 5.46097e-08 0.0141555)
(5.14489e-07 1.52553e-07 0.0141416)
(4.26832e-07 2.14132e-07 0.0141158)
(3.24091e-07 2.4514e-07 0.0140858)
(5.40047e-07 4.18213e-08 0.0142864)
(4.84211e-07 1.07395e-07 0.0142699)
(4.07081e-07 1.42151e-07 0.0142388)
(3.16769e-07 1.66992e-07 0.0141984)
(5.38642e-07 4.7351e-08 0.0143822)
(4.86692e-07 9.69019e-08 0.0143659)
(4.09561e-07 1.17348e-07 0.0143337)
(3.38031e-07 1.35675e-07 0.0142877)
(5.39923e-07 5.05916e-08 0.0144475)
(4.92351e-07 6.06551e-08 0.0144335)
(4.21191e-07 5.25103e-08 0.0144041)
(3.59381e-07 7.31008e-08 0.0143561)
(4.71826e-07 4.92124e-08 0.0141556)
(4.36749e-07 1.30362e-07 0.0141417)
(3.73947e-07 1.91193e-07 0.014116)
(2.97389e-07 2.29423e-07 0.014086)
(4.68812e-07 5.45881e-08 0.0142864)
(4.35639e-07 1.16863e-07 0.01427)
(3.7846e-07 1.62649e-07 0.014239)
(3.09079e-07 1.94082e-07 0.0141986)
(4.77868e-07 6.63978e-08 0.0143823)
(4.47283e-07 1.13808e-07 0.014366)
(3.93025e-07 1.46513e-07 0.0143339)
(3.34842e-07 1.72906e-07 0.0142879)
(4.89292e-07 7.5974e-08 0.0144475)
(4.59763e-07 1.00279e-07 0.0144336)
(4.08926e-07 1.16275e-07 0.0144042)
(3.5794e-07 1.41354e-07 0.0143563)
(0.00458624 0.000705018 0.0320358)
(0.00293096 -0.0018414 0.0221875)
(0.00359479 -0.00120088 0.015649)
(0.00578475 0.00156578 0.0306113)
(0.000714025 0.000561328 0.0248066)
(0.00176959 0.00119941 0.0117457)
(0.0025353 -0.000525997 0.0021714)
(0.00485357 -0.000479597 0.0157713)
(0.00160919 0.000481008 0.0131651)
(0.00462493 -0.000273702 0.0166039)
(0.00283329 0.00257893 0.0270499)
(0.000246351 0.000214774 0.0188012)
(-0.000546785 0.000313224 0.00510891)
(0.00299554 -0.0011389 0.0151115)
(0.00495205 -0.00146296 0.0263885)
(0.000368774 0.000253303 0.0302993)
(0.000561042 0.000410056 0.00441041)
(0.000532925 0.0033765 0.0301721)
(0.000673287 0.00332218 0.0211033)
(0.00110507 0.00274108 0.0224606)
(0.00202777 0.00143907 0.0176726)
(0.00361548 0.000329008 0.0193194)
(0.00310312 0.00322446 0.0394812)
(0.00211485 0.00618997 0.0543349)
(0.00296567 0.00148039 0.0185115)
(0.0027613 0.000713806 0.0552971)
(0.00165023 -0.000291407 0.0278872)
(0.000535842 0.00379426 0.0374835)
(0.00397054 -0.0025282 0.0342126)
(0.0012568 -0.000943358 0.00452368)
(0.00624017 0.000429235 0.0376672)
(0.00138337 0.000754978 0.0117779)
(0.000711082 0.00182783 0.0573907)
(9.61503e-05 0.00192846 0.0335664)
(0.000379348 0.000406606 0.0102863)
(0.00148224 -0.00209288 0.0383758)
(0.000773797 0.00134704 0.0347713)
(0.000466508 -0.000110017 0.0260191)
(-0.000250629 0.00607896 0.032471)