/*--------------------------------*- C++ -*----------------------------------*\
| =========                 |                                                 |
| \\      /  F ield         | OpenFOAM: The Open Source CFD Toolbox           |
|  \\    /   O peration     | Version:  2506                                  |
|   \\  /    A nd           | Website:  www.openfoam.com                      |
|    \\/     M anipulation  |                                                 |
\*---------------------------------------------------------------------------*/
FoamFile
{
    version     2.0;
    format      ascii;
    arch        "LSB;label=32;scalar=64";
    class       volScalarField;
    location    "0.07";
    object      voidfraction;
}
// * * * * * * * * * * * * * * * * * * * * * * * * * * * * * * * * * * * * * //

dimensions      [0 0 0 0 0 0 0];

internalField   nonuniform List<scalar> 
1152
(
0.539164
0.462797
0.460163
0.428563
0.44173
0.468063
0.38643
0.42593
0.452263
0.43383
0.40223
0.494397
0.41013
0.44173
0.510197
0.515464
0.43383
0.381163
0.41803
0.396963
0.415396
0.39433
0.375896
0.41803
0.436463
0.415396
0.420663
0.41013
0.404863
0.375896
0.328496
0.42593
0.470697
0.383796
0.389063
0.339029
0.378529
0.407496
0.396963
0.439097
0.378529
0.389063
0.420663
0.357463
0.40223
0.454897
0.470697
0.41013
0.38643
0.423296
0.365363
0.383796
0.328496
0.365363
0.454897
0.436463
0.444363
0.383796
0.40223
0.362729
0.339029
0.381163
0.431196
0.341663
0.412763
0.404863
0.41803
0.41013
0.407496
0.357463
0.370629
0.404863
0.415396
0.439097
0.360096
0.412763
0.462797
0.299529
0.446997
0.423296
0.375896
0.420663
0.40223
0.452263
0.47333
0.370629
0.40223
0.346929
0.399596
0.444363
0.399596
0.378529
0.44963
0.378529
0.439097
0.439097
0.694531
0.715598
0.618164
0.712965
0.670831
0.618164
0.649764
0.570764
0.610264
0.702431
0.636598
0.676098
0.470697
0.623431
0.794599
0.752465
1
1
1
1
1
1
1
1
1
1
1
1
0.997367
1
1
1
1
1
1
1
1
1
1
1
1
1
1
1
1
1
1
1
1
1
1
1
1
1
1
1
1
1
1
1
1
1
1
1
1
1
1
1
1
1
1
1
1
1
1
1
1
1
1
1
1
1
1
1
1
1
1
1
1
1
1
1
1
1
1
1
1
1
1
1
1
1
1
1
1
1
1
1
1
1
1
1
1
1
1
1
1
1
1
1
1
1
1
1
1
1
1
1
1
1
1
1
1
1
1
1
1
1
1
1
1
1
1
1
1
1
1
1
1
1
1
1
1
1
1
1
1
1
1
1
1
1
1
1
1
1
1
1
1
1
1
1
1
1
1
1
1
1
1
1
1
1
1
1
1
1
1
1
1
1
1
1
1
1
1
1
1
1
1
1
1
1
1
1
1
1
1
1
1
1
1
1
1
1
1
1
1
1
1
1
1
1
1
1
1
1
1
1
1
1
1
1
1
1
1
1
1
1
1
1
1
1
1
1
1
1
1
1
1
1
1
1
1
1
1
1
1
1
1
1
1
1
1
1
1
1
1
1
1
1
1
1
1
1
1
1
1
1
1
1
1
1
1
1
1
1
1
1
0.529317
0.435909
0.426012
0.482022
0.446126
0.486223
0.53713
0.430693
0.473797
0.399331
0.490341
0.514015
0.486298
0.447793
0.473631
0.391038
0.421937
0.441626
0.419489
0.473928
0.42041
0.441822
0.429939
0.412129
0.425157
0.411202
0.443252
0.426973
0.433675
0.401776
0.383763
0.421705
0.395092
0.41304
0.423838
0.433461
0.368979
0.388964
0.422631
0.461634
0.378727
0.399331
0.410014
0.390705
0.3159
0.40719
0.386972
0.483039
0.348561
0.411135
0.402096
0.490115
0.335351
0.427022
0.429939
0.35953
0.449477
0.430195
0.401704
0.387079
0.383558
0.361172
0.390182
0.386657
0.391513
0.449249
0.428186
0.414576
0.414476
0.384736
0.393397
0.384283
0.425157
0.323357
0.440483
0.387079
0.378546
0.420724
0.351667
0.44361
0.35035
0.45306
0.40427
0.444252
0.471841
0.429136
0.429939
0.430693
0.398625
0.43257
0.404474
0.416093
0.403605
0.382827
0.415858
0.35599
0.692177
0.575026
0.578206
0.678961
0.723063
0.695539
0.554183
0.563738
0.76343
0.724594
0.681463
0.727993
0.802037
0.702241
0.717558
0.649518
1
1
1
1
1
1
1
1
1
1
1
1
1
1
1
1
1
1
1
1
1
1
1
1
1
1
1
1
1
1
1
1
1
1
1
1
1
1
1
1
1
1
1
1
1
1
1
1
1
1
1
1
1
1
1
1
1
1
1
1
1
1
1
1
1
1
1
1
1
1
1
1
1
1
1
1
1
1
1
1
1
1
1
1
1
1
1
1
1
1
1
1
1
1
1
1
1
1
1
1
1
1
1
1
1
1
1
1
1
1
1
1
1
1
1
1
1
1
1
1
1
1
1
1
1
1
1
1
1
1
1
1
1
1
1
1
1
1
1
1
1
1
1
1
1
1
1
1
1
1
1
1
1
1
1
1
1
1
1
1
1
1
1
1
1
1
1
1
1
1
1
1
1
1
1
1
1
1
1
1
1
1
1
1
1
1
1
1
1
1
1
1
1
1
1
1
1
1
1
1
1
1
1
1
1
1
1
1
1
1
1
1
1
1
1
1
1
1
1
1
1
1
1
1
1
1
1
1
1
1
1
1
1
1
1
1
1
1
1
1
1
1
1
1
1
1
1
1
1
1
1
1
1
1
1
1
1
1
1
1
1
1
1
1
1
1
1
1
1
1
1
1
0.474277
0.445107
0.452352
0.525186
0.454373
0.418323
0.354418
0.47167
0.40719
0.451563
0.475651
0.4664
0.353487
0.387571
0.473819
0.450572
0.364752
0.412466
0.421411
0.419972
0.393391
0.410014
0.451865
0.515154
0.396362
0.491924
0.420679
0.42638
0.41864
0.343352
0.428323
0.366457
0.496182
0.419719
0.334778
0.428065
0.425487
0.398934
0.425067
0.412967
0.412603
0.354222
0.433365
0.37302
0.426158
0.394203
0.376891
0.470258
0.369133
0.419719
0.365718
0.449648
0.361296
0.376775
0.439684
0.406444
0.40719
0.41595
0.346678
0.474023
0.416134
0.414102
0.367001
0.377195
0.364752
0.437853
0.340966
0.363318
0.40623
0.415554
0.429939
0.426012
0.393655
0.392208
0.469308
0.3997
0.386064
0.411891
0.434257
0.493524
0.35599
0.4306
0.337872
0.495511
0.419068
0.393394
0.454301
0.386876
0.418017
0.375589
0.410107
0.397795
0.38857
0.418524
0.386782
0.377195
0.719615
0.640951
0.709159
0.714033
0.659786
0.609446
0.702789
0.839109
0.623741
0.76733
0.803369
0.727483
0.694285
0.723633
0.853619
0.808505
1
1
1
1
1
1
1
1
1
1
1
1
1
1
1
1
1
1
1
1
1
1
1
1
1
1
1
1
1
1
1
1
1
1
1
1
1
1
1
1
1
1
1
1
1
1
1
1
1
1
1
1
1
1
1
1
1
1
1
1
1
1
1
1
1
1
1
1
1
1
1
1
1
1
1
1
1
1
1
1
1
1
1
1
1
1
1
1
1
1
1
1
1
1
1
1
1
1
1
1
1
1
1
1
1
1
1
1
1
1
1
1
1
1
1
1
1
1
1
1
1
1
1
1
1
1
1
1
1
1
1
1
1
1
1
1
1
1
1
1
1
1
1
1
1
1
1
1
1
1
1
1
1
1
1
1
1
1
1
1
1
1
1
1
1
1
1
1
1
1
1
1
1
1
1
1
1
1
1
1
1
1
1
1
1
1
1
1
1
1
1
1
1
1
1
1
1
1
1
1
1
1
1
1
1
1
1
1
1
1
1
1
1
1
1
1
1
1
1
1
1
1
1
1
1
1
1
1
1
1
1
1
1
1
1
1
1
1
1
1
1
1
1
1
1
1
1
1
1
1
1
1
1
1
1
1
1
1
1
1
1
1
1
1
1
1
1
1
1
1
1
1
)
;

boundaryField
{
    inlet
    {
        type            fixedValue;
        value           uniform 1;
    }
    outlet
    {
        type            fixedValue;
        value           uniform 1;
    }
    wall
    {
        type            zeroGradient;
    }
    procBoundary1to0
    {
        type            processor;
        value           nonuniform List<scalar> 
192
(
0.383796
0.391696
0.42593
0.42593
0.320596
0.38643
0.360096
0.365363
0.294262
0.431196
0.452263
0.373263
0.462797
0.439097
0.331129
0.494397
0.40223
0.349563
0.468063
0.367996
0.43383
0.47333
0.460163
0.352196
0.594464
0.544431
0.686631
0.581297
1
1
1
1
1
1
1
1
1
1
1
1
1
1
1
1
1
1
1
1
1
1
1
1
1
1
1
1
1
1
1
1
1
1
1
1
1
1
1
1
1
1
1
1
1
1
1
1
1
1
1
1
1
1
1
1
1
1
1
1
1
1
1
1
1
1
1
1
0.391513
0.416454
0.476008
0.368523
0.448782
0.454038
0.40968
0.46124
0.443413
0.428323
0.372094
0.431169
0.477417
0.414476
0.434
0.386064
0.455941
0.408541
0.36325
0.436181
0.475627
0.402607
0.440633
0.453722
0.62059
0.634047
0.772274
0.676744
1
1
1
1
1
1
1
1
1
1
1
1
1
1
1
1
1
1
1
1
1
1
1
1
1
1
1
1
1
1
1
1
1
1
1
1
1
1
1
1
1
1
1
1
1
1
1
1
1
1
1
1
1
1
1
1
1
1
1
1
1
1
1
1
1
1
1
1
)
;
    }
    procBoundary1to3
    {
        type            processor;
        value           nonuniform List<scalar> 
192
(
0.570764
0.41803
0.415396
0.339029
0.51283
0.41803
0.46543
0.444363
0.354829
0.357463
0.375896
0.428563
0.267929
0.370629
0.444363
0.399596
0.331129
0.499664
0.378529
0.339029
0.48913
0.415396
0.404863
0.428563
0.486497
0.525997
0.562864
0.683998
1
1
1
1
1
1
1
1
1
1
1
1
1
1
1
1
1
1
1
1
1
1
1
1
1
1
1
1
1
1
1
1
1
1
1
1
1
1
1
1
1
1
1
1
1
1
1
1
1
1
1
1
1
1
1
1
1
1
1
1
1
1
1
1
1
1
1
1
0.488804
0.522438
0.416454
0.438044
0.393581
0.36325
0.479754
0.464889
0.383558
0.325664
0.418432
0.448782
0.426158
0.434
0.459973
0.473837
0.41864
0.387571
0.382826
0.398671
0.453722
0.442844
0.469863
0.414778
0.659203
0.69268
0.693391
0.643856
1
1
1
1
1
1
1
1
1
1
1
1
1
1
1
1
1
1
1
1
1
1
1
1
1
1
1
1
1
1
1
1
1
1
1
1
1
1
1
1
1
1
1
1
1
1
1
1
1
1
1
1
1
1
1
1
1
1
1
1
1
1
1
1
1
1
1
1
)
;
    }
}


// ************************************************************************* //
