FoamFile
{version 2.0; format ascii;class Cloud<passiveParticle>; location 0;object  positions;}
2510
(
( 0.00589007 1.69393e-06 0.000496868 ) 0 
( 0.00232219 0.000202554 0.000499053 ) 0 
( 0.00114083 0.000119505 0.00701919 ) 0 
( 0.00902392 1.85687e-05 0.00564877 ) 0 
( 0.00927338 0.000140252 0.00468927 ) 0 
( 0.0124783 5.08813e-05 0.0004985 ) 0 
( 0.000890536 0.000652336 0.00150547 ) 0 
( 0.00682681 0.00018019 0.00180769 ) 0 
( 0.00998177 0.000161345 0.0054001 ) 0 
( 0.00919217 0.000312391 0.0105119 ) 0 
( 0.0123907 0.000212503 0.0142894 ) 0 
( 0.00115558 0.000106512 0.0138236 ) 0 
( 0.00255277 0.000497827 0.0146452 ) 0 
( 0.00573844 0.00136619 0.0147017 ) 0 
( 0.00664659 0.00103172 0.014451 ) 0 
( 0.00892766 0.000260099 0.0133555 ) 0 
( 0.00946516 0.000505243 0.0145826 ) 0 
( 0.0113696 8.42461e-05 0.012998 ) 0 
( 0.0133362 0.0006124 0.0079647 ) 0 
( 0.00462267 0.000714883 0.0147926 ) 0 
( 0.00940801 0.00186232 0.014595 ) 0 
( 0.0100239 0.000402983 0.0110587 ) 0 
( 0.00790191 5.76482e-05 0.00910923 ) 0 
( 0.00754232 0.00638033 0.0155583 ) 0 
( 0.00351002 0.00802156 0.0156878 ) 0 
( 0.00842636 0.000276197 0.0149078 ) 0 
( 0.00202933 0.000785116 0.0129398 ) 0 
( 0.00214458 0.00024027 0.01377 ) 0 
( 0.011934 0.00106344 0.014031 ) 0 
( 0.0114869 0.000276436 0.0147122 ) 0 
( 0.0104896 4.3713e-05 0.0144764 ) 0 
( 0.00236699 0.000171739 0.00900837 ) 0 
( 0.0034718 0.00374397 0.00260255 ) 0 
( 0.00174234 0.00543732 0.00788639 ) 0 
( 0.000224592 0.0127741 0.0056418 ) 0 
( 0.00708071 0.00504381 0.00213992 ) 0 
( 0.00678805 0.00474187 0.00526441 ) 0 
( 0.008967 0.00551808 0.00668278 ) 0 
( 0.000329158 0.0133126 0.00352151 ) 0 
( 0.00616823 0.00339952 0.00424913 ) 0 
( 0.00548832 0.0121477 0.00460958 ) 0 
( 0.0103041 0.00530526 0.00557784 ) 0 
( 0.000906797 0.00735167 0.00446231 ) 0 
( 0.00713116 0.0103256 0.000499415 ) 0 
( 0.00635388 0.00976913 0.0016281 ) 0 
( 0.00223429 0.0122936 0.00395305 ) 0 
( 0.00188619 0.00315225 0.000498345 ) 0 
( 0.00442152 0.00760115 0.00190103 ) 0 
( 0.0107328 0.00371398 0.00376828 ) 0 
( 0.011299 0.00536531 0.00562467 ) 0 
( 0.00473079 0.00334799 0.00405052 ) 0 
( 0.00825454 0.00272583 0.00671743 ) 0 
( 0.00874062 0.00267835 0.00479997 ) 0 
( 0.00261825 0.0100648 0.00622693 ) 0 
( 0.00724495 0.00683476 0.00118475 ) 0 
( 0.00670645 0.00468942 0.00406687 ) 0 
( 0.00551035 0.0076571 0.00319619 ) 0 
( 0.00373809 0.0128163 0.00568158 ) 0 
( 0.0025154 0.00796416 0.00304868 ) 0 
( 0.0116737 0.00436844 0.000497332 ) 0 
( 0.00112622 0.00226452 0.00322144 ) 0 
( 0.00529211 0.00687532 0.00451597 ) 0 
( 0.0109988 0.00372533 0.000858007 ) 0 
( 0.00933607 0.00222547 0.00413841 ) 0 
( 0.0027545 0.00148425 0.00621719 ) 0 
( 0.00684073 0.000173981 0.0083052 ) 0 
( 0.000901852 0.00609228 0.00468583 ) 0 
( 0.00184568 0.00812949 0.0077795 ) 0 
( 0.00154702 0.00797185 0.00280271 ) 0 
( 0.00905326 0.00979517 0.0041854 ) 0 
( 0.0128482 0.00362884 0.00653282 ) 0 
( 0.0025619 0.00710129 0.00132001 ) 0 
( 0.00993475 0.00322591 0.00541081 ) 0 
( 0.0027795 0.000672294 0.00126122 ) 0 
( 0.0071924 0.00570999 0.00568279 ) 0 
( 0.00579369 0.00469296 0.00565594 ) 0 
( 0.000749942 0.000337985 0.0024441 ) 0 
( 0.00121254 0.00588653 0.00561248 ) 0 
( 0.00874328 0.00128826 0.00683349 ) 0 
( 0.00139217 0.0118909 0.00430997 ) 0 
( 0.00295389 0.00800425 0.00394642 ) 0 
( 0.00746279 0.00212597 0.00544113 ) 0 
( 0.00901024 0.0098523 0.0076636 ) 0 
( 0.0121262 0.00412526 0.00220802 ) 0 
( 0.00570701 0.00823939 0.0064423 ) 0 
( 0.00292594 0.00707231 0.00286099 ) 0 
( 0.00806788 0.000569898 0.00716195 ) 0 
( 0.0100124 0.00527453 0.00311501 ) 0 
( 0.000352884 0.00376049 0.00616922 ) 0 
( 0.00274307 0.00101242 0.00533601 ) 0 
( 0.00396625 0.0101175 0.0031662 ) 0 
( 0.003572 0.00215713 0.00194124 ) 0 
( 0.00580807 0.0050783 0.00358406 ) 0 
( 0.0082726 0.00136909 0.00772467 ) 0 
( 0.00313525 0.01242 0.00498993 ) 0 
( 0.00133785 0.00885698 0.00321797 ) 0 
( 0.000927675 0.0123487 0.00506732 ) 0 
( 0.00583711 0.00412294 0.00307154 ) 0 
( 0.00774828 0.00290346 0.00488147 ) 0 
( 0.00188676 0.00998974 0.000499502 ) 0 
( 0.00906926 0.00849471 0.00401172 ) 0 
( 0.00491431 0.00496389 0.00798843 ) 0 
( 0.00935934 6.11485e-05 0.00232353 ) 0 
( 0.00477259 0.00724569 0.00697582 ) 0 
( 0.00223683 0.00522991 0.00704294 ) 0 
( 0.0102119 0.00851811 0.00373384 ) 0 
( 0.00473532 0.00120974 0.00587567 ) 0 
( 0.00694084 0.00362815 0.00742564 ) 0 
( 0.00695578 0.00669451 0.00414675 ) 0 
( 0.00077186 0.00775124 0.00640829 ) 0 
( 0.00641597 0.00641672 0.00207121 ) 0 
( 0.000659319 0.00287974 0.00258821 ) 0 
( 0.0118744 0.00610544 0.00596793 ) 0 
( 0.000936902 0.00127746 0.00469529 ) 0 
( 0.00709568 0.0102229 0.00708916 ) 0 
( 0.00105885 0.00295123 0.00167644 ) 0 
( 0.00798515 0.010699 0.00205023 ) 0 
( 0.00457177 0.00343523 0.00590492 ) 0 
( 0.0036456 0.0114116 0.00703763 ) 0 
( 0.0111048 0.00130803 0.00432345 ) 0 
( 0.000762161 0.0133287 0.000499106 ) 0 
( 0.00219226 0.000660572 0.0060924 ) 0 
( 0.000508435 0.00912848 0.00273017 ) 0 
( 0.0067346 0.000701502 0.000499049 ) 0 
( 0.00499091 0.001975 0.0064644 ) 0 
( 0.00336944 0.00512507 0.00128913 ) 0 
( 0.000909789 0.00457777 0.00603487 ) 0 
( 0.000910339 0.00339279 0.000497917 ) 0 
( 0.0114667 0.00291199 0.00049919 ) 0 
( 0.00472731 0.0115117 0.00593179 ) 0 
( 0.00320205 0.00567596 0.00718671 ) 0 
( 0.00271317 0.00115779 0.00307292 ) 0 
( 0.00840578 0.00248401 0.00132199 ) 0 
( 0.0064624 0.00667404 0.00573337 ) 0 
( 0.0122646 0.00527431 0.00369295 ) 0 
( 0.00248232 0.0113929 0.00294045 ) 0 
( 0.0045636 0.00112849 0.00219276 ) 0 
( 0.0026003 0.0112106 0.000497005 ) 0 
( 0.01235 0.00507139 0.00466744 ) 0 
( 0.000877729 0.00795816 0.0020191 ) 0 
( 0.00455896 0.00913829 0.00497472 ) 0 
( 0.00268202 0.0054531 0.00441413 ) 0 
( 0.00324984 0.0093816 0.00304602 ) 0 
( 0.00488454 0.00942845 0.00255511 ) 0 
( 0.00368815 0.00961701 0.00507167 ) 0 
( 0.00315577 0.00434463 0.00187181 ) 0 
( 0.00640422 0.0107395 0.00545885 ) 0 
( 0.0110897 0.0074209 0.00478799 ) 0 
( 0.00711207 0.00104217 0.00222343 ) 0 
( 0.00706641 0.00853434 0.00385497 ) 0 
( 0.0108979 0.00532322 0.00138973 ) 0 
( 0.00942628 0.00817614 0.00488783 ) 0 
( 0.0129444 0.00327353 0.00239377 ) 0 
( 0.000431233 0.00900534 0.00371804 ) 0 
( 0.0039225 0.0127029 0.000498641 ) 0 
( 0.00874011 0.0100827 0.00226416 ) 0 
( 0.00200047 0.00907883 0.00120141 ) 0 
( 0.00613533 0.00537587 0.00457053 ) 0 
( 0.00683176 0.00383008 0.00485827 ) 0 
( 0.00792162 0.00723715 0.0020653 ) 0 
( 0.000393931 0.0106932 0.00658743 ) 0 
( 3.54401e-05 0.00172531 0.00626932 ) 0 
( 0.0124332 0.00432442 0.00532523 ) 0 
( 0.0104366 0.00189665 0.00145337 ) 0 
( 0.0120016 0.000868857 0.000814543 ) 0 
( 0.0111719 0.00195817 0.000498949 ) 0 
( 0.00557509 0.000817324 0.00722414 ) 0 
( 0.00877151 0.000439189 0.00387686 ) 0 
( 0.010007 0.00201885 0.00234616 ) 0 
( 0.00176569 0.007841 0.0065392 ) 0 
( 0.00810211 0.00868941 0.00360029 ) 0 
( 0.00863726 0.00635468 0.00233364 ) 0 
( 0.00652328 0.00279517 0.00596085 ) 0 
( 0.00597537 0.0039988 0.00149545 ) 0 
( 0.00071033 0.00313446 0.00547916 ) 0 
( 0.00860108 0.0044656 0.00507205 ) 0 
( 0.00227273 0.0123073 0.000506244 ) 0 
( 0.0122162 0.00455507 0.00131244 ) 0 
( 0.00625693 0.00343373 0.00668116 ) 0 
( 0.00457983 0.00806152 0.00751995 ) 0 
( 0.00891983 0.00751834 0.00416587 ) 0 
( 0.00607297 0.00221482 0.00393352 ) 0 
( 0.000983885 0.0041698 0.00418824 ) 0 
( 0.0105055 0.00675172 0.00267533 ) 0 
( 0.00402477 0.00362628 0.00694035 ) 0 
( 0.000284021 0.00452279 0.0068128 ) 0 
( 0.00359588 0.00540571 0.00365506 ) 0 
( 0.0119725 0.00117208 0.00384752 ) 0 
( 0.00220473 0.00138567 0.0043963 ) 0 
( 0.0085457 0.00898741 0.00168612 ) 0 
( 0.00314255 0.0109121 0.00373971 ) 0 
( 0.00235895 0.0122305 0.00644979 ) 0 
( 0.0103882 0.00838686 0.0014167 ) 0 
( 0.00268789 0.00415715 0.00306426 ) 0 
( 0.000729927 0.0119576 0.00299857 ) 0 
( 0.00161086 0.00616139 0.00312176 ) 0 
( 0.00371281 0.00278886 0.00276119 ) 0 
( 0.0051104 0.000136922 0.00560121 ) 0 
( 0.00645246 0.000296448 0.00725491 ) 0 
( 0.00754914 0.000695084 0.00134624 ) 0 
( 0.0100069 0.00532415 0.00049861 ) 0 
( 0.00650202 0.00484606 0.00134781 ) 0 
( 0.00177698 0.0123512 0.00144738 ) 0 
( 0.00631459 0.0117646 0.00238376 ) 0 
( 0.00434205 0.00876289 0.00310424 ) 0 
( 0.00514215 0.0113768 0.00375682 ) 0 
( 0.00315894 0.0103964 0.00461602 ) 0 
( 0.00300333 0.0111359 0.00197762 ) 0 
( 0.00386971 0.00600827 0.00652101 ) 0 
( 0.00986293 0.00706857 0.00597713 ) 0 
( 0.00459983 0.00303373 0.00499012 ) 0 
( 0.0032207 0.0119928 0.000499589 ) 0 
( 0.00267775 0.00422019 0.00406152 ) 0 
( 0.00465451 0.00955735 0.00362421 ) 0 
( 0.00395247 0.00352163 0.00344923 ) 0 
( 0.00944698 0.00100756 0.00569421 ) 0 
( 0.00398963 0.0108752 0.00433298 ) 0 
( 0.00476504 0.00436111 0.000498589 ) 0 
( 0.00341605 0.00839612 0.0030226 ) 0 
( 0.00340839 0.00775102 0.00225617 ) 0 
( 0.00809684 0.00523613 0.00723442 ) 0 
( 0.00738185 0.00839728 0.00670488 ) 0 
( 0.00283201 0.00237588 0.00442882 ) 0 
( 0.000244127 0.00159423 0.00750028 ) 0 
( 0.00701984 0.00831807 0.0056807 ) 0 
( 0.00926001 0.00961824 0.00514628 ) 0 
( 0.0107206 0.000810723 0.00695123 ) 0 
( 0.00408025 0.00281639 0.00752248 ) 0 
( 0.0108998 0.00270814 0.00668744 ) 0 
( 0.00399165 0.011029 0.00207559 ) 0 
( 0.00566642 0.000147653 0.00379425 ) 0 
( 0.00803237 0.00976152 0.00108284 ) 0 
( 0.00683451 0.00891076 0.00192392 ) 0 
( 0.00510968 0.005675 0.00133695 ) 0 
( 0.00695496 0.00229564 0.00440589 ) 0 
( 0.00303074 0.00174774 0.00120729 ) 0 
( 0.000256542 0.00655572 0.00408124 ) 0 
( 0.00357997 0.0119604 0.00165617 ) 0 
( 0.00329149 0.00389387 0.00764833 ) 0 
( 0.0106529 0.00632855 0.00744121 ) 0 
( 0.00480457 0.00563472 0.00228748 ) 0 
( 0.00317961 0.000574439 0.0062232 ) 0 
( 0.000538739 0.0026277 0.00634144 ) 0 
( 0.0120208 0.0037444 0.00456703 ) 0 
( 0.00891587 0.00735154 0.00515168 ) 0 
( 0.00528465 0.00675165 0.00253136 ) 0 
( 0.0100684 0.00247279 0.00477028 ) 0 
( 0.0074913 0.0075158 0.000496564 ) 0 
( 0.00195204 0.00802094 0.00395872 ) 0 
( 0.0114649 6.00433e-05 0.0014594 ) 0 
( 0.00160078 0.00348288 0.00456656 ) 0 
( 0.00636738 0.00802415 0.00498263 ) 0 
( 0.00359925 0.00131248 0.00263616 ) 0 
( 0.0081646 0.00432253 0.00683658 ) 0 
( 0.0133181 0.00093358 0.00421026 ) 0 
( 0.00279393 0.0130566 0.0021801 ) 0 
( 0.0105131 0.0037234 0.00476528 ) 0 
( 0.00975146 0.00430619 0.000498422 ) 0 
( 0.00442999 0.00534582 0.00720202 ) 0 
( 0.0094971 0.00883639 0.0014253 ) 0 
( 0.00672832 0.00501145 0.00622464 ) 0 
( 0.0106559 0.00628885 0.00147891 ) 0 
( 0.00440757 0.00386554 0.00152626 ) 0 
( 0.00193019 0.00705056 0.00279644 ) 0 
( 0.00301368 0.00468704 0.00496054 ) 0 
( 0.0133499 5.4902e-05 0.00136262 ) 0 
( 0.00516886 0.00357006 0.000951931 ) 0 
( 0.00604597 0.00835694 0.00218811 ) 0 
( 0.00555068 0.0121415 0.00560725 ) 0 
( 0.00111046 0.00928029 0.00194822 ) 0 
( 0.00924966 0.00922976 0.00235257 ) 0 
( 0.00215346 0.010787 0.00366018 ) 0 
( 0.00201205 0.011306 0.00616763 ) 0 
( 0.00449273 0.011623 0.00142651 ) 0 
( 0.0017822 0.00504552 0.00617123 ) 0 
( 0.00800972 0.00794991 0.00426701 ) 0 
( 0.00125842 0.0099773 0.00477972 ) 0 
( 0.0031207 0.00726813 0.00468931 ) 0 
( 0.00167668 0.000750001 0.00524076 ) 0 
( 0.0133505 9.60991e-05 0.00551479 ) 0 
( 0.0035154 0.000588192 0.00194939 ) 0 
( 0.0118724 0.00179538 0.00187179 ) 0 
( 0.0104415 6.13464e-05 0.00310393 ) 0 
( 0.00231729 0.000430431 0.00363065 ) 0 
( 0.00727037 0.00765127 0.0033766 ) 0 
( 0.00866563 0.00812775 0.0021809 ) 0 
( 0.0112418 0.00526278 0.00375082 ) 0 
( 0.00400343 0.00792315 0.00367819 ) 0 
( 0.00450175 0.0119629 0.00300333 ) 0 
( 0.00988449 0.00039002 0.00730124 ) 0 
( 0.00965458 0.00800918 0.00233254 ) 0 
( 0.00429386 0.00627865 0.000498006 ) 0 
( 0.0040176 0.00902602 0.00580613 ) 0 
( 0.0111433 0.00449613 0.00484051 ) 0 
( 0.01334 0.000554005 0.000498399 ) 0 
( 0.00177568 0.00547432 0.00382935 ) 0 
( 0.00795292 0.00519108 0.00529846 ) 0 
( 4.09454e-05 0.00401074 0.00447732 ) 0 
( 0.00167928 0.00336427 0.00555566 ) 0 
( 0.000394605 0.00131817 0.00208018 ) 0 
( 0.000648086 0.011558 0.00049978 ) 0 
( 0.00505253 0.00841163 0.00374254 ) 0 
( 0.0100347 0.00342744 0.0030808 ) 0 
( 0.000409993 0.0121917 0.00643244 ) 0 
( 0.00862444 0.00906033 0.00049977 ) 0 
( 0.00869928 0.000452265 0.00140568 ) 0 
( 0.00222916 0.00184389 0.00698766 ) 0 
( 0.00759606 0.00859234 0.00491101 ) 0 
( 0.00180572 0.00394744 0.00365556 ) 0 
( 0.000144144 0.0095794 0.00542563 ) 0 
( 0.0012609 0.00330872 0.00646205 ) 0 
( 0.00392929 0.00515483 0.00213066 ) 0 
( 0.000905521 0.000959634 0.00789785 ) 0 
( 0.00318221 0.00663469 0.00615174 ) 0 
( 0.00177523 0.0132144 0.00535776 ) 0 
( 0.00705512 0.00766696 0.00435232 ) 0 
( 0.00648592 0.000998964 0.00584428 ) 0 
( 0.00250973 0.00377963 0.00136292 ) 0 
( 0.0081717 0.00601116 0.00632506 ) 0 
( 0.00560884 0.00175355 0.00469754 ) 0 
( 0.0010201 0.0106407 0.0054862 ) 0 
( 0.00770655 0.00130891 0.00487094 ) 0 
( 0.0057384 0.00303042 0.00156678 ) 0 
( 0.00652564 0.0018192 0.0052753 ) 0 
( 0.00222196 0.0104985 0.00703425 ) 0 
( 0.00202011 0.00265683 0.00493821 ) 0 
( 0.0110485 0.00749428 0.00713697 ) 0 
( 0.00698773 0.0020085 0.00201114 ) 0 
( 6.64127e-05 0.00500565 0.00794221 ) 0 
( 0.00201366 0.00994182 0.00543323 ) 0 
( 0.00737563 0.0107432 0.00385603 ) 0 
( 0.00166181 0.000837776 0.000897599 ) 0 
( 0.000809149 0.00584719 0.000499783 ) 0 
( 0.00104908 0.00163103 0.0013791 ) 0 
( 0.0073657 0.00276237 0.00254646 ) 0 
( 0.00127902 0.00914709 0.00422642 ) 0 
( 0.00110839 0.0096296 0.00101271 ) 0 
( 0.00813147 0.00125187 0.00332814 ) 0 
( 0.00754881 0.000187341 0.0024962 ) 0 
( 0.00554656 0.00586739 0.00295453 ) 0 
( 0.0122736 0.00186018 0.00310441 ) 0 
( 0.00403435 0.0020533 0.0067426 ) 0 
( 0.00278682 0.00127886 0.00205484 ) 0 
( 0.0022141 0.00693977 0.0063656 ) 0 
( 0.0128646 0.00196196 0.00580865 ) 0 
( 0.00365012 0.0114431 0.00296489 ) 0 
( 0.0112828 0.00344474 0.00535877 ) 0 
( 0.0100375 0.000305745 0.000498256 ) 0 
( 0.000187184 0.0025246 0.00385497 ) 0 
( 0.00123681 0.0107497 0.000499778 ) 0 
( 0.0018275 0.00926223 0.00614236 ) 0 
( 0.00642701 0.00119677 0.00682223 ) 0 
( 0.00728589 0.00600351 0.00234012 ) 0 
( 0.00223763 0.00897558 0.00400765 ) 0 
( 0.0120234 0.00302622 0.00379803 ) 0 
( 0.0033148 0.00936522 0.00643212 ) 0 
( 0.00105406 0.00188438 0.00677969 ) 0 
( 0.00709464 0.00694764 0.00260553 ) 0 
( 0.00727307 0.0107636 0.00286296 ) 0 
( 0.00550186 0.000927138 0.000499521 ) 0 
( 0.00289627 0.00744691 0.00564551 ) 0 
( 0.00496901 0.00759995 0.00606152 ) 0 
( 0.00585906 0.00175841 0.00601806 ) 0 
( 0.00502366 0.0123693 0.00375267 ) 0 
( 0.0035508 0.00395953 0.00102094 ) 0 
( 0.00186157 0.00735656 0.000498688 ) 0 
( 0.00722627 0.00314578 0.00659896 ) 0 
( 0.00776441 0.00171233 0.00134963 ) 0 
( 0.00275452 0.0120631 0.00225366 ) 0 
( 0.00437618 0.00514411 0.00622474 ) 0 
( 0.00468995 0.00288972 0.00673341 ) 0 
( 0.00462357 0.00981467 0.000603898 ) 0 
( 0.00890827 0.00722716 0.00182334 ) 0 
( 0.00217757 0.0102467 0.0044977 ) 0 
( 0.00462327 0.00186882 0.00513216 ) 0 
( 0.00262117 0.00505698 0.0034965 ) 0 
( 0.00329327 0.0117453 0.00427021 ) 0 
( 0.0107641 0.00385796 0.0022883 ) 0 
( 0.0013632 0.00731129 0.00357511 ) 0 
( 0.00517224 0.00193328 0.00209177 ) 0 
( 0.0128872 0.00264693 0.0031708 ) 0 
( 0.00711808 0.0112956 0.000736913 ) 0 
( 0.0102172 0.000730959 0.00239708 ) 0 
( 0.00541632 0.00669864 0.00351981 ) 0 
( 0.0114203 0.00424117 0.00293651 ) 0 
( 0.00725874 0.00928061 0.00555267 ) 0 
( 0.000136046 0.0036543 0.00347749 ) 0 
( 0.00622608 0.00659854 0.000618248 ) 0 
( 0.00459951 0.00810478 0.00528179 ) 0 
( 0.00645639 0.011628 0.00140695 ) 0 
( 0.00438948 0.00138615 0.00428895 ) 0 
( 0.00474593 0.0029168 0.00157932 ) 0 
( 0.00723878 0.00417778 0.000499728 ) 0 
( 0.00343496 0.00628616 0.00320968 ) 0 
( 0.00245755 0.00505922 0.00179429 ) 0 
( 0.0120425 0.00264174 0.00136746 ) 0 
( 0.00366654 0.00954473 0.00049888 ) 0 
( 0.0019397 0.00899707 0.00496182 ) 0 
( 0.00560585 0.0104344 0.00695344 ) 0 
( 0.000857431 0.000297645 0.0048885 ) 0 
( 0.0014 0.00351359 0.00754944 ) 0 
( 0.00355302 0.00479442 0.00687712 ) 0 
( 0.011581 0.00442973 0.00583604 ) 0 
( 0.00337419 0.00624726 0.00420655 ) 0 
( 0.00574422 0.00186611 0.00711218 ) 0 
( 0.00226288 0.000560677 0.00764237 ) 0 
( 0.007886 0.0107467 0.00572714 ) 0 
( 0.00264163 0.00990692 0.0013304 ) 0 
( 0.00160169 0.00175233 0.00049956 ) 0 
( 0.00821189 0.00503122 0.00434835 ) 0 
( 0.00382806 0.00797271 0.00466035 ) 0 
( 0.00299967 6.57977e-06 0.00725853 ) 0 
( 0.00273139 0.00476549 0.0063088 ) 0 
( 0.0118538 0.00164739 0.00553682 ) 0 
( 0.0062004 0.00560426 0.00561952 ) 0 
( 0.00275263 0.00321686 0.00215094 ) 0 
( 0.00642538 0.00192188 0.00304521 ) 0 
( 0.00516771 0.0122235 0.00185506 ) 0 
( 0.00870947 0.00296153 0.000499163 ) 0 
( 0.00345222 0.00573867 0.000499778 ) 0 
( 0.00694483 0.00513634 0.000499704 ) 0 
( 0.000956575 0.0108409 0.00250038 ) 0 
( 0.00522756 0.00498369 0.00672121 ) 0 
( 0.00602437 0.0108473 0.00211176 ) 0 
( 0.00291877 0.00482155 0.00764888 ) 0 
( 0.00182761 0.00470265 0.00300213 ) 0 
( 0.0117035 0.0051964 0.00286996 ) 0 
( 0.00489083 0.00382028 0.00317396 ) 0 
( 0.00979276 0.00266049 0.00144676 ) 0 
( 0.00205453 0.00161979 0.00138105 ) 0 
( 0.00641741 0.00750596 0.00767337 ) 0 
( 0.0086778 0.00486359 0.00598551 ) 0 
( 0.00576693 0.00547438 0.00206216 ) 0 
( 0.00411747 0.0119016 0.00524271 ) 0 
( 0.0084476 0.0058757 0.0038713 ) 0 
( 0.00932388 0.00409502 0.0013765 ) 0 
( 0.00265731 0.00935269 0.000499231 ) 0 
( 0.00954322 0.00157163 0.00341345 ) 0 
( 0.0115124 0.00431836 0.00392845 ) 0 
( 0.0043139 0.00200929 0.00259471 ) 0 
( 0.00344387 0.000690664 0.00356876 ) 0 
( 0.00540232 0.0112053 0.00138735 ) 0 
( 0.00462338 9.83074e-05 0.00751247 ) 0 
( 0.00853606 0.0102643 0.00631171 ) 0 
( 0.00652555 0.00816601 0.00133309 ) 0 
( 0.006417 0.00807365 0.00307181 ) 0 
( 0.00238162 0.00998144 0.00290886 ) 0 
( 0.000612563 0.00098757 0.00679487 ) 0 
( 0.00822861 0.0105141 0.00300446 ) 0 
( 0.00801284 3.53302e-05 0.0033667 ) 0 
( 0.00270005 0.00925133 0.00565326 ) 0 
( 0.00485096 0.00438344 0.00576628 ) 0 
( 0.00702739 0.0083989 0.000498592 ) 0 
( 0.00395473 0.00106317 0.00662408 ) 0 
( 0.0013229 0.0070462 0.00183465 ) 0 
( 0.000991884 0.00896087 0.00660116 ) 0 
( 0.00348556 0.00264794 0.003724 ) 0 
( 0.00434514 0.00881104 0.00049969 ) 0 
( 0.00348563 0.00748074 0.0012706 ) 0 
( 0.00971326 0.00134518 0.00659866 ) 0 
( 0.0119695 0.00358353 0.00104012 ) 0 
( 0.0113238 0.0065877 0.00528947 ) 0 
( 0.00209177 0.0122287 0.00493874 ) 0 
( 0.00662619 0.00562955 0.00373728 ) 0 
( 0.0113341 0.00128944 0.00309005 ) 0 
( 0.00656824 0.0105399 0.00440781 ) 0 
( 0.00028109 0.0024295 0.00132768 ) 0 
( 0.00440517 0.0108157 0.00657671 ) 0 
( 0.00878569 0.00181803 0.00281151 ) 0 
( 0.0131492 0.00231039 0.000655604 ) 0 
( 0.00237641 5.60935e-05 0.00505522 ) 0 
( 0.0126718 0.00420533 0.000497793 ) 0 
( 0.0128051 0.00378261 0.00154621 ) 0 
( 0.0064856 0.00934263 0.00375525 ) 0 
( 0.00804341 0.00210088 0.00436628 ) 0 
( 0.00986525 0.00568192 0.00141975 ) 0 
( 0.0042892 0.00525989 0.00440918 ) 0 
( 0.0059065 0.00274752 0.000498387 ) 0 
( 0.00496453 0.00626565 0.00701529 ) 0 
( 0.00689803 0.00471461 0.00306829 ) 0 
( 0.00820407 0.00322711 0.00405387 ) 0 
( 0.0100497 0.00711319 0.00498717 ) 0 
( 0.00900647 0.00633729 0.00138289 ) 0 
( 0.00106094 0.0053273 0.00314579 ) 0 
( 0.00541502 0.00749581 0.00187772 ) 0 
( 0.00434041 0.00246347 0.00588388 ) 0 
( 0.00725696 0.0057006 0.00138793 ) 0 
( 0.00153695 0.0132619 0.00438789 ) 0 
( 0.00699975 0.0113684 0.00595766 ) 0 
( 0.00500099 0.00526158 0.00531511 ) 0 
( 0.00570971 0.00459124 0.00751162 ) 0 
( 0.00642124 0.00906912 0.000921079 ) 0 
( 0.00540783 0.00242067 0.00541466 ) 0 
( 0.00548914 0.0118361 0.00293999 ) 0 
( 0.00157343 0.0115766 0.00337667 ) 0 
( 0.00155949 0.000638279 0.00424713 ) 0 
( 0.0095891 0.00335532 0.000758088 ) 0 
( 0.0119974 0.0027062 0.00489708 ) 0 
( 0.00873714 0.00142785 0.00410129 ) 0 
( 0.00732301 0.0092572 0.00720957 ) 0 
( 0.00985982 0.00408079 0.00408559 ) 0 
( 0.0098485 0.00465374 0.00618435 ) 0 
( 0.0128203 0.00372582 0.00327449 ) 0 
( 0.0108514 0.00253364 0.00570513 ) 0 
( 0.0127421 0.00320907 0.000499255 ) 0 
( 0.00879202 0.00781135 0.00604097 ) 0 
( 0.0114924 0.000822933 0.00510492 ) 0 
( 6.64168e-05 0.00450711 0.0017878 ) 0 
( 0.00162784 0.0103859 0.0062389 ) 0 
( 0.000119207 0.00506254 0.000499715 ) 0 
( 0.00886818 0.00672539 0.00355934 ) 0 
( 0.00304464 0.0121986 0.00717677 ) 0 
( 0.000947515 0.0080242 0.00735372 ) 0 
( 0.00356825 0.0102869 0.00672317 ) 0 
( 0.00846294 0.00103008 0.00586499 ) 0 
( 0.00392664 0.00704887 0.00274156 ) 0 
( 0.00690715 0.00785334 0.0022294 ) 0 
( 0.00844207 0.0035022 0.00527844 ) 0 
( 0.0107579 0.00498208 0.00238379 ) 0 
( 0.00614536 0.00727751 0.00252386 ) 0 
( 0.00993843 0.00190438 0.00558405 ) 0 
( 0.0109034 0.00142915 0.00220117 ) 0 
( 0.012439 0.000441476 0.00673947 ) 0 
( 8.87877e-05 0.00235219 0.00549212 ) 0 
( 0.000731232 0.0126159 0.00411664 ) 0 
( 0.0040149 0.00176868 0.00776375 ) 0 
( 0.00475734 0.00132014 0.00317228 ) 0 
( 0.00169108 0.000438826 0.00276649 ) 0 
( 0.00417758 0.0079497 0.0065611 ) 0 
( 0.00123905 0.00525129 0.00698479 ) 0 
( 0.00603621 0.000561693 0.00462408 ) 0 
( 0.0132912 0.00126136 0.00650558 ) 0 
( 0.00973674 0.00635176 0.00323536 ) 0 
( 0.00308462 0.00582385 0.00193976 ) 0 
( 0.00751117 0.00473987 0.00128883 ) 0 
( 0.00923989 0.00480436 0.00438232 ) 0 
( 0.00800039 0.00540273 0.00198438 ) 0 
( 0.00384429 0.00835577 0.00159121 ) 0 
( 0.00408797 0.0127083 0.0036586 ) 0 
( 0.0103256 0.00846233 0.00721111 ) 0 
( 0.0132528 0.00160849 0.00136018 ) 0 
( 0.00170519 0.00982223 0.00362628 ) 0 
( 0.00667973 0.00307931 0.00189343 ) 0 
( 0.00205658 0.00640277 0.00204861 ) 0 
( 0.0054426 0.00671659 0.00574987 ) 0 
( 0.00188712 0.0132172 0.00256466 ) 0 
( 0.000112701 0.00183137 0.00459174 ) 0 
( 0.000755242 0.00654168 0.00764309 ) 0 
( 0.00867741 0.00660447 0.00453124 ) 0 
( 0.0035634 0.00654831 0.00523185 ) 0 
( 4.11932e-05 0.000681124 0.00584969 ) 0 
( 0.00226872 0.00767213 0.0020866 ) 0 
( 0.00361032 0.010144 0.00129772 ) 0 
( 0.00473853 0.00769166 0.00436027 ) 0 
( 0.00126227 0.00683763 0.00598077 ) 0 
( 3.7515e-05 0.000842756 0.00471417 ) 0 
( 0.00024336 0.0124723 0.000498911 ) 0 
( 0.00583008 0.00865376 0.00554116 ) 0 
( 0.000104758 0.0117887 0.00555023 ) 0 
( 0.010228 0.00360695 0.00148352 ) 0 
( 0.00142185 0.00815813 0.00479399 ) 0 
( 0.0015207 0.00972127 0.00697766 ) 0 
( 0.00202728 0.0107482 0.00233138 ) 0 
( 0.00126422 0.00710324 0.00698682 ) 0 
( 0.0126253 0.000199561 0.00483497 ) 0 
( 0.0104021 0.00689476 0.00374636 ) 0 
( 0.00828739 0.00616639 0.00534467 ) 0 
( 0.0090476 0.00404351 0.00642106 ) 0 
( 0.00196445 0.000695995 0.00183975 ) 0 
( 0.000338724 0.00561283 0.00184494 ) 0 
( 0.00899071 0.00692856 0.000499782 ) 0 
( 0.000196947 0.012564 0.00215888 ) 0 
( 0.0013159 0.00425916 0.00688993 ) 0 
( 0.00534265 0.00147366 0.00793932 ) 0 
( 0.0106529 0.00608714 0.000499544 ) 0 
( 0.00600857 0.0061368 0.00644385 ) 0 
( 0.000428234 0.0101503 0.000498898 ) 0 
( 0.0106533 0.00254955 0.00386072 ) 0 
( 0.00206868 0.0131899 0.00354568 ) 0 
( 0.0106249 0.00111336 0.000503542 ) 0 
( 0.00898456 0.00544234 0.00182366 ) 0 
( 0.0099315 0.00891045 0.0053606 ) 0 
( 0.000873415 0.00723395 0.00270769 ) 0 
( 0.00637164 0.00762743 0.00601863 ) 0 
( 0.00763282 0.00341258 0.00325544 ) 0 
( 0.00380293 0.00329504 0.00441516 ) 0 
( 0.00922822 0.000475036 0.00651408 ) 0 
( 0.0020927 0.012321 0.00295724 ) 0 
( 0.0039378 0.00612586 0.00236183 ) 0 
( 0.0123496 0.00121294 0.00477127 ) 0 
( 0.00578555 0.0100918 0.00390544 ) 0 
( 0.000374625 0.0132077 0.00675141 ) 0 
( 0.0104742 0.00590002 0.00373974 ) 0 
( 0.00420776 0.00880311 0.00410297 ) 0 
( 0.00398402 0.00787416 0.000499151 ) 0 
( 0.00278036 0.00947306 0.00468228 ) 0 
( 1.12086e-05 0.00927864 0.00646076 ) 0 
( 0.00141574 0.00568004 0.00148211 ) 0 
( 0.00749964 0.00787617 0.00142637 ) 0 
( 0.0106046 0.00811272 0.00631855 ) 0 
( 0.000183924 0.00203243 0.00298483 ) 0 
( 0.00136461 0.00244896 0.00580679 ) 0 
( 0.00893957 0.00567185 0.00477315 ) 0 
( 0.00685167 0.00839675 0.00755047 ) 0 
( 0.00423852 0.0117629 0.00394629 ) 0 
( 0.0131642 0.00222072 0.00230972 ) 0 
( 0.00997562 0.00759303 0.00317844 ) 0 
( 0.0017602 0.00480295 0.0011263 ) 0 
( 0.00665748 0.00703039 0.00682881 ) 0 
( 0.00480497 0.011423 0.00469677 ) 0 
( 0.00822091 0.00700678 0.0058796 ) 0 
( 0.00405496 0.00697178 0.00447142 ) 0 
( 0.00601823 0.0043955 0.00472885 ) 0 
( 0.00539308 0.00272246 0.00446157 ) 0 
( 0.00336335 0.00225065 0.00601515 ) 0 
( 0.00602272 0.00821037 0.00397954 ) 0 
( 0.00491538 0.0113462 0.00228691 ) 0 
( 0.00372564 0.00163096 0.000499081 ) 0 
( 0.00268203 0.000371413 0.00245758 ) 0 
( 0.00922866 0.00215677 0.000783287 ) 0 
( 0.0012748 0.0126601 0.0066723 ) 0 
( 0.00523999 0.000473642 0.00295281 ) 0 
( 0.00152469 0.00389432 0.00146944 ) 0 
( 0.00691757 0.00102007 0.00776431 ) 0 
( 0.00799382 0.0038287 0.00105451 ) 0 
( 0.0030193 0.0103049 0.000497957 ) 0 
( 0.00973835 0.00804767 0.00582735 ) 0 
( 0.0083942 0.00402758 0.00305356 ) 0 
( 0.00367804 0.00452447 0.00319017 ) 0 
( 0.00023707 0.00587371 0.00539866 ) 0 
( 0.00153328 0.00679029 0.00501929 ) 0 
( 0.00285998 0.00758836 0.000499154 ) 0 
( 0.0044131 0.00484151 0.00131573 ) 0 
( 0.00514308 0.0104472 0.00601176 ) 0 
( 0.00634837 0.00718997 0.0014411 ) 0 
( 0.00395872 0.000153862 0.00116557 ) 0 
( 0.0042805 0.0108396 0.00531633 ) 0 
( 0.000177981 0.0118262 0.00382194 ) 0 
( 0.0118242 0.00256358 0.00593295 ) 0 
( 0.00157795 0.00653669 0.00099435 ) 0 
( 0.000680435 0.00133518 0.00049866 ) 0 
( 0.000993719 0.0133153 0.0059736 ) 0 
( 0.0126112 0.000689823 0.001586 ) 0 
( 0.00685017 0.00188962 0.006227 ) 0 
( 0.00442768 0.00338686 0.00240274 ) 0 
( 0.00490128 0.00272223 0.000498709 ) 0 
( 0.00800654 0.00321923 0.00186757 ) 0 
( 0.0096034 0.0025275 0.00313141 ) 0 
( 0.0130458 0.00281291 0.00151289 ) 0 
( 0.00674821 0.01152 0.00324787 ) 0 
( 0.00917507 0.00499169 0.000942676 ) 0 
( 0.00502897 0.000179518 0.000972278 ) 0 
( 0.00934665 0.00645531 0.00525706 ) 0 
( 0.00909646 0.00315764 0.00595126 ) 0 
( 0.00977925 0.0011278 0.0014294 ) 0 
( 0.00219009 0.00628185 0.00561382 ) 0 
( 0.00229325 0.00939008 0.00210872 ) 0 
( 0.0108584 0.00777079 0.00388124 ) 0 
( 0.00756277 0.0053 0.0036392 ) 0 
( 0.0132486 0.00164706 0.00315366 ) 0 
( 0.00717965 0.00322905 0.0041279 ) 0 
( 0.00264329 0.0118088 0.00129487 ) 0 
( 0.0076266 0.00886016 0.00131771 ) 0 
( 0.0127799 0.00202937 0.00394986 ) 0 
( 0.00319047 0.0129616 0.00651052 ) 0 
( 0.000211352 0.00462327 0.00370698 ) 0 
( 0.00953779 0.000614682 0.00313331 ) 0 
( 0.00762488 0.0109588 0.00666821 ) 0 
( 0.0081836 0.00113175 0.00204511 ) 0 
( 0.00847036 0.00459285 0.00152903 ) 0 
( 0.00531243 0.00950777 0.00551445 ) 0 
( 0.000135744 0.00406176 0.000498601 ) 0 
( 0.00342146 0.0129077 0.00294145 ) 0 
( 0.0027272 0.0130688 0.00563113 ) 0 
( 0.00463881 0.00055176 0.00379936 ) 0 
( 0.00615318 0.011766 0.0063111 ) 0 
( 0.000544969 0.00374523 0.00135664 ) 0 
( 0.00510966 0.00584018 0.00612249 ) 0 
( 0.00400581 0.0105917 0.000498661 ) 0 
( 0.00785084 0.00483661 0.00279397 ) 0 
( 0.000332596 0.0110988 0.00135018 ) 0 
( 0.00774532 0.00619763 0.00450598 ) 0 
( 0.000379678 0.0104505 0.00474353 ) 0 
( 0.00922933 0.00823573 0.000497584 ) 0 
( 0.00778084 0.00810109 0.00264483 ) 0 
( 0.00451521 0.00438255 0.00237512 ) 0 
( 0.0117846 0.00211292 0.00412078 ) 0 
( 0.00711847 0.00938069 0.00452662 ) 0 
( 0.0130203 0.00294888 0.00582127 ) 0 
( 0.00426779 0.00999287 0.00584764 ) 0 
( 0.00977545 0.00495639 0.0021998 ) 0 
( 0.00381159 0.00696984 0.00696739 ) 0 
( 0.0110864 0.00741995 0.00578655 ) 0 
( 0.00773587 0.00415892 0.00206983 ) 0 
( 0.000236644 0.00938175 0.00145379 ) 0 
( 0.00948447 0.00939594 0.00337748 ) 0 
( 0.00340283 0.0129092 0.00139577 ) 0 
( 0.000730595 0.0102005 0.00174099 ) 0 
( 0.00954219 0.00784164 0.00135832 ) 0 
( 0.0020422 0.00405427 0.00617933 ) 0 
( 0.00256323 0.00224968 0.00198756 ) 0 
( 0.00644319 0.00591546 0.00731643 ) 0 
( 0.00437677 0.0126138 0.00138399 ) 0 
( 0.00602252 0.0112916 0.00741344 ) 0 
( 0.00872213 0.00144037 0.0012615 ) 0 
( 0.00648273 0.00395605 0.00580173 ) 0 
( 0.00831823 0.0104442 0.00399595 ) 0 
( 0.00106362 0.00618467 0.00227063 ) 0 
( 0.00979353 0.00906777 0.000499397 ) 0 
( 0.00835948 0.00771358 0.00336138 ) 0 
( 0.0112355 0.00132234 0.00126571 ) 0 
( 0.0006286 0.00251289 0.00742919 ) 0 
( 0.00338277 0.011235 0.00512302 ) 0 
( 0.0115513 0.00335996 0.00192083 ) 0 
( 0.00649005 0.00755563 0.000499767 ) 0 
( 0.00996796 0.00566327 0.00644884 ) 0 
( 0.000147641 0.00837858 0.00687024 ) 0 
( 0.00587625 0.0109526 0.00320022 ) 0 
( 0.00627241 0.00274403 0.00499529 ) 0 
( 0.00248641 0.0131132 0.00466218 ) 0 
( 0.00368938 0.00265947 0.000499776 ) 0 
( 0.0128862 0.00349803 0.00499728 ) 0 
( 0.00497306 0.0110384 0.000499772 ) 0 
( 0.00593109 0.00992113 0.0025191 ) 0 
( 0.000334914 0.00681668 0.00508291 ) 0 
( 0.0039355 0.0017873 0.00349178 ) 0 
( 0.00544294 0.00230152 0.0029876 ) 0 
( 0.00267895 0.00312212 0.00552613 ) 0 
( 0.00643037 0.00235316 0.00125293 ) 0 
( 0.00341999 0.0111681 0.00106777 ) 0 
( 0.0113743 0.00227867 0.00322474 ) 0 
( 0.00377278 0.00310686 0.00170201 ) 0 
( 0.00307497 0.0037952 0.00667904 ) 0 
( 0.00418523 0.00236079 0.00437782 ) 0 
( 0.00351492 0.00559128 0.00494739 ) 0 
( 0.0103412 0.000900066 0.00482318 ) 0 
( 0.00138759 0.0116852 0.0068498 ) 0 
( 0.0122139 0.00277827 0.00682835 ) 0 
( 0.0106532 0.00797823 0.00228985 ) 0 
( 0.0127936 0.00139039 0.000499292 ) 0 
( 0.000261508 0.0132918 0.00136378 ) 0 
( 0.00573005 0.000519588 0.00628451 ) 0 
( 0.0038833 0.000514646 0.00445193 ) 0 
( 0.00941462 0.00150941 0.00483083 ) 0 
( 0.00466537 0.0125085 0.00589177 ) 0 
( 0.00306727 0.0075423 0.00662562 ) 0 
( 0.00460907 0.00618221 0.00310046 ) 0 
( 0.00660618 0.00491701 0.00721096 ) 0 
( 0.00354609 0.00261798 0.00510361 ) 0 
( 0.00298549 0.00274582 0.00120471 ) 0 
( 6.42461e-05 0.00821105 0.000498298 ) 0 
( 0.0109836 0.00759383 0.00129846 ) 0 
( 0.00637085 0.0117319 0.00512134 ) 0 
( 0.00854284 0.00242546 0.0035649 ) 0 