/*--------------------------------*- C++ -*----------------------------------*\
| =========                 |                                                 |
| \\      /  F ield         | OpenFOAM: The Open Source CFD Toolbox           |
|  \\    /   O peration     | Version:  2506                                  |
|   \\  /    A nd           | Website:  www.openfoam.com                      |
|    \\/     M anipulation  |                                                 |
\*---------------------------------------------------------------------------*/
FoamFile
{
    version     2.0;
    format      ascii;
    arch        "LSB;label=32;scalar=64";
    class       surfaceScalarField;
    location    "0.03";
    object      phi;
}
// * * * * * * * * * * * * * * * * * * * * * * * * * * * * * * * * * * * * * //

dimensions      [0 3 -1 0 0 0 0];

oriented        oriented;

internalField   nonuniform List<scalar> 
13248
(
-1.1399e-09
-2.49099e-09
2.26777e-08
2.66286e-09
5.60559e-10
-2.9293e-09
-1.5336e-09
2.78322e-08
-2.23386e-09
-1.46908e-09
-3.33324e-10
1.72955e-08
3.76132e-09
-9.85456e-10
-1.60306e-09
2.34921e-08
-3.94407e-10
3.22586e-09
5.72714e-10
1.46474e-08
2.75256e-09
-2.26603e-09
-2.65363e-09
3.13588e-08
-1.00914e-09
4.01207e-10
-7.80257e-10
1.92059e-08
1.17138e-09
-1.3111e-09
1.94272e-08
2.63121e-09
1.91466e-09
3.09992e-11
-1.44174e-09
2.26739e-08
-1.5672e-09
-3.38201e-09
-1.60956e-09
2.54314e-08
-3.1773e-09
-4.42167e-09
2.61427e-08
1.02806e-09
-5.15873e-10
1.69026e-08
-1.01618e-10
-3.2975e-09
2.70924e-08
-2.28476e-10
-1.79327e-09
2.15317e-08
1.27693e-10
-6.86988e-10
2.16079e-08
2.03798e-09
1.72692e-08
1.82461e-09
6.08636e-11
-3.61596e-10
2.15614e-08
-5.28823e-10
-2.63829e-09
1.97787e-09
2.12921e-08
8.66202e-10
2.24884e-09
1.21751e-08
-1.09579e-09
5.4684e-09
1.83544e-08
-2.20216e-10
9.50487e-10
1.69437e-08
7.31045e-10
-1.66292e-09
2.10206e-08
2.91186e-09
7.47032e-10
1.86504e-08
-1.51053e-09
2.96103e-08
-7.98765e-10
3.13686e-09
-1.53937e-09
1.88559e-08
1.40311e-09
-5.49765e-09
-7.4099e-09
4.01029e-08
2.33189e-09
-7.2461e-10
1.74575e-08
-5.98222e-09
-2.23932e-09
3.82781e-08
-2.1695e-09
1.40803e-09
1.7952e-08
2.16428e-09
4.95141e-09
1.12435e-08
-2.0095e-11
3.61107e-09
2.12388e-08
2.72344e-09
1.48187e-08
3.197e-09
-7.05525e-10
-6.42154e-10
2.01472e-08
1.96624e-09
1.10831e-10
-2.23219e-10
1.41648e-08
1.21083e-09
2.19182e-10
1.98491e-08
-9.65161e-10
-2.87147e-09
2.50874e-08
7.14401e-10
-2.09936e-10
2.22481e-08
3.25476e-09
-1.1522e-09
2.58192e-08
4.1235e-10
-7.58471e-10
2.94082e-08
1.78317e-09
2.35806e-08
-1.19698e-11
-4.99559e-10
5.40648e-09
1.4744e-08
1.80224e-09
6.8704e-10
1.90866e-09
1.88215e-08
-1.47684e-09
1.68451e-09
2.2958e-08
2.54976e-09
1.58256e-10
1.51042e-08
-3.90268e-10
1.47526e-09
2.34125e-08
1.67427e-09
1.72162e-09
1.7441e-08
2.04552e-09
2.37684e-09
1.86699e-08
1.64223e-09
2.31857e-08
1.28134e-09
-3.7342e-09
-1.74858e-09
2.93875e-08
3.93393e-09
4.37533e-11
5.72421e-10
1.98891e-08
-2.44273e-09
9.64294e-11
2.64045e-08
3.76666e-09
1.71108e-09
1.4451e-08
3.92561e-10
9.16404e-10
2.60135e-08
2.47666e-09
4.53674e-09
1.71998e-08
1.03824e-09
1.89964e-09
2.41108e-08
3.41835e-09
1.95531e-08
2.00749e-09
-7.58283e-10
1.45876e-08
2.89237e-09
3.90202e-09
4.46059e-10
1.67305e-08
4.84164e-09
-2.69123e-10
2.10458e-08
2.13338e-09
1.55434e-09
1.74794e-08
4.59968e-09
3.31609e-09
1.96113e-08
1.54922e-09
-5.36528e-10
3.15134e-08
-9.82265e-10
1.60368e-09
2.14109e-08
5.90578e-10
2.83243e-08
-4.27263e-10
-6.15832e-10
-1.14696e-09
-9.56526e-10
2.2935e-08
2.40305e-09
-5.56844e-10
-2.42528e-09
-4.17438e-09
3.24294e-08
8.55468e-10
-1.62774e-09
-1.46564e-09
1.79102e-08
5.33626e-11
8.05185e-10
4.25731e-10
1.78095e-08
2.82394e-09
-8.41551e-10
-2.21166e-09
1.94023e-08
-8.96519e-10
1.43962e-09
2.08184e-09
2.58191e-08
1.17666e-09
7.47824e-10
-2.32051e-10
1.88162e-08
1.31355e-09
-8.28918e-10
1.8948e-08
1.43812e-09
6.17876e-10
-3.00675e-09
-2.7048e-10
2.23766e-08
2.61804e-09
-2.49143e-10
3.01857e-09
1.54808e-08
-7.30218e-10
1.14455e-09
2.40136e-08
-1.9316e-09
2.56675e-09
1.5963e-08
4.5443e-09
1.09436e-09
1.73105e-08
-4.18334e-10
3.7006e-10
2.82062e-08
1.64193e-10
9.91315e-10
1.98021e-08
-5.69519e-10
1.53712e-08
1.80281e-09
2.80093e-10
-1.60216e-10
2.01604e-08
1.01066e-09
-1.70512e-09
-8.23411e-09
3.45299e-08
9.38216e-10
-1.28905e-09
1.19653e-08
-2.40405e-09
-3.47169e-09
2.77352e-08
1.62439e-09
1.24013e-09
1.27695e-08
7.23608e-10
9.69992e-11
2.21944e-08
-1.4815e-09
7.94379e-10
2.10524e-08
4.00503e-09
2.02211e-08
3.33318e-09
-6.51405e-09
-2.82691e-09
2.63822e-08
1.65442e-09
2.10616e-09
6.99632e-09
1.62522e-08
4.96315e-10
3.45507e-09
1.43233e-08
8.66348e-10
4.59778e-10
3.39768e-08
5.38545e-10
-4.44004e-10
1.99639e-08
1.77444e-09
-1.59011e-09
1.16948e-08
1.98595e-09
-2.46666e-09
2.42883e-08
1.52338e-10
2.15252e-08
-8.67848e-10
3.48393e-09
1.42443e-09
1.04226e-08
1.98932e-09
-1.85239e-09
-2.00522e-09
2.85027e-08
-2.4863e-09
-2.40427e-09
2.63423e-08
-2.23874e-10
-1.32826e-10
2.34174e-08
-1.05246e-09
1.51166e-09
2.11212e-08
1.38891e-09
2.65893e-09
1.91289e-08
2.39204e-09
1.54821e-09
2.43902e-08
-9.59938e-10
2.81261e-08
-1.04112e-09
-1.72651e-10
-4.0238e-10
1.5491e-08
1.25242e-09
-3.43198e-10
1.01072e-09
1.59761e-08
1.3334e-10
-5.20321e-11
2.01293e-08
1.26786e-09
9.0911e-10
1.29278e-08
-1.95508e-10
-2.3734e-09
2.87609e-08
5.83458e-10
1.11451e-09
1.82064e-08
2.56837e-10
4.96797e-10
2.0048e-08
-1.36253e-10
2.09489e-08
1.66996e-09
1.75648e-09
3.12197e-09
2.2399e-08
1.70773e-09
-1.88943e-09
1.52274e-09
2.30231e-08
1.32947e-09
2.9788e-09
2.01547e-08
-2.802e-09
1.38442e-10
1.93531e-08
3.6142e-09
5.23524e-09
1.19887e-08
3.58005e-11
3.19888e-09
1.86938e-08
-2.50139e-10
1.04628e-09
2.38473e-08
-6.64688e-10
1.82819e-08
1.54949e-09
-4.80066e-10
1.96868e-08
-7.80656e-10
-7.16473e-10
-1.04268e-09
2.05525e-08
-1.73668e-09
-8.13428e-10
2.38677e-08
-7.23379e-11
1.54642e-09
1.48112e-08
4.46721e-10
2.60374e-09
2.40324e-08
-2.43188e-10
-1.52505e-09
3.87536e-08
8.75249e-11
-1.68958e-09
1.95426e-08
3.07915e-09
1.55259e-08
5.30181e-09
5.14233e-09
-2.59553e-09
-2.90608e-09
3.54074e-08
-5.29711e-09
-1.67363e-09
2.82268e-09
-4.11779e-10
2.56771e-08
1.74584e-09
6.07392e-10
-1.9311e-09
2.40695e-08
-2.01295e-09
-3.2882e-09
-1.59577e-09
2.46188e-08
-1.31786e-09
-1.92227e-09
8.92027e-10
1.81909e-08
-1.0465e-09
2.98583e-10
1.92389e-10
2.26135e-08
7.92399e-10
1.14595e-09
5.90874e-10
1.66983e-08
6.79718e-10
1.69328e-09
2.12036e-08
-1.50096e-09
-1.30197e-09
3.34938e-10
4.62291e-10
1.70751e-08
1.59811e-09
7.09032e-10
-2.65098e-09
1.73459e-08
6.5658e-10
-1.00213e-09
2.31371e-08
-7.05291e-11
-2.90362e-09
1.79979e-08
-2.36286e-09
-3.3657e-10
2.08315e-08
7.51265e-10
1.76718e-09
2.35173e-08
1.68176e-09
-1.38707e-09
2.08495e-08
-1.9257e-09
2.20721e-08
-1.40017e-09
-2.69563e-09
-1.21209e-10
2.32334e-08
2.06115e-10
1.85879e-09
2.66065e-10
2.70584e-08
1.54209e-10
-1.35391e-09
1.40217e-08
1.51079e-09
-5.58495e-09
2.906e-08
-2.75795e-10
-7.85515e-10
1.50049e-08
-1.89298e-09
1.41841e-09
2.41604e-08
9.93786e-10
-6.13879e-10
1.73925e-08
-1.28983e-09
2.04057e-08
1.73297e-10
-1.17268e-09
3.63073e-09
2.37013e-08
1.01635e-10
-4.04394e-10
2.06583e-09
1.36842e-08
-3.12778e-10
1.06137e-09
1.18164e-08
4.02688e-09
5.16243e-10
2.35364e-08
1.76966e-09
-1.26926e-09
2.27046e-08
-2.21855e-09
-2.90393e-09
2.00053e-08
7.44618e-11
-5.8858e-10
2.19701e-08
1.1147e-09
1.84663e-08
7.28955e-10
-3.81587e-09
-1.05474e-09
2.07686e-08
-1.84471e-09
-1.77348e-09
-3.24955e-10
2.88511e-08
-1.31582e-09
-5.49303e-10
2.74953e-08
6.91004e-10
6.07256e-10
2.13194e-08
-1.13784e-09
2.46966e-09
1.92114e-08
1.17105e-09
1.12457e-09
1.27915e-08
1.92811e-09
-1.20888e-09
2.42535e-08
-1.45687e-09
3.33639e-08
-7.38162e-10
-1.56097e-09
-1.80366e-09
1.9942e-08
-2.14111e-09
-1.28691e-09
-1.34725e-09
1.67244e-08
9.24715e-11
-1.58026e-10
1.83586e-08
1.76479e-09
1.20915e-09
1.06535e-08
-2.54125e-09
-1.41189e-09
3.69486e-08
-1.40955e-09
6.11221e-10
1.75881e-08
1.00093e-09
1.0275e-10
1.63259e-08
1.53669e-09
1.83739e-08
5.82328e-10
-1.85138e-09
1.10877e-09
2.22362e-08
-8.98324e-10
-4.20571e-10
8.74482e-10
1.93705e-08
2.18806e-09
5.00241e-10
1.68879e-08
-9.74456e-10
-1.16109e-09
2.48859e-08
6.17496e-11
2.45438e-10
9.29518e-09
-1.87847e-09
-2.65571e-09
2.3901e-08
2.23506e-09
1.89216e-09
1.79444e-08
2.51928e-09
1.67966e-08
2.73781e-09
-2.11031e-09
2.72882e-08
2.19736e-10
-4.6021e-09
-7.58533e-10
2.47816e-08
-4.70639e-09
1.25659e-09
1.86266e-08
3.72615e-09
9.87856e-11
1.25957e-08
2.21227e-09
-2.74735e-09
2.61586e-08
9.65417e-10
2.93258e-09
2.72463e-08
3.17161e-09
2.38497e-09
2.05783e-08
1.40406e-09
2.05572e-08
-3.90704e-10
2.6364e-10
-2.01483e-09
1.09985e-09
3.57211e-08
-9.0282e-10
1.50404e-09
2.60501e-09
1.08633e-09
1.96519e-08
3.19025e-10
1.97592e-09
2.10015e-09
2.40264e-08
-1.42797e-09
-2.81304e-09
2.28237e-09
2.96161e-08
-2.49078e-09
-5.95945e-10
1.34285e-10
1.44904e-08
1.34911e-09
1.34148e-09
-5.71742e-10
1.84644e-08
2.78342e-09
2.1008e-10
3.73283e-10
1.86287e-08
-1.17233e-09
1.67681e-09
1.92978e-08
-3.14174e-10
7.53162e-10
-5.28239e-10
-2.58601e-09
2.39802e-08
-2.69094e-09
2.38624e-09
-3.11279e-09
1.86305e-08
1.73986e-09
-3.27781e-09
2.91614e-08
-4.90849e-09
-6.26949e-09
3.31982e-08
-1.57858e-09
1.13584e-09
1.65e-08
2.59253e-09
1.95597e-09
1.68185e-08
1.55572e-09
1.01978e-09
2.12399e-08
-4.31185e-10
2.72975e-08
-1.56167e-09
-2.1573e-09
-1.73838e-09
2.67534e-08
-2.21041e-09
1.44946e-09
2.02985e-09
1.8309e-08
-1.44874e-09
-2.44676e-10
1.38867e-08
2.9472e-09
-8.6152e-10
1.92561e-08
-2.95339e-10
-1.0565e-09
2.04398e-08
1.21298e-09
2.90164e-09
2.17065e-08
-4.39204e-10
-1.25852e-09
2.1323e-08
7.50814e-10
2.04874e-08
-1.70287e-09
1.83517e-09
4.19294e-09
1.8005e-08
-2.0702e-09
-4.19392e-10
-3.3107e-10
1.82997e-08
-1.19056e-09
2.65346e-09
9.68952e-09
2.77585e-09
3.20092e-09
1.55077e-08
4.21903e-09
3.21728e-09
1.69875e-08
-2.73091e-09
-2.57836e-09
3.24353e-08
1.50856e-09
-1.91297e-09
1.83851e-08
-5.06958e-09
2.84614e-08
-2.66617e-09
-1.81856e-09
1.94621e-09
2.58736e-08
-1.03968e-09
3.03489e-09
6.5203e-10
2.30145e-08
-6.98624e-10
2.15693e-10
3.36666e-08
1.91092e-09
1.92977e-09
1.99808e-08
-1.88514e-09
-4.30553e-09
3.05305e-08
-1.01315e-09
-7.98846e-10
1.014e-08
-1.97464e-09
4.67742e-10
2.28342e-08
2.08912e-09
2.13645e-08
2.86607e-09
-1.6963e-09
2.96952e-09
2.21082e-08
-1.4932e-09
1.47133e-09
-1.201e-10
1.43289e-08
1.13248e-09
8.48313e-10
1.80649e-08
-4.18245e-09
-1.37155e-09
1.92698e-08
3.06019e-11
2.19443e-09
2.62356e-08
3.11925e-10
1.03362e-10
1.64046e-08
-4.19518e-10
-3.91439e-10
1.79166e-08
4.41853e-10
1.98744e-08
-2.72768e-10
-3.63581e-09
-4.13274e-09
3.79742e-08
-4.9999e-09
2.07778e-09
-6.1338e-10
1.41502e-08
-1.04509e-09
-2.09978e-09
2.29588e-08
-2.78186e-10
-4.07216e-10
2.31547e-08
-1.95945e-09
-1.17488e-09
1.43458e-08
-2.36201e-10
-3.74214e-12
2.22848e-08
1.94887e-10
2.67706e-09
1.44448e-08
1.76374e-10
1.81052e-08
-8.48279e-10
-2.81146e-09
2.84881e-08
-1.5888e-10
-2.3623e-09
5.82448e-10
1.76403e-08
3.13409e-09
5.95571e-10
1.56535e-08
8.60262e-10
-6.75398e-10
1.51433e-08
-1.68382e-09
-1.06145e-09
2.45904e-08
7.79364e-10
3.1148e-09
2.20853e-08
9.81026e-10
-2.67564e-09
2.91044e-08
-5.86192e-11
2.04531e-08
-2.28231e-09
-1.12887e-10
6.44269e-10
3.73294e-09
2.4068e-08
3.66678e-09
3.60911e-09
3.36624e-10
7.57365e-10
1.76756e-08
1.52662e-09
5.41822e-10
1.16493e-09
2.12151e-08
1.44126e-09
4.78647e-09
9.01624e-10
2.42817e-08
1.88131e-10
-1.48142e-09
-2.05767e-09
2.00396e-08
2.7764e-09
-5.70441e-10
-1.43334e-09
1.75154e-08
1.47134e-09
2.22551e-10
-1.32172e-09
1.80899e-08
1.06758e-09
-3.26025e-10
1.76013e-08
-3.91879e-10
2.63697e-09
-8.48796e-10
-1.3301e-09
3.23702e-08
-2.47825e-09
-3.82973e-11
6.95362e-10
1.7882e-08
-3.72738e-10
1.42367e-09
2.92371e-08
-6.74254e-10
3.24078e-09
3.11605e-08
-4.00954e-10
7.13051e-10
1.3456e-08
4.50813e-10
1.96401e-09
1.25694e-08
1.33648e-09
1.09621e-09
1.79363e-08
-1.06553e-10
2.34164e-08
4.99812e-09
9.65513e-10
-6.3568e-10
2.35784e-08
1.51505e-09
1.508e-10
1.19847e-09
1.86206e-08
2.63396e-10
1.21507e-09
1.39827e-08
-1.16764e-09
3.36524e-09
2.05627e-08
1.55926e-10
-4.65128e-10
2.02944e-08
-1.37313e-09
-2.29339e-10
2.54289e-08
2.52915e-10
-1.12172e-10
2.09054e-08
2.80111e-09
1.66586e-08
1.17412e-09
2.203e-09
2.5097e-10
1.29033e-08
2.01207e-09
8.31467e-10
-3.17458e-09
2.40443e-08
9.74068e-10
-4.87927e-09
1.56413e-08
-3.84307e-09
-3.85916e-09
2.75495e-08
6.78563e-10
2.45584e-09
9.5447e-09
-1.14802e-09
6.12286e-09
2.79096e-08
2.80686e-09
2.06869e-09
1.22494e-08
-1.01875e-09
3.53305e-08
-2.4228e-10
-6.89462e-10
1.6724e-09
2.47375e-08
4.04112e-10
5.74294e-10
1.38494e-09
1.71912e-08
2.87233e-09
9.48742e-10
2.55405e-08
7.11722e-10
-5.947e-10
1.88767e-08
4.83157e-09
2.88291e-10
2.85787e-08
-2.77625e-09
-1.25308e-09
2.51239e-08
-1.0373e-09
2.96904e-09
2.0195e-08
3.64801e-09
1.35512e-08
2.1093e-09
-9.4824e-10
5.13952e-09
2.02375e-08
-6.4819e-10
-4.01477e-10
9.28584e-10
1.42385e-08
9.54491e-10
2.02225e-09
1.56355e-08
1.26855e-09
7.69589e-10
1.75914e-08
8.19372e-10
1.61198e-09
2.53611e-08
1.36406e-09
-4.2399e-10
1.50308e-08
8.81018e-10
-5.1577e-10
2.18844e-08
-6.93091e-10
2.57604e-08
-6.63817e-10
-3.67141e-09
-4.42985e-09
5.81344e-08
-6.91947e-09
-5.91293e-10
-5.3209e-10
1.25307e-08
-2.44504e-10
-4.81082e-10
2.51154e-08
1.96825e-09
1.3762e-09
2.03353e-08
-9.97915e-10
2.24721e-09
1.66767e-08
9.24821e-10
5.23428e-10
1.94147e-08
3.66031e-10
-1.93965e-09
1.64275e-08
-3.02637e-09
2.27794e-08
-1.97483e-09
-7.01976e-10
2.4133e-08
2.37265e-09
-1.74541e-09
4.34312e-11
1.62899e-08
7.28891e-11
1.45307e-09
1.35962e-08
1.66525e-10
3.95445e-09
1.55319e-08
-1.51387e-09
-2.81579e-09
3.60353e-08
-2.42741e-09
-1.07199e-09
2.07756e-08
8.93281e-11
-1.62005e-09
2.42442e-08
3.46866e-09
1.50712e-08
1.74e-09
-1.00442e-09
-1.31707e-10
-4.44024e-09
3.30884e-08
-2.62992e-09
-1.81866e-09
-1.65352e-09
-7.04862e-10
1.89739e-08
9.28224e-10
-9.02025e-10
-5.98102e-09
2.52782e-08
1.16631e-09
3.42501e-10
-2.86841e-09
2.4772e-08
1.13358e-09
-1.30313e-10
-4.8056e-09
2.55022e-08
-1.8424e-10
-3.25349e-10
-3.35037e-09
2.07619e-08
2.98905e-10
1.47576e-09
-2.00214e-09
1.34652e-08
4.82571e-09
-2.33564e-09
2.63355e-08
-2.08352e-10
-4.71448e-09
3.01656e-09
1.6346e-09
2.22511e-08
1.02764e-09
-6.23035e-09
-9.64157e-10
2.73882e-08
-3.93173e-10
2.87173e-09
1.45472e-08
3.9689e-10
6.66875e-10
2.68352e-08
-2.04128e-10
-6.5601e-10
9.90743e-09
-5.79456e-11
-1.48443e-09
1.05572e-08
2.19514e-09
-2.43211e-09
1.61132e-08
8.14849e-11
2.06742e-08
2.52026e-09
3.19806e-10
2.00423e-09
2.45631e-08
-1.6741e-09
-1.61204e-09
2.32078e-09
1.72675e-08
-2.91643e-09
1.37235e-09
1.67865e-08
-8.91521e-10
1.74323e-09
1.74614e-08
-7.94473e-10
4.54064e-10
1.90874e-08
-2.58103e-09
-8.16536e-10
2.65475e-08
3.33181e-09
2.34093e-09
1.02194e-08
1.86972e-09
1.48692e-08
3.33291e-09
-2.95624e-10
-2.87643e-09
2.33322e-08
-5.25275e-09
-4.14154e-09
-2.77555e-09
3.29865e-08
-6.03074e-09
-5.45258e-11
1.89574e-08
-1.55691e-09
2.41786e-09
2.24009e-08
-1.32178e-09
1.86292e-09
7.90074e-09
1.7375e-09
5.50627e-09
1.85275e-08
3.13545e-09
2.11639e-09
1.10759e-08
3.69243e-09
3.52673e-08
1.37577e-09
-3.12544e-10
7.52275e-10
2.38836e-08
-2.46227e-09
2.74765e-11
1.33966e-09
1.27359e-08
-1.22944e-09
1.41021e-10
2.66019e-08
6.41151e-10
5.03125e-10
1.89209e-08
-2.88518e-09
-8.14479e-10
3.47823e-08
4.72212e-09
3.13706e-09
1.98858e-08
2.6184e-09
1.46074e-09
2.29543e-08
-2.21239e-10
2.08624e-08
-7.79107e-10
1.21101e-09
1.44622e-09
1.81108e-08
2.21716e-10
-1.26804e-09
5.45467e-10
1.75117e-08
-6.07138e-10
-2.16834e-09
1.72839e-08
-6.62869e-10
1.20873e-09
1.69415e-08
8.89248e-10
3.65504e-09
1.93395e-08
3.01299e-09
2.6405e-09
1.34036e-08
3.2908e-09
1.42601e-09
2.16413e-08
-9.56395e-10
3.00855e-08
-2.99303e-10
2.67833e-09
-3.29381e-09
5.94666e-08
7.2942e-10
-4.76361e-09
-1.41303e-09
2.19311e-08
3.14753e-09
8.84159e-10
1.41518e-08
8.23485e-10
1.81931e-09
2.20488e-08
3.81831e-10
-1.08798e-09
2.18614e-08
1.51969e-09
8.20095e-10
2.00972e-08
3.83306e-10
3.01151e-10
1.86887e-08
-2.76065e-10
2.4307e-08
-1.82471e-09
1.93563e-09
2.58163e-08
-7.52249e-09
6.09781e-10
-2.03782e-09
1.99138e-08
-1.06352e-09
2.00137e-09
1.16299e-08
-1.18871e-09
-4.44307e-09
2.4642e-08
-8.46351e-10
3.43842e-09
2.38421e-08
3.22367e-09
8.50507e-10
2.39131e-08
2.70524e-10
-8.63497e-11
2.813e-08
-2.64785e-09
1.44303e-08
-5.88246e-10
8.66628e-10
1.22162e-09
9.23188e-11
2.98133e-08
2.24149e-10
1.73661e-09
-6.51065e-10
-1.44602e-09
2.2185e-08
1.07175e-10
9.69617e-11
1.18157e-09
2.25637e-08
7.84795e-10
-5.40238e-10
-5.46384e-10
2.19916e-08
3.96378e-09
-1.78275e-10
1.00682e-09
2.52215e-08
-1.08801e-09
5.66856e-10
-5.62529e-10
2.31822e-08
-2.60294e-09
-9.90998e-10
1.45889e-10
1.68913e-08
-2.01435e-09
7.65178e-10
2.45094e-08
1.93012e-10
-1.23511e-10
7.86787e-11
2.39269e-09
2.20067e-08
-2.1351e-09
9.5048e-10
1.43496e-09
2.36353e-08
2.63109e-09
-2.81424e-10
1.43295e-08
5.10646e-09
6.36745e-10
2.31767e-08
1.637e-09
-6.61919e-10
1.50458e-08
1.28111e-09
-1.4808e-09
1.18311e-08
1.73391e-10
8.8608e-10
1.64804e-08
8.56738e-10
2.11522e-08
-3.96393e-10
-2.50988e-09
5.85833e-10
2.02428e-08
8.63689e-09
3.22607e-11
-1.79981e-09
1.79601e-08
-2.6576e-10
-1.73125e-10
1.69762e-08
-7.6184e-11
-4.74045e-10
1.83822e-08
-2.80181e-10
1.82704e-10
1.84465e-08
2.19631e-09
2.10405e-10
2.23795e-08
1.29256e-09
1.51668e-09
1.04923e-08
-6.32631e-10
1.85859e-08
-9.35564e-10
-5.96248e-10
-3.17163e-09
2.71565e-08
5.29227e-10
2.63269e-10
2.91452e-11
3.02979e-08
-1.16802e-09
-4.87935e-10
2.07035e-08
1.11646e-10
-1.1369e-10
2.07605e-08
-8.84198e-10
-2.16282e-09
1.12419e-08
2.44495e-09
1.94881e-10
1.52128e-08
-2.74878e-09
-1.95398e-09
1.9739e-08
1.94299e-09
2.88509e-08
1.09114e-09
-2.20713e-09
-1.33908e-09
2.13006e-08
2.95731e-09
-2.82595e-09
-2.10717e-09
1.5491e-08
-3.32731e-10
-3.00177e-10
2.3921e-08
-1.53783e-09
3.20207e-11
1.99802e-08
7.28728e-10
1.00106e-09
2.93507e-08
2.13856e-10
1.7158e-10
2.04228e-08
3.30874e-10
4.26389e-12
2.08775e-08
-1.18335e-09
2.39794e-08
3.38784e-10
-1.30217e-09
-2.69219e-09
1.99753e-08
7.90743e-10
-2.07064e-09
-2.021e-09
1.81938e-08
-1.06191e-09
-1.78075e-09
1.77557e-08
-3.36341e-10
-5.30403e-10
1.67782e-08
2.00077e-10
-4.2521e-11
1.98468e-08
-7.0861e-10
-1.06976e-09
1.55534e-08
-4.66222e-10
-1.11378e-10
2.15143e-08
-1.88539e-09
2.88353e-08
1.4863e-09
3.78342e-09
2.25777e-09
4.63711e-08
4.36197e-09
-1.56639e-09
3.91427e-10
2.48686e-08
-2.70075e-09
6.89438e-10
1.28158e-08
-5.5767e-11
-8.72201e-10
1.97456e-08
9.47604e-10
-4.36414e-10
2.1252e-08
7.14933e-10
-5.68757e-10
1.98289e-08
-3.00685e-09
-1.17264e-10
2.24162e-08
-3.9194e-09
2.47067e-08
-1.37273e-09
1.33078e-09
2.64082e-08
-4.48244e-10
7.83316e-10
3.0576e-09
2.0571e-08
-1.99285e-09
8.95141e-10
1.42976e-08
1.84368e-10
8.25646e-11
2.40751e-08
5.07497e-10
2.48889e-10
2.35529e-08
-3.13447e-10
-1.82606e-10
2.35601e-08
2.15712e-10
1.06494e-09
2.71653e-08
-4.0033e-10
1.65381e-08
-3.22673e-09
-1.73574e-09
5.50486e-11
1.16934e-09
2.50203e-08
1.74356e-09
1.82474e-09
5.65979e-10
7.56991e-10
2.18857e-08
-9.68326e-10
4.28284e-10
1.59151e-09
2.10889e-08
2.09474e-11
6.45204e-11
3.77653e-10
2.08703e-08
1.10737e-09
4.02987e-10
1.75154e-09
2.40764e-08
-9.45138e-10
5.16312e-10
1.20321e-09
2.1926e-08
-6.0981e-11
-3.42056e-10
7.46021e-10
1.88366e-08
-1.83332e-09
-4.9499e-10
2.27114e-08
7.98553e-10
1.15182e-09
-1.91413e-09
2.91523e-10
2.22551e-08
2.54385e-09
9.37391e-10
5.88422e-10
2.09526e-08
3.94687e-10
-3.27357e-10
1.67908e-08
1.4175e-09
4.11013e-10
2.21203e-08
1.25597e-09
2.12895e-10
1.6746e-08
3.01604e-11
-4.08335e-10
1.4668e-08
-6.79384e-10
6.43025e-10
1.72934e-08
-1.31875e-09
2.19163e-08
-6.20396e-10
-2.11017e-09
-1.79736e-09
2.06573e-08
3.78462e-09
-1.58687e-10
-1.86977e-09
1.84669e-08
1.25615e-10
-1.70748e-09
1.80721e-08
3.86989e-10
-8.80871e-10
1.94112e-08
1.22434e-09
-6.99163e-10
1.85225e-08
3.34805e-09
-9.26492e-10
2.07727e-08
3.8912e-10
-1.45413e-09
1.55473e-08
-2.54495e-09
2.13426e-08
-1.14131e-09
-1.90692e-09
2.87976e-10
2.31946e-08
3.78265e-09
1.67551e-09
1.17695e-09
2.36686e-08
1.06566e-09
-1.37377e-09
2.09789e-08
1.99931e-09
-8.08354e-10
1.97478e-08
2.33854e-09
-3.20369e-09
1.34131e-08
3.85895e-09
-2.29766e-09
1.50648e-08
3.65626e-09
-3.56222e-10
1.88461e-08
-2.22662e-11
2.75415e-08
2.44426e-09
-1.15683e-09
-8.62125e-10
2.10235e-08
2.58446e-09
-2.04715e-09
-1.09038e-09
1.86477e-08
-4.6629e-10
-7.53947e-11
2.10423e-08
-7.9591e-10
-6.73247e-10
2.0181e-08
1.3742e-09
-6.14055e-10
2.45842e-08
1.38312e-10
-1.47234e-09
2.0831e-08
-2.96046e-10
-1.11799e-09
2.20721e-08
-2.82935e-10
2.36589e-08
2.84705e-10
-1.11546e-09
-3.29791e-09
2.16015e-08
1.92456e-09
-6.24423e-10
-1.55948e-09
1.81712e-08
-6.91961e-10
-1.44144e-10
1.78911e-08
-9.22117e-10
-1.3945e-09
1.77306e-08
-7.64927e-10
-1.15662e-09
2.02312e-08
-2.42443e-09
-1.87503e-09
1.7616e-08
-2.70468e-09
-8.86797e-10
2.15636e-08
1.50155e-09
2.4077e-08
2.69233e-10
1.69108e-09
3.37155e-09
3.31263e-08
4.88397e-09
1.83882e-09
4.97852e-10
2.26629e-08
-1.6112e-09
-4.97742e-10
1.66192e-08
-1.22449e-09
-1.3448e-09
1.93097e-08
-1.20179e-09
-1.13687e-09
2.12096e-08
-2.02971e-09
-1.25703e-09
2.00393e-08
-1.24218e-09
-4.80943e-10
2.12233e-08
2.65268e-09
2.22134e-08
1.00035e-10
-3.08518e-10
2.65781e-08
1.75884e-09
1.7513e-09
-3.58342e-10
2.13839e-08
-2.64728e-10
-2.98752e-09
1.70138e-08
-5.85944e-10
-1.53587e-09
2.05641e-08
7.15436e-10
-1.3441e-09
2.28866e-08
-6.62593e-10
-1.27051e-09
2.24148e-08
-1.85029e-10
1.2471e-09
2.38685e-08
2.98497e-10
2.04173e-08
4.36387e-10
-4.15364e-10
2.71577e-09
2.20573e-09
2.34157e-08
-2.79484e-09
-5.21621e-10
1.74966e-09
2.08673e-09
2.23277e-08
-1.56286e-09
3.64933e-10
2.36915e-09
2.14571e-08
-1.35301e-09
-2.46661e-10
1.42879e-09
2.12096e-08
-1.15641e-09
6.09984e-10
3.59334e-09
2.21056e-08
-2.47969e-09
2.83395e-12
2.93048e-09
2.1306e-08
-1.70284e-09
-1.51928e-09
2.18975e-09
2.07918e-08
-2.62196e-09
8.04917e-10
2.19977e-08
-3.64686e-10
-1.24498e-09
1.54247e-09
1.20262e-09
2.2032e-08
-3.16256e-10
1.80975e-09
1.34389e-09
2.14275e-08
3.00524e-10
6.82968e-10
1.99859e-08
1.42654e-09
1.40941e-09
2.10137e-08
8.29498e-10
1.3456e-09
1.95901e-08
-1.10299e-09
4.66759e-10
1.90651e-08
-2.6516e-09
1.02562e-09
2.00074e-08
6.82766e-11
2.19898e-08
-1.98772e-09
1.71855e-09
1.35956e-10
2.14825e-08
-1.4771e-09
1.16757e-09
-2.51301e-10
2.06128e-08
3.42485e-10
-5.48148e-10
2.01283e-08
5.69655e-10
3.29005e-10
2.02653e-08
2.85158e-10
3.48058e-10
1.9804e-08
4.31469e-10
4.39095e-10
2.06543e-08
-2.03683e-09
-8.35188e-10
1.98772e-08
-1.20865e-09
2.20513e-08
-1.46772e-09
9.36752e-10
3.58938e-10
2.22285e-08
-1.94738e-10
1.69474e-09
7.31445e-10
2.19273e-08
1.47301e-09
-2.14295e-10
2.08662e-08
1.93348e-09
-4.8157e-10
2.0096e-08
2.82895e-10
-2.87167e-09
1.82851e-08
-1.37564e-09
-2.0922e-09
1.92555e-08
-2.3918e-09
-1.62142e-09
2.06494e-08
-1.86634e-10
2.39315e-08
1.96029e-10
1.55588e-09
-7.77161e-10
2.20116e-08
-1.40819e-09
4.129e-10
-1.71283e-10
2.06928e-08
6.68888e-11
4.4024e-10
2.07335e-08
-6.9098e-10
-4.98983e-11
2.0508e-08
1.84454e-10
-7.29245e-10
2.15648e-08
-9.52121e-10
-9.77324e-10
2.08556e-08
-1.33392e-09
-1.06018e-09
2.18964e-08
-3.5405e-10
2.28228e-08
-3.27585e-10
2.01778e-09
-2.84229e-09
2.26558e-08
-1.00772e-09
1.16279e-09
-1.78689e-09
2.06412e-08
8.24803e-11
-5.07603e-10
1.99186e-08
-9.53107e-10
-1.11069e-09
1.98266e-08
-6.95877e-10
-1.34315e-09
2.05876e-08
-2.25241e-09
-1.91256e-09
2.01082e-08
-2.09959e-09
-1.34871e-09
2.16999e-08
-5.72292e-10
2.28679e-08
-6.72623e-10
3.2665e-09
1.7543e-10
2.59348e-08
9.06679e-10
2.70985e-09
-1.01639e-09
2.24483e-08
-6.83829e-11
-1.22121e-09
2.01105e-08
-1.25441e-09
-1.22354e-09
2.06082e-08
-1.00843e-09
-1.6875e-09
2.1308e-08
-1.78275e-09
-2.18425e-09
2.10857e-08
-1.43571e-09
-2.2896e-09
2.18173e-08
-1.50877e-09
2.24778e-08
-7.6351e-10
1.99786e-09
2.396e-08
6.47468e-10
1.47606e-10
1.77855e-09
2.21799e-08
-1.59354e-09
-7.31885e-10
2.03655e-08
-2.06315e-09
-1.85359e-09
2.11042e-08
-6.42261e-10
-1.54767e-09
2.21876e-08
-1.29493e-09
-1.96232e-09
2.22735e-08
-1.62788e-09
-8.47535e-10
2.30674e-08
-2.60281e-09
2.27191e-08
-3.79492e-09
-8.63147e-10
9.00178e-10
1.23365e-09
2.27049e-08
-7.04747e-10
-7.18543e-10
8.64582e-10
1.37191e-09
2.22632e-08
-1.27252e-09
4.16529e-10
1.46114e-09
2.18113e-08
-1.36779e-09
1.18784e-10
1.26771e-09
2.16627e-08
-1.42393e-09
3.06495e-10
1.79277e-09
2.18286e-08
-1.7032e-09
-3.60075e-11
1.35522e-09
2.15693e-08
-1.27575e-09
-5.25068e-10
8.29122e-10
2.15461e-08
-1.09414e-09
-4.61018e-11
2.19348e-08
1.44411e-10
-5.60537e-10
6.22236e-10
6.10501e-10
2.20183e-08
1.38838e-11
8.60902e-10
8.27815e-10
2.17323e-08
3.61119e-10
6.96239e-10
2.12504e-08
4.88236e-10
8.63658e-10
2.12889e-08
9.04729e-11
8.01097e-10
2.09803e-08
-6.97603e-10
3.20555e-10
2.08876e-08
-1.26842e-09
1.7584e-10
2.12314e-08
-2.91984e-10
2.19501e-08
-9.82971e-10
8.64731e-10
4.29735e-11
2.18427e-08
-6.57771e-10
7.70224e-10
8.67111e-11
2.14481e-08
3.90723e-10
7.18248e-11
2.11323e-08
1.90934e-10
2.80262e-10
2.10462e-08
-3.19634e-10
2.28235e-10
2.08884e-08
-5.43382e-10
2.01118e-11
2.11778e-08
-1.38753e-09
-4.23599e-10
2.13208e-08
-7.09104e-10
2.20878e-08
-1.00732e-09
7.33148e-10
-1.25113e-10
2.19948e-08
-3.31861e-10
9.61937e-10
9.87487e-11
2.16859e-08
7.22837e-10
-6.76474e-11
2.12436e-08
4.63134e-10
-2.85576e-10
2.09141e-08
-5.18523e-10
-1.00728e-09
2.05083e-08
-1.27406e-09
-8.6643e-10
2.08975e-08
-1.75068e-09
-8.72957e-10
2.15749e-08
-3.96204e-10
2.25472e-08
-6.79523e-10
1.10841e-09
-4.7607e-10
2.21308e-08
-8.77289e-10
6.88757e-10
-2.78495e-10
2.14896e-08
2.67889e-10
-1.2539e-10
2.12131e-08
-3.13061e-10
-2.99727e-10
2.11091e-08
-4.50998e-10
-6.19772e-10
2.13074e-08
-1.13622e-09
-6.89784e-10
2.13633e-08
-1.30355e-09
-7.01683e-10
2.18928e-08
-5.03535e-10
2.23954e-08
-7.68429e-10
1.26692e-09
-8.74937e-10
2.24463e-08
-6.59032e-10
9.03759e-10
-8.33319e-10
2.15584e-08
1.9966e-10
-5.82708e-10
2.10792e-08
-4.77355e-10
-7.97185e-10
2.10011e-08
-7.15394e-10
-1.01567e-09
2.1221e-08
-1.43359e-09
-1.13563e-09
2.12728e-08
-1.43247e-09
-8.86607e-10
2.18839e-08
-5.40987e-10
2.24148e-08
-9.42087e-10
1.34791e-09
3.64014e-10
2.32877e-08
5.96767e-11
1.20588e-09
-4.18817e-10
2.21757e-08
7.65623e-11
-6.86367e-10
2.13432e-08
-6.31978e-10
-8.25995e-10
2.13452e-08
-7.98668e-10
-1.14373e-09
2.16029e-08
-1.20533e-09
-1.30431e-09
2.16612e-08
-1.10707e-09
-1.21867e-09
2.20513e-08
-8.4323e-10
2.24306e-08
-7.57862e-10
5.79583e-10
2.27908e-08
5.75837e-10
3.7754e-10
6.68593e-10
2.21746e-08
-5.02756e-10
-2.85004e-10
2.15274e-08
-8.9474e-10
-9.71229e-10
2.16144e-08
-6.50718e-10
-1.00043e-09
2.20504e-08
-9.77279e-10
-1.15698e-09
2.22131e-08
-1.08721e-09
-7.21669e-10
2.25994e-08
-1.18593e-09
2.27779e-08
-1.22374e-09
-4.0033e-10
5.85621e-10
9.40174e-10
2.24803e-08
-4.77635e-10
-8.23915e-10
5.71283e-10
9.02396e-10
2.22761e-08
-9.01151e-10
3.55884e-10
8.63603e-10
2.20512e-08
-8.88008e-10
1.50592e-10
8.04256e-10
2.19489e-08
-8.85122e-10
7.06118e-11
8.55889e-10
2.19503e-08
-8.97604e-10
-1.65942e-10
6.4993e-10
2.18753e-08
-7.19769e-10
-3.76103e-10
4.21407e-10
2.19129e-08
-5.7843e-10
1.17874e-10
2.20569e-08
-1.35976e-10
-4.80365e-10
4.25301e-10
5.33531e-10
2.2129e-08
-1.29562e-10
5.00601e-10
5.75125e-10
2.19842e-08
3.02764e-10
5.31452e-10
2.17805e-08
1.70733e-10
5.20777e-10
2.1704e-08
-7.69987e-11
4.62159e-10
2.16219e-08
-4.10871e-10
2.44085e-10
2.16266e-08
-6.32889e-10
9.60051e-11
2.17785e-08
-8.07804e-11
2.20502e-08
-5.34525e-10
4.94454e-10
1.88131e-10
2.20268e-08
-3.33326e-10
4.73038e-10
2.05331e-10
2.18393e-08
2.71341e-10
2.04159e-10
2.16617e-08
4.86259e-11
2.13535e-10
2.1575e-08
-2.73573e-10
1.49501e-10
2.15243e-08
-4.99128e-10
1.91365e-12
2.16439e-08
-7.24102e-10
-1.71131e-10
2.18122e-08
-2.81714e-10
2.21086e-08
-5.44214e-10
4.70818e-10
-7.22253e-11
2.20302e-08
-2.4619e-10
4.98469e-10
1.79234e-11
2.18451e-08
3.1285e-10
-9.79441e-12
2.16421e-08
3.54578e-11
-1.08945e-10
2.15041e-08
-4.03595e-10
-3.14891e-10
2.14208e-08
-7.49525e-10
-3.40948e-10
2.15877e-08
-8.57321e-10
-3.80927e-10
2.1893e-08
-3.15522e-10
2.22358e-08
-5.12034e-10
5.99237e-10
-2.45321e-10
2.21325e-08
-4.28291e-10
4.57678e-10
-1.93106e-10
2.18421e-08
1.71208e-10
-1.62628e-10
2.16533e-08
-1.63679e-10
-2.37215e-10
2.15816e-08
-4.31823e-10
-3.75618e-10
2.16266e-08
-7.34575e-10
-4.15401e-10
2.17388e-08
-7.90503e-10
-4.38193e-10
2.20052e-08
-4.23719e-10
2.2264e-08
-5.51663e-10
6.42372e-10
-3.62183e-10
2.22743e-08
-3.53863e-10
4.99339e-10
-4.02641e-10
2.19107e-08
1.26998e-10
-3.79802e-10
2.16677e-08
-2.53908e-10
-4.5904e-10
2.16054e-08
-5.13769e-10
-5.77862e-10
2.16814e-08
-8.14439e-10
-6.26053e-10
2.17844e-08
-8.44488e-10
-5.82827e-10
2.20586e-08
-5.22243e-10
2.23241e-08
-6.5549e-10
6.03061e-10
-5.53531e-11
2.25046e-08
-1.26909e-10
5.24337e-10
-2.79533e-10
2.21314e-08
6.4941e-11
-3.99692e-10
2.18222e-08
-3.38655e-10
-4.84578e-10
2.17748e-08
-5.5505e-10
-6.38479e-10
2.18794e-08
-7.73885e-10
-7.2166e-10
2.19757e-08
-7.75107e-10
-7.23987e-10
2.21937e-08
-6.7764e-10
2.24161e-08
-6.05482e-10
3.428e-10
2.23832e-08
4.56153e-11
-3.62146e-11
3.27634e-10
2.21711e-08
-2.6062e-10
-8.15686e-11
2.1934e-08
-3.97209e-10
-4.91742e-10
2.19258e-08
-3.85594e-10
-6.55978e-10
2.21042e-08
-5.28024e-10
-7.93118e-10
2.22377e-08
-6.09059e-10
-7.12985e-10
2.24527e-08
-6.57592e-10
2.26272e-08
-7.38191e-10
-5.02026e-10
2.55726e-10
5.27576e-10
2.23618e-08
-1.66408e-10
-4.98362e-10
2.76913e-10
5.15904e-10
2.22658e-08
-5.26939e-10
2.00036e-10
4.94855e-10
2.21591e-08
-5.25753e-10
1.03809e-10
4.66396e-10
2.20967e-08
-5.17882e-10
3.04766e-11
4.37747e-10
2.20759e-08
-4.90287e-10
-8.2197e-11
3.29103e-10
2.2053e-08
-3.94118e-10
-1.63703e-10
2.01815e-10
2.2077e-08
-2.84386e-10
5.1268e-11
2.21344e-08
-7.97769e-11
-2.12419e-10
2.1143e-10
3.32952e-10
2.21854e-08
-7.34307e-11
2.47079e-10
3.5257e-10
2.21118e-08
1.69125e-10
3.37199e-10
2.20162e-08
6.68473e-11
3.1148e-10
2.19616e-08
-6.70851e-11
2.61779e-10
2.19313e-08
-2.09617e-10
1.53575e-10
2.19446e-08
-2.9412e-10
4.93262e-11
2.20156e-08
-5.23578e-11
2.2123e-08
-2.63055e-10
2.4385e-10
1.57313e-10
2.21174e-08
-1.58928e-10
2.38916e-10
1.69873e-10
2.20269e-08
1.39748e-10
1.6168e-10
2.19365e-08
2.61209e-12
1.39868e-10
2.18844e-08
-1.68331e-10
8.72601e-11
2.18688e-08
-3.00704e-10
5.37862e-12
2.19241e-08
-3.7328e-10
-8.52632e-11
2.20192e-08
-1.53429e-10
2.21458e-08
-3.09504e-10