/*--------------------------------*- C++ -*----------------------------------*\
| =========                 |                                                 |
| \\      /  F ield         | OpenFOAM: The Open Source CFD Toolbox           |
|  \\    /   O peration     | Version:  2506                                  |
|   \\  /    A nd           | Website:  www.openfoam.com                      |
|    \\/     M anipulation  |                                                 |
\*---------------------------------------------------------------------------*/
FoamFile
{
    version     2.0;
    format      ascii;
    arch        "LSB;label=32;scalar=64";
    class       volVectorField;
    location    "0.03";
    object      U;
}
// * * * * * * * * * * * * * * * * * * * * * * * * * * * * * * * * * * * * * //

dimensions      [0 1 -1 0 0 0 0];

internalField   nonuniform List<vector> 
4608
(
(-0.00143175 -0.00105411 0.0103144)
(-0.00110472 0.000319843 0.00846896)
(-0.00112146 -0.000733767 0.00842072)
(-0.000853008 -0.000340128 0.0131812)
(0.000481355 -0.000450353 0.00798111)
(0.000328595 -0.000574427 0.0139801)
(-0.000337198 -0.000512778 0.00878996)
(0.000865956 -0.00146285 0.00959222)
(0.000576195 -0.00108628 0.00903858)
(-0.000904873 -0.00107525 0.0131753)
(-0.00195251 -0.00184529 0.0111775)
(-0.000467243 -0.000499268 0.00836548)
(0.000313089 -0.000848799 0.0147518)
(-5.26137e-05 -0.000867354 0.00738196)
(-5.15775e-05 -0.00046752 0.00985084)
(0.00055602 4.86909e-05 0.00858113)
(0.000148806 -0.000500961 0.00880467)
(-0.000779706 -2.37084e-05 0.00644687)
(-0.000611893 -0.000236994 0.00702221)
(5.59407e-05 0.000694066 0.00970184)
(-0.000486243 -0.000380533 0.0098547)
(0.000225077 -0.00125483 0.0114155)
(0.000708909 8.99401e-05 0.00792548)
(0.00068572 -3.59338e-05 0.0150834)
(2.8797e-05 -0.000382708 0.00740143)
(-0.000748105 -0.00234001 0.020157)
(-0.000269735 0.000436777 0.0084991)
(-0.00131772 0.00117606 0.0184847)
(-0.00166344 0.000693174 0.00858037)
(0.000165253 0.000584167 0.00640596)
(0.000646398 0.000647156 0.00609146)
(0.000398566 0.000143177 0.00253315)
(-0.000968257 -0.00081002 0.0112889)
(-7.39509e-05 -0.0004784 0.00468019)
(0.000273823 -4.46242e-05 0.00422836)
(0.000212961 -0.00151635 0.010412)
(-0.000135793 0.000349154 0.00936538)
(0.00089102 0.00147531 0.0113936)
(0.00125613 0.00120733 0.0148278)
(-1.79755e-05 0.00178721 0.0130219)
(-0.000759541 0.000814755 0.00783195)
(2.71763e-05 0.000396094 0.00978616)
(-0.00034707 0.000494281 0.00973081)
(3.1632e-05 -0.000503288 0.00557197)
(0.000863659 0.000261988 0.0136148)
(0.000443968 0.000133972 0.00714191)
(0.00101525 0.000424498 0.00815966)
(0.00103309 0.000856915 0.0102872)
(-0.00270636 0.0012239 0.0152318)
(-0.000689605 0.000670672 0.00768732)
(-0.000874734 0.00051921 0.0110825)
(4.90773e-05 0.000410199 0.00546884)
(0.00162298 0.000755464 0.0139045)
(0.000707797 0.00214514 0.00806904)
(0.00105983 0.00135017 0.00859414)
(0.00078498 0.00106147 0.00963444)
(-0.00139145 0.000372675 0.00694644)
(-7.6451e-05 0.002246 0.00735006)
(5.89184e-05 0.000578303 0.0070999)
(0.000469602 0.00154062 0.0105027)
(0.00134919 0.000496151 0.00700952)
(0.000913079 0.00103297 0.00644338)
(5.21687e-05 0.000696167 0.00870941)
(0.000356352 0.000923153 0.0167426)
(-0.000437502 -0.000115571 0.0158504)
(-0.00146841 -0.00222081 0.0263881)
(-0.00100928 -0.000426984 0.012891)
(-0.000203243 -0.000609366 0.0104673)
(0.000108802 -0.000455068 0.00982678)
(0.000155996 0.000102835 0.0195047)
(0.000620287 -0.000628991 0.0142707)
(0.000370902 -0.000717636 0.0133166)
(-0.00223023 -0.00037328 0.0184196)
(-0.000777286 -4.84373e-05 0.0123696)
(-0.00038684 -6.55207e-05 0.0195331)
(-0.000860919 0.00112173 0.0128047)
(0.000370089 -0.000417193 0.0116797)
(0.00166915 0.00064887 0.0207578)
(-7.47138e-05 0.00019536 0.0157969)
(0.000551081 -0.000486642 0.0129922)
(-0.000385669 -0.000153703 0.017401)
(-0.000672053 -0.00178448 0.0214077)
(-5.25246e-05 -6.71133e-05 0.00844908)
(-0.000555888 -2.89532e-06 0.0111381)
(-0.000250643 0.000716811 0.00889534)
(0.00095464 0.000301376 0.0111909)
(-0.000257481 0.00052466 0.0157619)
(0.000578686 0.000902738 0.0150027)
(-0.00255168 -0.00119465 0.0167497)
(-0.00135297 0.000256815 0.0150631)
(0.000790821 0.000167432 0.0127122)
(0.00046724 -0.00125513 0.0172242)
(0.000445015 0.000403367 0.013753)
(0.00051719 -0.000342218 0.00870493)
(0.00137989 -0.000614757 0.0227877)
(0.000286524 0.00143179 0.0197094)
(0.000152047 -0.000153168 0.010908)
(0.000899315 0.0014199 0.0161445)
(-0.00139296 0.000485419 0.0246983)
(-0.000702776 8.35357e-05 0.019449)
(-0.00038637 0.00044721 0.0178757)
(0.000157349 0.000134226 0.0181844)
(0.00128584 -0.000121379 0.0137659)
(0.000335691 -0.000203476 0.0101482)
(-0.000484992 0.000401555 0.0106419)
(-0.000157306 -0.000309643 0.0121647)
(-5.57913e-05 -0.000585416 0.0181151)
(0.000575741 0.000282364 0.0159522)
(0.000222202 -0.000342521 0.00858708)
(0.000114564 0.00111938 0.0155163)
(0.000250505 0.000647108 0.0148222)
(0.0004376 -0.000408054 0.0155755)
(-2.46776e-05 0.000919357 0.0135676)
(7.76001e-05 0.000896216 0.017614)
(-0.000128774 0.000834263 0.0194482)
(-0.000636328 0.00029381 0.0153113)
(0.000246603 0.000257467 0.0117073)
(0.00128734 0.000864281 0.0128804)
(-9.80503e-05 0.000495775 0.0210454)
(0.000670449 -0.000348815 0.0126541)
(5.57495e-05 0.000714779 0.0123563)
(-0.000460814 0.000280693 0.0143699)
(-0.000754141 0.000905381 0.0205007)
(0.000155813 0.000243091 0.00786667)
(0.00115875 0.00192088 0.0187302)
(0.000379016 0.00122881 0.0336452)
(-0.000999439 0.00101038 0.0172561)
(0.000596484 0.000998917 0.00715783)
(0.000803647 -0.000152939 0.018488)
(0.000169149 -0.000784558 0.0191953)
(0.000944316 4.27373e-06 0.0148588)
(-0.000661218 -0.000177056 0.0167628)
(-0.00176607 0.000742055 0.0205782)
(-0.000465178 -0.000219016 0.0179728)
(0.000461503 9.68265e-05 0.0161335)
(-0.000378022 0.00130129 0.0175358)
(-0.000374544 -0.000647183 0.0164795)
(0.000312239 -0.000522426 0.012579)
(0.000477445 -0.000981883 0.0162002)
(0.00018704 -0.000910586 0.0133876)
(-0.000558892 0.000115215 0.0146135)
(-0.000623028 0.000542348 0.0206064)
(0.000782228 -0.000279979 0.0154828)
(0.000144277 -9.87376e-05 0.0123348)
(-0.000555599 9.7643e-05 0.0140884)
(-0.00028971 -0.000990054 0.0286335)
(0.000336316 -0.000804561 0.0131068)
(0.00064518 -0.00274571 0.0295373)
(0.000233358 -0.000294825 0.0128973)
(-0.000738065 0.00111497 0.0234679)
(-0.000171293 -0.000696717 0.0189662)
(0.000340601 -0.00115582 0.0167889)
(-0.000559311 0.00169864 0.0222778)
(-0.000280203 0.000326524 0.00911603)
(-0.000221524 -0.000137408 0.0114229)
(0.00128023 -0.00123354 0.030084)
(0.00147874 -0.000736111 0.0179063)
(-0.000133104 -0.000725466 0.012659)
(-0.000771224 -0.000313717 0.0155892)
(0.00016395 -0.000167821 0.0163365)
(2.83751e-05 0.000230777 0.00662183)
(-0.00254592 0.000810283 0.0264948)
(-0.000758811 0.000209794 0.0153239)
(-0.000183697 0.000425295 0.016535)
(-0.000226732 3.0673e-05 0.0155932)
(-0.000122104 -0.000666059 0.0118726)
(0.000925842 -0.000582014 0.0230816)
(0.000247794 -0.000122516 0.0306264)
(0.000229705 -0.00102112 0.0150655)
(-0.000950815 -0.000445586 0.0144444)
(-0.000349917 -0.00022859 0.0138769)
(0.000121098 0.000317397 0.00592815)
(-7.59587e-05 0.000338093 0.0326811)
(-0.000849838 0.00060513 0.0144094)
(-0.000180256 -0.000271888 0.0185007)
(0.000466674 0.000216063 0.0175104)
(-0.000250092 -0.000254722 0.0212968)
(-0.000726369 -0.000184757 0.0186183)
(0.000518982 0.0001113 0.0118085)
(0.000410307 0.000264214 0.0158783)
(-0.000229441 -0.000114459 0.00846962)
(-0.000589005 -0.00049051 0.017518)
(0.000146669 0.000689264 0.0161336)
(0.00134714 0.00122959 0.0167793)
(0.000504529 0.00046804 0.0196795)
(-0.000900676 -0.00180698 0.0191227)
(0.000183344 0.00134154 0.0169429)
(0.000445587 7.27523e-05 0.0175312)
(-0.000731598 0.00046917 0.0186495)
(0.00020813 0.000273919 0.0217248)
(0.00134607 0.000842935 0.0136579)
(0.00101325 0.000749991 0.0172735)
(-0.000450561 -0.000401307 0.0332728)
(0.000295168 0.000238865 0.0209944)
(0.0013653 0.00109987 0.0236801)
(-0.000609088 0.00150843 0.0228551)
(-0.000678749 -0.00052399 0.0117756)
(0.000255517 -0.00121846 0.0196148)
(0.00044434 0.000471584 0.0125296)
(0.000283816 0.000443545 0.0177162)
(0.000354716 -0.000343696 0.0121371)
(0.000428766 -0.000900123 0.0170045)
(0.00136046 -0.000717914 0.0203499)
(-0.000773583 -0.00148205 0.0162299)
(-0.00221398 0.000443386 0.0210938)
(0.000372394 0.000475219 0.0173659)
(0.00117929 0.000573898 0.0184804)
(-6.97937e-05 0.000438037 0.0232827)
(9.73281e-05 -0.00161498 0.0233072)
(-1.60701e-06 -0.000226471 0.0131112)
(9.54012e-05 -0.000874053 0.0126816)
(0.000443605 -0.00230536 0.0159775)
(0.000811094 8.54582e-06 0.0143091)
(0.000400526 0.00133286 0.0159205)
(0.000198955 -7.78456e-05 0.00943883)
(-0.000751887 0.000159045 0.0170356)
(0.00123455 0.00041232 0.0165121)
(0.000363661 0.000665415 0.0162747)
(-0.000659387 0.000374552 0.0115129)
(9.69954e-05 0.000392781 0.00734899)
(0.00255277 0.000750207 0.0195034)
(0.000448539 -3.48822e-05 0.0197895)
(-0.000222131 -0.00118923 0.0191165)
(-0.000333861 -0.00101327 0.0133574)
(-0.000249954 0.00216046 0.0269102)
(0.000326241 8.22508e-05 0.0178997)
(0.000741704 0.00120793 0.0251098)
(0.000509455 0.00229212 0.0177327)
(-0.000184407 -0.000173654 0.015696)
(-0.000825336 -0.000831723 0.0120428)
(-0.000907086 -0.000291697 0.0159422)
(0.00042995 -0.00114265 0.0199863)
(-4.88414e-05 0.0015819 0.0188864)
(1.29996e-05 0.000146783 0.0149414)
(0.000892024 0.000302686 0.0162003)
(-0.000591855 0.000207331 0.0131465)
(-0.00162038 -0.000580149 0.0232661)
(0.000200726 -0.00025913 0.0161312)
(-8.47245e-05 -1.95225e-05 0.00892289)
(-0.000251984 0.000716899 0.0139552)
(3.51572e-05 -0.000229997 0.0140243)
(-0.000563404 -0.000211922 0.0138016)
(0.000467088 -0.000464599 0.0160139)
(-0.000489936 -0.000753961 0.023684)
(-0.000444657 0.000136351 0.0102993)
(-0.000903516 4.28355e-05 0.0215344)
(-1.92298e-05 0.000507824 0.0143729)
(-7.38684e-05 0.000160322 0.0130481)
(0.000433914 -0.0016846 0.0227909)
(-0.000632559 0.00105344 0.0207085)
(0.000474178 -0.000431488 0.0140922)
(5.6999e-05 -0.000287197 0.00454787)
(-0.000717414 -0.000238637 0.0236202)
(0.000645889 0.000368989 0.0195597)
(0.000161397 0.000933412 0.0193145)
(-0.00089461 -0.00101141 0.0185541)
(-0.0013775 -0.000319719 0.0208049)
(0.000285258 -0.000321983 0.0118428)
(0.000255181 -0.000287883 0.014808)
(0.002064 0.000125245 0.0231431)
(0.000376715 -0.00181121 0.0127565)
(-0.000570585 -0.000701058 0.0108847)
(-0.000161993 -0.000818398 0.0186795)
(0.000733319 -2.19395e-05 0.014615)
(0.000474545 0.000751278 0.0253586)
(-0.000174183 0.000480601 0.0152507)
(-0.000102468 0.00103177 0.0248699)
(-0.000435544 0.00154113 0.0329988)
(-0.000147369 -0.000409937 0.00586872)
(-0.00010578 -9.57088e-05 0.0112272)
(0.000574733 -0.000116622 0.0165817)
(0.00207588 -0.000132523 0.019187)
(-0.00035941 -0.000526943 0.0183443)
(0.000358756 0.000655312 0.0170244)
(0.000107333 0.000827693 0.0118653)
(-0.000212814 0.00152683 0.0139438)
(-0.000355428 0.000172242 0.01861)
(-0.000301751 0.000748864 0.0179737)
(-0.000345086 0.00032434 0.0232684)
(0.00046062 0.000524255 0.017354)
(-0.000108827 -0.000107158 0.0140231)
(0.00116346 -0.000448061 0.0147968)
(0.000380972 -0.000214033 0.00695563)
(-0.00117922 -7.39878e-05 0.0161543)
(-0.000859802 0.000208727 0.00895255)
(-0.000132879 0.00279941 0.0278185)
(0.000254982 0.000467387 0.0123543)
(0.00103622 0.000577559 0.0299997)
(-0.000256044 0.000512314 0.012075)
(-0.000135083 -0.000587325 0.0195065)
(0.00123575 -0.00195789 0.0271642)
(0.000694775 -0.00139295 0.0155888)
(0.00254266 0.00120721 0.0304457)
(-1.5899e-05 0.000208068 0.00673416)
(-0.00172311 0.00169769 0.0200387)
(0.000497098 0.000835812 0.0139095)
(-0.000188618 0.00143295 0.0170601)
(-0.000343074 0.000643345 0.0107789)
(7.88975e-05 0.000698869 0.0156123)
(0.000774326 6.47043e-05 0.0197882)
(0.000618325 0.000564382 0.0159607)
(0.000569226 -0.000713047 0.0112912)
(0.0008157 0.000674879 0.0194749)
(3.18251e-05 0.00111519 0.0175769)
(0.0013371 0.000377239 0.0394458)
(-0.000514641 0.000100665 0.0116594)
(-0.000374481 0.000524891 0.0210591)
(0.000600196 0.00056889 0.0138875)
(0.000308 0.00129235 0.0147671)
(6.35404e-05 2.214e-05 0.0140423)
(0.000342698 -0.000464548 0.0109947)
(-0.0004538 -0.0012324 0.0164171)
(0.000443105 5.41286e-06 0.0205502)
(-7.58547e-05 -0.000156404 0.0087624)
(0.00034525 -0.000100143 0.013088)
(0.00207313 -0.000156154 0.0205054)
(0.000122411 1.48968e-05 0.0126275)
(-0.00126251 0.00018771 0.0160469)
(-0.00100838 4.34852e-05 0.026472)
(-0.000586448 -0.00023071 0.01452)
(0.00042162 -0.000330232 0.00905067)
(-0.000512995 -0.000487818 0.00989128)
(-0.00089245 -0.00195754 0.0113313)
(-0.000300979 -0.0013809 0.00826413)
(0.000378867 -0.00157653 0.0122256)
(-0.000347242 -0.00146972 0.0117352)
(0.000408953 -0.00163592 0.00759813)
(-0.00016628 -0.000639641 0.0090669)
(0.000591347 -0.00111186 0.013851)
(-0.000822276 -0.000505836 0.00861503)
(-0.00247441 -0.000862093 0.013135)
(1.05391e-05 -0.000771501 0.00762198)
(0.000106212 -0.00140832 0.0113044)
(-0.000143658 -0.00110962 0.00794375)
(0.000629099 -0.00154958 0.00896243)
(0.001103 -0.000775616 0.0112746)
(0.000639488 0.00134221 0.0114859)
(-0.000446963 0.000212469 0.00890043)
(-0.00114808 0.000988805 0.00840643)
(-0.00139674 0.000610156 0.0135896)
(-0.00037749 9.8074e-06 0.0101668)
(-0.00130551 -0.000824432 0.0150759)
(0.000744074 0.0001353 0.00810658)
(0.00188027 0.000407405 0.00668626)
(0.000575607 -5.65242e-05 0.00553513)
(-0.00133737 -0.000373459 0.0132278)
(-0.00238677 0.000524028 0.0117298)
(-0.0025782 0.00145671 0.0181273)
(-0.000529979 0.000672754 0.00664271)
(0.000174639 0.000705463 0.0102527)
(0.000999368 0.00128783 0.00664167)
(0.00176974 0.0022918 0.0130298)
(0.000753444 -0.00101384 0.0155701)
(-2.29525e-05 -0.000116716 0.00576912)
(-0.000294462 2.30002e-06 0.00670357)
(-0.000259069 0.000614828 0.0102696)
(-0.000238895 0.000553268 0.00772956)
(0.00062881 0.00324104 0.0197926)
(0.00179269 0.00119311 0.00876927)
(0.000531576 0.000644532 0.0062449)
(0.000308116 0.000363212 0.00949402)
(-0.000130517 0.000785266 0.00836521)
(-0.000604573 -0.000380939 0.00661049)
(-0.000297855 0.000354985 0.00571248)
(6.76098e-06 0.000996797 0.0149517)
(0.000958998 0.00122845 0.00965663)
(0.00190549 0.00092503 0.00981106)
(0.000832659 -0.000388527 0.0131405)
(0.000745465 -0.000604172 0.0219302)
(-0.000687034 -0.000183322 0.006562)
(-0.00098139 -0.000500776 0.0114622)
(0.00121463 0.00146503 0.0114485)
(0.000313138 0.000598676 0.00850668)
(0.000584251 0.00108217 0.0108448)
(0.000541265 0.000537107 0.00999937)
(-0.000274196 -0.000353378 0.0115783)
(0.000315475 -0.0012744 0.0110282)
(-0.000232814 -0.000933484 0.0110452)
(0.000485665 -7.9566e-05 0.00718171)
(0.00028414 -2.64435e-05 0.00330627)
(-0.000860566 0.000666496 0.0226908)
(0.000820595 0.000343795 0.0107581)
(0.00020336 -0.000356722 0.00653965)
(0.000262179 -0.000190413 0.00698238)
(0.000303702 -0.000308791 0.0157411)
(9.50688e-05 -0.000464466 0.00865946)
(-0.000231781 0.000219389 0.0122513)
(5.76494e-05 -0.000200929 0.0121291)
(-0.000161677 0.000699374 0.0120944)
(5.26371e-05 -0.000279184 0.0103601)
(6.55818e-05 0.000214518 0.00696335)
(-0.000231229 0.000215071 0.0127152)
(0.000269786 0.000238715 0.0108154)
(0.000260248 4.11988e-05 0.0129289)
(-0.000166543 0.000104688 0.00706768)
(0.00282072 0.000194222 0.0136374)
(0.000229459 -0.000193073 0.00441169)
(0.00124398 -0.000602899 0.00543744)
(3.73396e-05 0.000123831 0.00828504)
(3.26048e-06 0.000313289 0.0103057)
(-0.0018376 0.00121895 0.0112769)
(0.000197354 0.000313361 0.00847584)
(-0.000162295 -0.00020753 0.00860297)
(-3.33518e-05 -6.96238e-05 0.00827168)
(-6.08451e-05 -9.06607e-05 0.0097523)
(0.000124596 -0.000199936 0.01266)
(0.00133488 0.000672412 0.00514181)
(-0.000134929 0.000173013 0.0078103)
(-0.000157368 -0.000244423 0.0107812)
(0.000207128 -0.000290388 0.0156651)
(-0.000500583 3.86129e-05 0.00891143)
(-5.06621e-05 -0.000109556 0.00911184)
(-0.000164378 -8.65812e-05 0.00454553)
(5.77466e-05 0.000184174 0.00928792)
(0.00101968 0.000287693 0.00632579)
(-0.00116515 1.5645e-05 0.0170458)
(-0.00110012 -0.00224548 0.0110645)
(-0.00083029 -0.000609178 0.00623339)
(-0.000643769 -7.76197e-05 0.0130259)
(-0.000151827 -5.99567e-05 0.00924643)
(-0.000144255 -0.000377882 0.0169665)
(7.10548e-05 9.11012e-06 0.00805439)
(0.000124659 -0.000738983 0.0112736)
(0.000136547 0.000231912 0.0092395)
(-0.000590917 0.000757239 0.00900148)
(-0.000350821 -0.0008394 0.00819846)
(-0.00100578 -0.000453918 0.0086757)
(-3.09171e-05 -1.94908e-05 0.00885274)
(-1.60544e-05 8.79381e-05 0.00886984)
(-6.14865e-05 -5.51201e-05 0.00670334)
(-0.000254122 3.12191e-05 0.0103264)
(0.000153795 -0.000319753 0.0144625)
(-0.000369007 -0.000558749 0.0293403)
(0.00075945 -0.000103232 0.00997991)
(-0.00147717 -0.000864768 0.00609552)
(-0.000207673 -0.000253444 0.0104914)
(9.18034e-06 -7.20823e-05 0.0106714)
(0.000652337 -0.000435885 0.00950482)
(-9.51881e-05 -3.9858e-05 0.00884581)
(-0.00136987 -0.000605337 0.0113666)
(-3.50978e-05 0.000123533 0.0126528)
(0.000658727 -0.000229195 0.00967364)
(0.00133095 0.00125812 0.00605883)
(-0.000371217 8.04475e-05 0.0108915)
(-6.26294e-06 -0.000105772 0.00987098)
(2.19047e-06 -7.35623e-06 0.0109834)
(0.000403451 -9.74955e-05 0.0123149)
(-0.000470766 -0.00268122 0.00663836)
(-0.000197606 -9.82581e-05 0.0166572)
(0.000137161 0.000257984 0.0142389)
(0.000152222 0.000266401 0.0144567)
(2.07944e-05 -6.04002e-06 0.0143759)
(5.63041e-05 0.000434074 0.0171593)
(0.000175124 0.000134797 0.015688)
(-7.21589e-05 0.000446773 0.0123715)
(7.13361e-05 -6.61921e-05 0.0155699)
(-0.000634127 0.000373456 0.0151725)
(-1.34638e-05 0.000321776 0.0142382)
(0.000150884 0.000254749 0.0105214)
(0.000229862 0.000182489 0.016306)
(0.000294834 0.00023768 0.0112684)
(0.000233796 8.44955e-05 0.00909633)
(-0.000117526 0.000185177 0.0116946)
(-0.000235458 -0.000236108 0.0146979)
(-0.000840685 -0.000303657 0.0139024)
(-0.000209165 -0.000269723 0.0119737)
(2.8493e-05 -0.000322233 0.0120254)
(5.40107e-05 -3.7438e-05 0.0133166)
(0.000168365 3.96633e-05 0.0130609)
(0.000639563 -8.87025e-05 0.0149652)
(0.000641577 -0.000170691 0.0090786)
(-0.000325411 -0.000582861 0.0132625)
(-0.000816656 -0.000165814 0.0160306)
(4.15525e-05 -0.000100055 0.0164475)
(0.000411916 -0.000478991 0.0144378)
(0.000350826 -0.00028775 0.013978)
(0.000503098 -0.000538968 0.00774077)
(0.000708093 -0.000456793 0.00999996)
(0.00156886 -8.96062e-05 0.00465694)
(0.000374892 -0.000243955 0.0180882)
(-0.000570295 8.05319e-05 0.0144843)
(-0.000370134 0.000225953 0.0127218)
(-0.000260658 -8.84739e-05 0.0151906)
(-0.000189566 -0.000187961 0.0138175)
(5.47243e-05 -0.00054512 0.0178916)
(0.000261675 -0.000560626 0.0141237)
(-9.30414e-05 -0.000251349 0.0140154)
(-3.06163e-05 4.16398e-06 0.0146781)
(-0.000499471 -0.000718149 0.0136736)
(-0.000117057 -0.000496924 0.0120356)
(-0.000186385 -2.79269e-05 0.0123918)
(-0.000218224 -0.000235984 0.0117364)
(-0.000149664 -9.21379e-05 0.0137408)
(-0.000330623 -0.000385241 0.011107)
(-0.000784041 -0.000241001 0.0140347)
(-0.000246194 3.71538e-05 0.015456)
(-0.000531128 -7.45456e-05 0.0224311)
(0.000868579 -3.93226e-05 0.0149094)
(-7.01715e-05 -6.08504e-05 0.0107706)
(-0.000439498 -0.000414814 0.0130778)
(-0.000269635 -0.000340894 0.0141999)
(-0.000409359 -0.000437662 0.0133781)
(-0.000443636 -0.000198235 0.0140424)
(-9.66494e-05 0.000596529 0.0146218)
(-0.000381636 0.000918646 0.0176191)
(0.000146309 3.98446e-05 0.0137635)
(-0.000387919 -0.000181941 0.0107205)
(-0.000682079 -6.70898e-05 0.0140864)
(-0.000307332 -0.000277264 0.0154634)
(-0.000419425 -0.000113527 0.0147571)
(9.00889e-05 9.82061e-05 0.01561)
(5.5243e-05 0.000393194 0.0123764)
(0.000733603 0.000439146 0.00509139)
(0.000606458 0.000544287 0.00472766)
(0.000296707 0.000545112 0.00440051)
(-7.84276e-05 0.000367884 0.00421714)
(2.31383e-05 0.000893367 0.00458298)
(0.000180623 0.000731146 0.0042868)
(-0.000226678 0.000724325 0.00403811)
(-0.000381976 0.000259239 0.00461252)
(0.000304761 0.000511307 0.00449362)
(0.000499411 0.000498404 0.00444019)
(0.000187459 0.000425902 0.00377327)
(0.000141903 0.000368961 0.00422512)
(0.000354575 0.000605422 0.00361456)
(-5.467e-07 0.000353666 0.00341226)
(-0.000522052 0.000425725 0.00385955)
(-0.00068018 0.00017086 0.00464937)
(0.000422885 0.000102042 0.00426574)
(0.000391886 1.84028e-05 0.00407308)
(0.000157991 -4.53764e-05 0.00392341)
(0.000125212 0.00023631 0.00395227)
(7.31965e-05 0.000319832 0.00381243)
(0.000147598 0.000105986 0.00421798)
(-0.000143157 -1.59142e-05 0.00391343)
(-0.00057785 -0.000224333 0.00483049)
(0.000132538 5.60333e-05 0.00474071)
(0.000361399 6.14987e-06 0.00477627)
(0.000395315 -0.000152812 0.00426584)
(0.000490769 -8.92542e-05 0.00396467)
(0.000300804 -0.000362802 0.00325452)
(-0.00017307 -0.000194126 0.00380908)
(-0.000544757 -0.00036666 0.00442493)
(-0.000289652 -0.000166075 0.00581249)
(0.000362325 4.19502e-05 0.00456303)
(0.000275253 0.00019314 0.00403035)
(5.93917e-05 9.29636e-05 0.00418463)
(-0.000111183 -3.82554e-05 0.00407468)
(-1.87674e-05 -0.000518382 0.00464822)
(-2.8726e-05 -0.000421246 0.00436693)
(-0.000371809 -0.000336349 0.00488617)
(-0.000175899 1.37436e-05 0.00525561)
(0.000397007 -0.000622542 0.00488527)
(0.000498338 -0.000335952 0.00408928)
(0.000157544 9.65199e-06 0.00383279)
(-0.000158365 -8.30837e-05 0.00383574)
(-0.000171571 -0.000107022 0.00417943)
(-0.000338362 -0.000265989 0.00398545)
(-0.000639711 -0.000238991 0.00471547)
(-0.000314094 -0.000122799 0.00528017)
(0.000246604 -0.000331671 0.00650293)
(0.000997892 -0.000354063 0.00490223)
(0.000305549 -0.000222878 0.00384843)
(-0.000286609 -0.000350348 0.00414985)
(-0.000279275 -0.000435994 0.00443447)
(-0.0003391 -0.000564312 0.00434637)
(-0.000457579 -0.000465509 0.00467707)
(-0.000281583 -0.000216963 0.00498004)
(0.00021581 0.000225116 0.00542751)
(0.000647136 -0.000366817 0.00467033)
(0.000155789 -0.000491981 0.00389138)
(-0.000427435 -0.000257526 0.00436642)
(-0.000443227 -0.000420093 0.00476933)
(-0.000455576 -0.000516676 0.00479886)
(-0.000365944 -0.00067284 0.00515287)
(-0.000241778 -0.000719192 0.00486586)
(0.000200686 0.000281125 0.00838837)
(0.000238881 0.000368618 0.00810855)
(0.000179897 0.000388586 0.00787896)
(3.87198e-05 0.000365073 0.00782153)
(5.00359e-05 0.000490614 0.0079473)
(6.06555e-05 0.00038643 0.00781132)
(-8.52565e-05 0.000282043 0.00777852)
(-0.000138415 -1.42305e-06 0.00801573)
(8.87223e-05 0.00025409 0.00804144)
(0.000216196 0.000295523 0.00786327)
(0.000154936 0.00028277 0.00759404)
(9.89592e-05 0.000269358 0.00768581)
(9.67281e-05 0.000323483 0.00748483)
(-6.7029e-05 0.000189292 0.00741779)
(-0.000272227 0.000125552 0.00759483)
(-0.000317839 -3.53247e-05 0.00798148)
(0.000205045 6.66703e-05 0.00793141)
(0.000224643 8.15032e-05 0.00770731)
(0.000149472 7.86569e-05 0.00756171)
(8.74129e-05 0.00014813 0.00755542)
(-1.33601e-05 0.0001578 0.00747043)
(-0.000108377 4.46525e-05 0.00762724)
(-0.000258289 -4.97803e-05 0.00759951)
(-0.000338938 -0.000153483 0.00799058)
(0.000141272 -1.68378e-05 0.00801275)
(0.000233902 9.35045e-06 0.00786607)
(0.000220892 -1.58689e-05 0.00764508)
(0.000180244 -2.25896e-05 0.00749002)
(9.30461e-06 -0.000117272 0.00723053)
(-0.00025062 -0.000101479 0.00741603)
(-0.00043062 -0.000181489 0.00776188)
(-0.000305395 -0.000141651 0.00825824)
(0.000263321 -6.92305e-05 0.0080226)
(0.000256181 7.75155e-06 0.00770915)
(0.000123583 -7.82055e-06 0.0076254)
(-1.44579e-05 -7.59155e-05 0.00757949)
(-9.11048e-05 -0.000236203 0.00772131)
(-0.000205094 -0.000211852 0.00767807)
(-0.000347401 -0.000195166 0.00790648)
(-0.00025516 -9.06902e-05 0.00810849)
(0.000266558 -0.00023449 0.00816216)
(0.000325823 -0.000176913 0.00771941)
(0.000143118 -9.2548e-05 0.00750799)
(-5.50262e-05 -0.000128154 0.00747136)
(-0.000146718 -0.000171525 0.00759947)
(-0.000274669 -0.0002013 0.00757873)
(-0.000398703 -0.000177741 0.00787576)
(-0.000291284 -0.000121734 0.00811721)
(0.000142427 -7.02065e-05 0.00867913)
(0.000413432 -0.000165601 0.00804873)
(0.000170977 -0.000170329 0.00760328)
(-0.000108359 -0.000226407 0.00763056)
(-0.00018699 -0.000294119 0.00776421)
(-0.000254714 -0.000327796 0.0077637)
(-0.000316486 -0.000272929 0.00794111)
(-0.000236541 -0.000166137 0.0081076)
(6.76454e-06 0.000173812 0.00841504)
(0.000228075 -0.000112096 0.00805053)
(7.6004e-05 -0.000217403 0.00769153)
(-0.000193782 -0.00019808 0.00775246)
(-0.000265213 -0.000287092 0.00796629)
(-0.000278061 -0.000324158 0.00802865)
(-0.000255815 -0.000333782 0.0082276)
(-0.000144652 -0.000281051 0.00828583)
(0.000144832 0.000249414 0.00749009)
(0.000157747 0.000247604 0.00741661)
(0.000125947 0.000237278 0.00732597)
(5.83581e-05 0.000226803 0.00729203)
(2.88947e-05 0.000240426 0.00731039)
(-5.5756e-06 0.000193122 0.00725865)
(-7.54139e-05 0.000144113 0.00725611)
(-0.000119519 4.86879e-05 0.00731287)
(8.23281e-05 0.000195556 0.00734747)
(0.000131015 0.000195159 0.00729345)
(0.000108742 0.000181386 0.00719856)
(6.11973e-05 0.000169089 0.00718877)
(1.66516e-05 0.000167283 0.00713567)
(-6.27323e-05 0.000109342 0.00712472)
(-0.000143369 6.4201e-05 0.00719606)
(-0.000163726 7.65609e-06 0.00733144)
(0.000114346 8.79332e-05 0.0073159)
(0.000133302 9.3854e-05 0.00723103)
(0.000100348 8.94197e-05 0.0071559)
(4.71417e-05 9.39751e-05 0.00712869)
(-2.72223e-05 8.20494e-05 0.00710163)
(-0.000103854 3.17877e-05 0.00716197)
(-0.000166262 -1.67799e-05 0.00721284)
(-0.00017345 -5.30562e-05 0.00736744)
(9.86518e-05 1.02396e-05 0.00733928)
(0.000134736 2.46967e-05 0.00726198)
(0.000110012 1.94075e-05 0.00716479)
(5.5434e-05 6.60462e-06 0.00709639)
(-4.23511e-05 -2.7892e-05 0.00703141)
(-0.000157956 -4.22991e-05 0.0071103)
(-0.000221621 -7.47235e-05 0.00725849)
(-0.000177673 -7.78392e-05 0.00745207)
(0.000141309 -4.69e-05 0.007383)
(0.000150126 -2.02918e-05 0.00724577)
(8.49097e-05 -2.166e-05 0.00717036)
(7.252e-07 -4.76755e-05 0.00714039)
(-7.59904e-05 -9.72493e-05 0.00717259)
(-0.000156016 -0.00010018 0.00720308)
(-0.00020938 -0.000102285 0.00732337)
(-0.00017149 -8.89815e-05 0.00744454)
(0.000141849 -9.55897e-05 0.00744575)
(0.000167706 -8.83961e-05 0.00727006)
(8.50239e-05 -7.40395e-05 0.00716202)
(-2.10939e-05 -8.93525e-05 0.00713626)
(-9.87827e-05 -0.000115945 0.00717727)
(-0.00017405 -0.000126037 0.00720865)
(-0.000225069 -0.000123109 0.00734104)
(-0.000192124 -0.000116224 0.00746407)
(0.000102856 -5.13009e-05 0.00758333)
(0.000174697 -9.18637e-05 0.00738518)
(8.36865e-05 -0.000105565 0.00722896)
(-4.43191e-05 -0.000128777 0.00721855)
(-0.000117789 -0.000163514 0.00727084)
(-0.00017205 -0.000179927 0.00730048)
(-0.000208866 -0.000172114 0.00739364)
(-0.000182144 -0.000154928 0.00748151)
(5.45097e-05 5.39373e-06 0.00748085)
(0.000112295 -7.25295e-05 0.00738606)
(4.54654e-05 -0.000108578 0.00727398)
(-8.26077e-05 -0.000116964 0.00728596)
(-0.000153354 -0.000157503 0.007376)
(-0.000187232 -0.000181028 0.00742232)
(-0.000203522 -0.00019244 0.00750711)
(-0.000165385 -0.000196525 0.00754937)
(5.79808e-05 0.00014198 0.00753458)
(7.27019e-05 0.00014116 0.00748474)
(6.44996e-05 0.000136557 0.00743301)
(3.79589e-05 0.000131013 0.00740597)
(1.73058e-05 0.000124907 0.00740102)
(-5.64473e-06 9.90781e-05 0.00738817)
(-3.32745e-05 6.83707e-05 0.00740016)
(-5.26329e-05 2.24985e-05 0.0074328)
(4.10849e-05 0.000112611 0.00744939)
(6.41506e-05 0.000113621 0.00741416)
(5.70963e-05 0.000108055 0.00736821)
(3.14087e-05 0.000100142 0.00734692)
(8.90772e-07 8.96879e-05 0.00733074)
(-3.6519e-05 6.09166e-05 0.00733461)
(-6.81551e-05 3.14438e-05 0.00736896)
(-7.71402e-05 7.89931e-07 0.00742448)
(5.57051e-05 6.10504e-05 0.00741969)
(6.67137e-05 6.529e-05 0.00737677)
(5.20659e-05 6.26308e-05 0.00733525)
(2.07988e-05 5.75198e-05 0.00731349)
(-2.09882e-05 4.4911e-05 0.00730487)
(-6.28952e-05 1.98896e-05 0.00733089)
(-9.04986e-05 -6.74541e-06 0.00737055)
(-9.14986e-05 -2.79863e-05 0.00743294)
(5.37869e-05 1.60718e-05 0.00741343)
(6.67335e-05 2.18608e-05 0.00737102)
(5.00794e-05 1.92763e-05 0.00732558)
(1.43764e-05 1.02885e-05 0.00729654)
(-3.59995e-05 -6.02421e-06 0.00728365)
(-8.74041e-05 -2.00289e-05 0.00731931)
(-0.000114389 -3.73599e-05 0.00738414)
(-0.000102574 -4.74345e-05 0.00745721)
(6.69603e-05 -1.75504e-05 0.00743461)
(7.14525e-05 -1.17924e-05 0.00737386)
(4.12809e-05 -1.4497e-05 0.00733035)
(-4.12858e-06 -2.67081e-05 0.00731248)
(-5.1234e-05 -4.53381e-05 0.00732193)
(-9.50171e-05 -5.305e-05 0.00735063)
(-0.000119101 -5.91264e-05 0.00741039)
(-0.000107213 -6.19267e-05 0.00747067)
(6.14926e-05 -3.33765e-05 0.00746231)
(7.12672e-05 -3.96961e-05 0.00739098)
(3.583e-05 -4.32392e-05 0.00733945)
(-1.65064e-05 -5.37857e-05 0.00732372)
(-6.30151e-05 -6.82694e-05 0.00733978)
(-0.00010304 -7.49518e-05 0.00736881)
(-0.000125887 -7.63651e-05 0.00743115)
(-0.000115801 -7.58156e-05 0.00749346)
(4.29392e-05 -2.03306e-05 0.007506)
(6.22034e-05 -4.36197e-05 0.00743468)
(2.72211e-05 -5.76258e-05 0.00737466)
(-2.96446e-05 -7.17426e-05 0.00736308)
(-7.32545e-05 -8.88969e-05 0.00738599)
(-0.000104683 -9.69508e-05 0.00741487)
(-0.000121702 -9.53908e-05 0.00746852)
(-0.000110059 -8.87364e-05 0.00752344)
(1.53708e-05 -3.6197e-06 0.00749019)
(3.3727e-05 -3.65271e-05 0.00744713)
(7.19236e-06 -5.62631e-05 0.00740151)
(-4.83428e-05 -6.77878e-05 0.00739895)
(-8.83427e-05 -8.63591e-05 0.00743699)
(-0.000109771 -9.6235e-05 0.00747322)
(-0.000117555 -9.72971e-05 0.00752672)
(-9.81837e-05 -9.51174e-05 0.00757498)
(2.62077e-05 8.16839e-05 0.0075029)
(3.49047e-05 7.99372e-05 0.00748162)
(3.234e-05 7.69555e-05 0.00745824)
(2.08841e-05 7.27612e-05 0.00744324)
(8.75968e-06 6.60758e-05 0.0074368)
(-4.31526e-06 5.22298e-05 0.00743245)
(-1.71938e-05 3.54376e-05 0.00743781)
(-2.7081e-05 1.47801e-05 0.00744939)
(2.07549e-05 6.6764e-05 0.00746225)
(3.10877e-05 6.62947e-05 0.00744526)
(2.78949e-05 6.28828e-05 0.00742421)
(1.46913e-05 5.73041e-05 0.00741105)
(-2.33447e-06 4.88474e-05 0.00740479)
(-2.06409e-05 3.38822e-05 0.00740835)
(-3.47109e-05 1.74517e-05 0.0074236)
(-3.97218e-05 1.5256e-06 0.00744562)
(2.60203e-05 4.11934e-05 0.00744424)
(3.12038e-05 4.2195e-05 0.007424)