/*--------------------------------*- C++ -*----------------------------------*\
| =========                 |                                                 |
| \\      /  F ield         | OpenFOAM: The Open Source CFD Toolbox           |
|  \\    /   O peration     | Version:  2506                                  |
|   \\  /    A nd           | Website:  www.openfoam.com                      |
|    \\/     M anipulation  |                                                 |
\*---------------------------------------------------------------------------*/
FoamFile
{
    version     2.0;
    format      ascii;
    arch        "LSB;label=32;scalar=64";
    class       volVectorField;
    location    "0.03";
    object      Us;
}
// * * * * * * * * * * * * * * * * * * * * * * * * * * * * * * * * * * * * * //

dimensions      [0 1 -1 0 0 0 0];

internalField   nonuniform List<vector> 
4608
(
(4.28512e-05 8.42426e-05 8.72808e-05)
(1.75157e-05 -1.35159e-05 8.84827e-05)
(2.10194e-05 -2.14836e-05 5.67573e-05)
(0.000106992 -4.72002e-05 -1.45646e-05)
(0.000175359 1.16861e-05 5.67462e-05)
(7.52599e-05 7.25352e-05 6.5172e-05)
(-6.39224e-06 9.84372e-05 8.46616e-05)
(-4.75712e-05 -9.9126e-06 8.36412e-05)
(0.000112421 1.23554e-05 5.80011e-05)
(-9.91128e-05 0.00021462 -2.72266e-05)
(-0.000412594 -0.000404025 8.37161e-05)
(3.04534e-05 -6.74065e-05 6.07099e-05)
(0.000160672 1.96919e-05 2.58755e-05)
(0.000107764 1.89943e-05 8.45909e-05)
(0.000114576 3.95855e-05 1.31027e-05)
(0.000107117 5.38032e-05 0.000102157)
(1.67873e-05 8.13711e-05 5.32682e-05)
(3.5597e-05 0.000114942 5.51935e-05)
(2.30499e-05 2.43008e-05 0.000113541)
(2.72209e-05 9.98122e-06 0.000123568)
(-0.000144708 -4.46436e-06 1.65187e-05)
(5.78592e-05 4.54895e-05 2.87484e-05)
(8.24834e-05 6.79127e-06 8.46373e-05)
(1.11158e-05 7.68521e-05 0.000117261)
(-5.50151e-06 0.000114662 6.838e-05)
(-2.02646e-05 0.00011057 2.2185e-05)
(1.57115e-07 4.40272e-05 0.000101836)
(-0.000209237 -7.53541e-06 8.49318e-05)
(-5.60139e-05 0.00014479 7.00043e-05)
(1.60096e-05 8.67715e-05 5.89396e-05)
(8.42108e-05 -1.43505e-05 -3.47323e-05)
(0.000190946 3.85459e-05 8.47342e-05)
(2.48979e-05 9.42846e-05 9.98468e-05)
(4.31943e-06 0.000105108 5.06021e-05)
(5.25791e-05 0.00013004 -4.32199e-05)
(-5.86064e-05 1.74211e-05 9.03657e-05)
(-7.6237e-05 3.1868e-05 0.000100677)
(9.87457e-05 0.000168426 8.2752e-05)
(0.000522986 0.00039176 6.25321e-05)
(-6.60965e-05 9.76494e-05 6.87849e-05)
(4.05062e-05 0.000187239 2.60977e-05)
(-1.26952e-05 7.51013e-05 4.17683e-05)
(-2.57493e-05 0.000163111 8.32708e-05)
(-7.86779e-05 2.16484e-05 4.82369e-05)
(0.000108494 1.29622e-05 4.84172e-05)
(0.000143894 6.08926e-05 0.000123704)
(7.59592e-06 4.55579e-05 5.41696e-05)
(-9.11696e-05 5.94053e-05 9.08022e-05)
(-6.32254e-05 0.000241491 0.000146459)
(-0.000193088 0.000393703 0.000107283)
(6.93618e-06 0.000155214 0.000108309)
(-2.32894e-06 3.89985e-05 6.62312e-05)
(-1.44139e-05 -2.6853e-05 2.15621e-05)
(-1.915e-05 0.000457994 2.73901e-05)
(7.57779e-05 0.000208047 6.0787e-05)
(1.71832e-05 0.000129651 9.69463e-05)
(1.7257e-06 4.30071e-05 0.000121203)
(7.95296e-05 0.000661513 6.34366e-05)
(4.08071e-05 9.43734e-05 0.000119656)
(8.00193e-05 -8.35307e-05 5.97736e-05)
(-1.67264e-05 -5.25018e-05 -4.73349e-06)
(8.23313e-05 0.00024061 4.20102e-05)
(4.6561e-05 -4.8492e-05 7.70718e-05)
(0.000106275 0.000124753 8.5748e-05)
(0.000173178 0.000160677 0.000354637)
(-0.000100335 4.9057e-05 0.000179955)
(3.56413e-05 -3.86171e-05 0.000240398)
(4.07815e-06 2.0783e-05 0.000135607)
(-3.9885e-06 1.02318e-05 0.000168196)
(-5.11417e-07 8.38902e-05 0.000277603)
(-3.89295e-06 7.46652e-05 0.000358692)
(-2.74078e-05 -4.07669e-05 0.000280634)
(-5.52824e-05 0.000221167 -0.000108451)
(-6.68249e-05 6.14918e-05 0.00031835)
(-0.000134841 2.01508e-05 0.000336022)
(-3.51928e-05 9.50124e-05 0.000282365)
(3.68194e-05 3.18574e-05 0.000189968)
(6.52896e-05 6.14985e-05 0.000325171)
(-9.74349e-06 -2.24973e-05 0.000187796)
(-9.69199e-06 -4.06081e-05 0.000210767)
(2.99214e-07 0.000116703 0.000241804)
(-0.000145542 -2.32564e-05 0.000286278)
(-0.000116218 0.000128396 0.000319607)
(5.32465e-05 1.82105e-05 0.000292673)
(0.000122099 0.000128188 0.000219485)
(0.000297989 0.000363976 0.000221309)
(6.02787e-05 4.30845e-05 0.000363104)
(-4.4907e-05 0.000158653 0.000529106)
(3.73724e-05 0.000154147 0.00036536)
(-0.000316649 0.000235938 0.000130982)
(-4.95496e-05 0.00011274 0.000197334)
(-9.25263e-06 -4.4653e-05 0.000274419)
(9.69673e-05 7.67348e-05 0.00011223)
(0.00021241 -4.18386e-06 0.000308025)
(0.000167133 4.66391e-05 0.000149005)
(0.000109776 0.000121975 0.000470081)
(8.76908e-05 0.00016945 0.000174442)
(-6.08136e-05 0.000142764 0.000211377)
(0.000102107 4.65034e-05 0.000228675)
(2.80864e-05 -5.43471e-05 0.000328945)
(-2.212e-05 -1.95284e-05 0.000351172)
(-7.0978e-06 -6.99243e-05 0.000240888)
(1.78404e-05 -4.14147e-05 0.000351775)
(3.35261e-05 3.76991e-05 0.000402581)
(3.34242e-07 0.000162546 0.000302472)
(3.1175e-05 7.66803e-05 0.000268307)
(0.000129313 0.00010274 0.000353581)
(4.05221e-05 2.50426e-05 0.000329014)
(-2.55368e-05 7.49318e-05 0.000154325)
(7.65097e-06 6.4997e-05 0.000338175)
(-2.26158e-05 -2.39786e-05 0.000279485)
(-2.08129e-05 -2.74161e-06 0.000349057)
(0.000132771 0.000138878 0.000368526)
(9.42682e-05 5.08525e-05 0.00034074)
(9.36472e-05 6.99278e-05 0.000223772)
(6.43753e-05 6.02284e-06 0.000225499)
(-0.000121906 -2.32611e-06 0.000284841)
(-1.78316e-05 0.00018509 0.000328916)
(-1.16865e-05 -9.52946e-05 0.000353927)
(2.89113e-05 -0.000102037 0.000374108)
(0.000176659 0.000103367 0.000326696)
(4.60681e-05 4.1985e-05 0.000211654)
(3.8659e-05 2.81895e-05 0.000264331)
(1.69082e-05 0.000122035 0.000281241)
(-2.31426e-05 -2.54699e-05 0.000336433)
(-4.39354e-05 2.17282e-05 0.000320361)
(-2.18119e-05 -7.67439e-05 0.000269324)
(-0.000114383 -0.000103965 0.000234254)
(9.85654e-05 0.000294254 0.000496385)
(7.02185e-05 0.000106106 0.000453435)
(0.000102168 2.644e-05 0.00040342)
(0.000110624 9.98352e-05 0.000360231)
(7.6461e-05 7.74488e-05 0.00037895)
(1.79127e-05 3.75404e-05 0.000378142)
(6.49402e-05 0.000128991 0.000346909)
(2.44271e-05 3.62835e-05 0.000447137)
(6.5635e-05 0.000234196 0.000500858)
(6.38849e-05 1.07395e-05 0.000546848)
(4.18878e-05 4.4804e-05 0.000455091)
(9.08872e-05 1.91929e-05 0.000248598)
(0.00010431 9.21838e-05 0.000361158)
(-4.4896e-05 8.62964e-06 0.000486213)
(-0.000117287 -0.000167837 0.000430469)
(-4.19174e-05 5.3271e-06 0.000482279)
(-1.87564e-05 7.57803e-05 0.000649532)
(-3.9348e-05 -0.000109704 0.000508668)
(-2.16216e-05 9.62367e-06 0.000550966)
(1.31558e-05 -0.000144693 0.000390874)
(0.00010684 7.7501e-05 0.000366287)
(9.92358e-05 8.35737e-06 0.00062773)
(1.18984e-06 -0.000199497 0.000562591)
(-5.68872e-05 -4.86707e-06 0.000644426)
(3.41919e-05 -2.25583e-05 0.000492321)
(7.8453e-05 2.50278e-06 0.000529991)
(4.78636e-05 -2.10504e-05 0.000432813)
(2.84546e-05 2.37111e-05 0.000476203)
(4.01949e-05 1.97781e-05 0.000439536)
(0.000155855 2.14573e-05 0.000518489)
(0.000161067 -0.000100389 0.000547938)
(-1.42272e-05 6.34678e-05 0.000693155)
(5.74046e-05 -1.01247e-05 0.000522983)
(-1.32533e-05 6.43856e-05 0.000562437)
(1.51691e-05 1.55262e-06 0.000515855)
(1.37738e-05 3.10226e-05 0.000517476)
(-4.26014e-05 -6.78803e-05 0.00047508)
(-4.38854e-05 -1.8461e-05 0.00045538)
(1.84853e-05 -6.21036e-05 0.000547738)
(1.83475e-05 2.02845e-05 0.000616079)
(6.25519e-05 1.17278e-05 0.000560466)
(3.05629e-05 4.90218e-05 0.000541832)
(4.48526e-06 6.74023e-05 0.000457082)
(-5.15761e-05 8.93883e-06 0.000456306)
(-3.70473e-05 -7.84091e-05 0.000368198)
(-7.82782e-05 -2.13334e-05 0.000488392)
(-4.699e-05 -5.77159e-05 0.000495886)
(-6.95465e-06 2.87025e-06 0.000593085)
(7.30102e-05 0.000123328 0.000612195)
(6.50843e-05 0.000131044 0.000540453)
(5.6975e-05 0.000113377 0.00043582)
(6.84233e-05 3.72952e-05 0.000489066)
(-2.19711e-05 -1.9606e-05 0.000572665)
(-3.88666e-05 -6.12659e-05 0.000541086)
(2.00748e-05 -0.0001082 0.000549784)
(-1.99247e-06 -7.91186e-05 0.000522481)
(0.0001485 -2.81321e-05 0.000502882)
(9.74171e-05 6.72228e-05 0.000469591)
(9.88059e-05 7.12192e-05 0.000437452)
(0.000102006 8.09523e-05 0.000506462)
(1.77589e-05 2.55225e-05 0.000625462)
(3.38037e-05 -0.000100314 0.000545778)
(8.34825e-05 -0.000116411 0.000496906)
(0.000145221 -0.000114583 0.000570896)
(2.976e-05 -9.06925e-05 0.000579809)
(0.000134169 -4.59934e-05 0.000626801)
(0.000164929 3.7273e-05 0.000504185)
(0.000129357 8.24958e-05 0.000498444)
(3.16236e-05 6.98818e-05 0.00049957)
(7.62282e-05 5.49487e-05 0.000542882)
(0.0001357 5.30461e-05 0.000732079)
(1.59631e-06 -7.94164e-05 0.000629013)
(9.2442e-05 2.93457e-05 0.000577392)
(0.000105275 -8.75703e-05 0.000634221)
(0.000143308 2.86205e-05 0.000678906)
(0.000134756 4.41645e-05 0.000538804)
(7.18855e-05 1.6522e-05 0.000601941)
(9.7399e-05 2.37492e-05 0.00060779)
(4.27025e-05 -5.07618e-05 0.000658311)
(0.000132148 -8.85636e-06 0.000645731)
(4.70582e-05 4.41547e-05 0.000754888)
(-3.74993e-05 2.00236e-05 0.000665438)
(5.22942e-05 -6.06343e-05 0.0007151)
(4.47647e-05 1.85909e-05 0.000556858)
(3.88185e-05 3.97139e-05 0.000600251)
(3.26932e-05 -9.25917e-06 0.000698377)
(3.42153e-05 -7.19619e-05 0.000649254)
(5.70866e-05 -2.26755e-05 0.0007169)
(2.09953e-05 -5.23805e-05 0.000628264)
(1.12872e-05 3.67777e-05 0.000649473)
(6.77666e-05 -3.37177e-05 0.000641833)
(3.1379e-05 -7.06616e-07 0.000667449)
(1.84121e-05 2.62113e-06 0.000645928)
(9.84906e-05 2.24962e-05 0.000626398)
(4.01189e-05 -5.48737e-05 0.000642803)
(-1.36235e-05 2.16135e-05 0.000717729)
(0.000112225 -4.43649e-05 0.000689335)
(6.38626e-05 -4.82034e-05 0.0006176)
(7.42832e-05 -7.05188e-06 0.000619373)
(9.76507e-05 9.10859e-05 0.000647101)
(1.0668e-06 -4.57389e-05 0.000629942)
(-3.54943e-05 -9.38189e-05 0.000670639)
(1.49681e-05 -4.12536e-05 0.000685015)
(-2.45282e-05 1.52691e-05 0.000676501)
(4.86308e-05 2.91367e-05 0.000666237)
(8.90402e-05 -1.5753e-05 0.000629548)
(4.4558e-05 -3.32651e-05 0.000595003)
(-9.49558e-06 -1.77965e-05 0.00057325)
(1.63419e-05 -4.76601e-05 0.000654788)
(6.39083e-05 -2.99398e-05 0.000666276)
(-6.29925e-05 -8.27243e-05 0.000693724)
(-3.68682e-05 7.05359e-05 0.000631933)
(3.57809e-05 -0.000114313 0.000714796)
(3.18078e-05 -2.10097e-05 0.000678283)
(-3.85274e-05 -3.88733e-07 0.000500214)
(-1.76353e-05 4.57593e-06 0.000620572)
(-1.65449e-05 -6.9091e-05 0.000634831)
(7.34153e-06 -7.15697e-05 0.000695524)
(-8.72587e-05 -0.00010783 0.000691526)
(-5.26732e-05 -3.40859e-05 0.000677165)
(0.000103046 -1.80212e-05 0.000603319)
(-9.98773e-05 5.97029e-05 0.000666372)
(-1.58367e-05 5.74545e-05 0.000556206)
(3.2682e-05 1.04036e-05 0.000674428)
(1.5308e-05 -1.04174e-05 0.000622769)
(2.25926e-05 -0.000114056 0.000646401)
(1.67465e-05 -9.06274e-05 0.000646001)
(3.86183e-06 -1.80702e-05 0.000651445)
(5.04911e-05 -1.95504e-06 0.000597879)
(0.000128352 -3.00978e-05 0.000643725)
(0.000123352 2.83873e-06 0.000628037)
(6.59453e-05 2.52737e-05 0.000681217)
(-4.44927e-06 -2.25588e-05 0.000800115)
(6.2455e-05 7.26484e-05 0.000890182)
(3.0348e-05 0.000111666 0.000860455)
(-2.11625e-05 3.92107e-05 0.000837544)
(0.000115139 1.573e-07 0.000657813)
(6.91816e-05 -5.11521e-05 0.000681728)
(4.50633e-05 3.29151e-05 0.000711757)
(2.28391e-05 4.14728e-05 0.000695086)
(3.70247e-07 -6.79958e-05 0.000535268)
(-3.48995e-05 2.18706e-06 0.000764834)
(2.4572e-05 7.54981e-05 0.000764915)
(-2.03243e-05 8.26135e-05 0.000722417)
(6.88072e-07 -5.60576e-06 0.000697522)
(7.50574e-06 2.33029e-05 0.000703678)
(-4.073e-05 2.03165e-05 0.000704648)
(-4.24447e-05 6.31913e-05 0.000668072)
(-3.7144e-06 -4.44969e-05 0.000687122)
(-4.96513e-05 1.83137e-05 0.000681295)
(-2.03965e-05 -2.3106e-05 0.000654389)
(-6.01131e-05 1.10025e-05 0.00074032)
(1.89941e-05 -8.89433e-05 0.000683182)
(1.6486e-05 4.89018e-05 0.000705755)
(-7.05484e-06 3.03303e-06 0.000672241)
(-6.54092e-05 2.52595e-06 0.000668752)
(-3.99856e-05 -4.01212e-06 0.000787119)
(2.86334e-06 -0.000106306 0.000704207)
(-2.5218e-05 -4.83189e-05 0.00072367)
(-1.70142e-06 2.84536e-05 0.000805206)
(7.37298e-05 -7.46769e-05 0.000717964)
(6.71716e-05 -2.58575e-05 0.000652795)
(2.20418e-05 -4.85128e-05 0.000695314)
(-2.50491e-05 -2.64934e-05 0.000768978)
(1.17712e-06 1.42277e-05 0.000756106)
(-4.02587e-05 -8.85274e-05 0.000736044)
(-4.44563e-05 -5.07198e-05 0.000770858)
(-4.93722e-05 -1.68169e-05 0.000758201)
(8.00591e-05 -8.39587e-05 0.000683838)
(1.90575e-05 -1.40653e-05 0.000693772)
(2.63511e-05 -5.09049e-05 0.000657362)
(5.71794e-05 -2.88833e-05 0.000734886)
(-3.6409e-06 -5.35783e-05 0.000739381)
(4.74083e-05 -9.23207e-05 0.000814821)
(-3.50354e-05 -4.2366e-05 0.000839748)
(-4.35166e-05 -1.99467e-05 0.000800279)
(3.83869e-05 -0.000112423 0.000743689)
(3.89901e-05 -9.18916e-05 0.000710463)
(1.54813e-05 -9.00423e-05 0.00066502)
(9.26741e-05 3.67632e-05 0.000650937)
(6.60985e-05 -6.61807e-05 0.000666442)
(2.60787e-05 -4.38065e-05 0.000883578)
(-6.81419e-05 -7.7013e-05 0.000857677)
(-8.05819e-05 -2.04395e-05 0.00083049)
(5.4864e-05 -6.76929e-05 0.000649792)
(8.69918e-05 -8.22876e-05 0.000677619)
(3.63261e-05 -7.88906e-05 0.000701212)
(8.43813e-05 -7.03809e-06 0.000712846)
(5.2547e-05 -5.33696e-05 0.000704576)
(9.65675e-07 -6.92793e-05 0.000846982)
(-9.31536e-06 -0.000151899 0.00099161)
(-3.95956e-05 -7.50456e-05 0.000772873)
(0.000124096 -9.7953e-05 0.000696578)
(4.97067e-05 -3.56328e-05 0.00066317)
(-3.15608e-05 -5.37315e-06 0.000717289)
(-2.90101e-05 3.35876e-05 0.000776044)
(0.000710554 -0.000228489 0.000458903)
(1.71783e-05 -0.000395162 0.000745199)
(8.5588e-05 -2.3715e-05 0.000831014)
(-1.38716e-05 1.12903e-05 0.000816609)
(2.68677e-05 -6.93333e-05 0.000743334)
(-1.98027e-05 -2.9577e-05 0.000694691)
(-6.15501e-05 -1.9285e-06 0.000736257)
(-4.52075e-05 4.06461e-05 0.000743813)
(-3.5382e-05 -6.37417e-06 0.000570769)
(-0.000105392 -0.000186493 0.000702608)
(8.8118e-05 -3.48286e-05 0.000733798)
(2.74878e-05 6.91666e-05 0.000696814)
(6.97106e-05 -1.63707e-05 0.000754145)
(4.16924e-06 -5.74584e-05 0.000727677)
(-2.31651e-05 -2.59222e-05 0.00070171)
(-4.20778e-05 4.63521e-05 0.000657813)
(3.50997e-06 4.35122e-05 0.000568177)
(-1.89458e-05 -5.51795e-05 0.000713297)
(1.50064e-05 -2.95212e-05 0.000777568)
(7.07129e-08 8.4568e-05 0.000780962)
(1.00838e-05 -5.12775e-05 0.00075368)
(-2.01606e-05 -5.0251e-05 0.000746617)
(-0.000139296 7.95566e-05 0.000723584)
(-8.28357e-05 0.000155742 0.000717743)
(-4.64149e-05 1.75851e-05 0.000690234)
(-2.07305e-05 -1.43724e-05 0.000721053)
(-1.90074e-05 -3.31324e-05 0.000738651)
(2.09529e-05 3.6805e-05 0.000803423)
(0.00011441 -5.44203e-05 0.000726598)
(5.88731e-05 -4.20239e-05 0.000698177)
(1.52968e-05 -5.05028e-05 0.000737482)
(3.50363e-06 6.29931e-07 0.000774337)
(-2.68135e-05 3.00988e-05 0.000757015)
(3.92624e-07 3.30096e-05 0.000736311)
(0.0001075 -6.30684e-05 0.000852519)
(2.74863e-05 1.14744e-05 0.000851951)
(9.39934e-05 -8.04518e-05 0.00067066)
(7.21144e-05 -5.89234e-05 0.000719602)
(2.96134e-05 -2.99152e-05 0.000735131)
(9.23129e-06 -8.9196e-06 0.000740029)
(-1.35373e-05 -2.92895e-05 0.000747731)
(4.25049e-06 -4.15804e-05 0.000776642)
(0.000438558 5.14577e-06 0.000792801)
(7.1689e-05 -4.2839e-05 0.000779624)
(1.6529e-05 -3.44219e-05 0.000681705)
(7.91894e-05 -8.80979e-05 0.000746388)
(4.1572e-05 -0.00014597 0.000546428)
(7.21669e-05 -8.02873e-05 0.000660309)
(4.1847e-05 -5.81103e-05 0.000688261)
(4.70494e-05 -3.72816e-05 0.000807385)
(7.13422e-05 -1.36237e-05 0.000825099)
(0.00013446 -3.96937e-05 0.000778559)
(0.00010114 1.32736e-05 0.000672862)
(0.000125409 -0.000105942 0.00072014)
(0.000174239 -0.000242414 0.000492045)
(0.000149415 -9.72323e-05 0.000588036)
(-1.51964e-05 -5.56569e-05 0.000771929)
(-8.20173e-06 -5.8355e-05 0.000891474)
(0.000118678 -1.37983e-05 0.000857052)
(0.000107191 -2.53217e-05 0.000857793)
(7.70894e-06 -0.000263125 0.000613289)
(9.21844e-05 -0.000497269 0.000542846)
(-0.000158947 9.701e-05 0.00062633)
(0.000152452 8.10245e-05 0.00071272)
(-3.1855e-05 0.000330073 -2.39609e-05)
(-0.000115161 -0.000467626 0.000710293)
(5.61733e-05 0.000176534 0.000536956)
(-0.000159824 0.000175737 0.000773165)
(0.000289829 0.000158539 0.000766199)
(-9.43693e-05 -6.49617e-05 0.000779836)
(-0.000120977 6.64801e-05 0.000824304)
(0.00302284 0.000193661 -0.000158337)
(0.000132396 -0.00022245 0.000251555)
(0.00128426 -0.000596346 0.000422551)
(0.000144925 9.32346e-05 0.000567937)
(0.000115173 0.000229448 0.000724173)
(-0.00204871 0.00147502 -8.15919e-05)
(0.000179935 0.000367683 0.000942129)
(-0.000114038 -7.7298e-05 0.000704074)
(2.26436e-05 -0.00011697 0.000637918)
(3.90724e-05 -0.000162235 0.000576119)
(-1.79455e-05 3.21624e-05 0.000840223)
(0.00129342 0.000510518 6.72552e-05)
(-2.11389e-05 0.000233112 0.000805622)
(4.4123e-06 2.10048e-05 0.00076459)
(2.85928e-05 -0.000116382 0.000806976)
(-0.000615951 0.000237169 0.000354038)
(-0.000160734 -9.15998e-05 0.000779088)
(-0.000147843 -3.75615e-05 0.000722893)
(-0.000196941 0.000162094 0.000517797)
(0.00100157 0.000342746 0.00134503)
(-8.56516e-05 5.85695e-05 0.000828321)
(-0.00119563 -0.00259925 -0.000262543)
(-0.000778838 -0.000755335 -0.000914921)
(-0.000613121 -0.0001096 0.000460915)
(-6.45063e-05 -0.000168294 0.000712641)
(-6.96431e-05 -0.000108133 0.000860986)
(-6.99299e-05 -0.000129216 0.000739985)
(-5.38282e-06 0.000109169 0.0008547)
(6.2493e-05 2.50715e-05 0.000849028)
(-0.000503805 0.000967471 0.000855756)
(-0.000223847 -0.000828974 0.000320765)
(-0.00106236 -0.000709705 0.00023945)
(-2.87025e-05 -1.85042e-05 0.000763314)
(-4.25173e-05 -0.000105313 0.000762966)
(-7.65859e-05 -0.000109294 0.000747718)
(-6.23268e-05 7.81956e-05 0.000829615)
(0.000138826 7.93769e-05 0.000659823)
(0.000139217 2.10372e-05 0.000675922)
(-4.26764e-05 -0.000147808 0.000815678)
(-0.0015105 -0.000967924 -0.000318953)
(-7.82333e-05 -0.0001085 0.000563115)
(2.04479e-05 -5.85959e-06 0.000692709)
(0.000856927 -0.000335534 0.000239154)
(5.84965e-05 1.51298e-05 0.00070805)
(-0.00179656 -0.00115711 0.000163187)
(-1.82027e-05 -2.15109e-05 0.000681424)
(0.000391967 -4.22425e-05 0.000783087)
(0.0013921 0.00148739 0.000573224)
(0.000201583 -0.000166981 0.000496763)
(-5.66244e-05 8.48445e-06 0.000795033)
(-1.81562e-05 -7.06731e-05 0.00078355)
(0.000116304 -1.734e-05 0.000871189)
(-0.000510443 -0.00327021 -0.000985796)
(0 0 0)
(0 0 0)
(0 0 0)
(0 0 0)
(0 0 0)
(0 0 0)
(0 0 0)
(0 0 0)
(0 0 0)
(0 0 0)
(0 0 0)
(0 0 0)
(0 0 0)
(0 0 0)
(0 0 0)
(0 0 0)
(0 0 0)
(0 0 0)
(0 0 0)
(0 0 0)
(0 0 0)
(0 0 0)
(0 0 0)
(0 0 0)
(0 0 0)
(0 0 0)
(0 0 0)
(0 0 0)
(0 0 0)
(-0.000752074 0.00101527 -0.00022506)
(0.00705338 0.00229953 0.00419032)
(0 0 0)
(0 0 0)
(0 0 0)
(0 0 0)
(0 0 0)
(0 0 0)
(0 0 0)
(0 0 0)
(0 0 0)
(0 0 0)
(0 0 0)
(0 0 0)
(0 0 0)
(0 0 0)
(0 0 0)
(0 0 0)
(0 0 0)
(0 0 0)
(0 0 0)
(0 0 0)
(0 0 0)
(0 0 0)
(0 0 0)
(0 0 0)
(0 0 0)
(0 0 0)
(0 0 0)
(0 0 0)
(0 0 0)
(0 0 0)
(0 0 0)
(0 0 0)
(0 0 0)
(0 0 0)
(0 0 0)
(0 0 0)
(0 0 0)
(0 0 0)
(0 0 0)
(0 0 0)
(0 0 0)
(0 0 0)
(0 0 0)
(0 0 0)
(0 0 0)
(0 0 0)
(0 0 0)
(0 0 0)
(0 0 0)
(0 0 0)
(0 0 0)
(0 0 0)
(0 0 0)
(0 0 0)
(0 0 0)
(0 0 0)
(0 0 0)
(0 0 0)
(0 0 0)
(0 0 0)
(0 0 0)
(0 0 0)
(0 0 0)
(0 0 0)
(0 0 0)
(0 0 0)
(0 0 0)
(0 0 0)
(0 0 0)
(0 0 0)
(0 0 0)
(0 0 0)
(0 0 0)
(0 0 0)
(0 0 0)
(0 0 0)
(0 0 0)
(0 0 0)
(0 0 0)
(0 0 0)
(0 0 0)
(0 0 0)
(0 0 0)
(0 0 0)
(0 0 0)
(0 0 0)
(0 0 0)
(0 0 0)
(0 0 0)
(0 0 0)
(0 0 0)
(0 0 0)
(0 0 0)
(0 0 0)
(0 0 0)
(0 0 0)
(0 0 0)
(0 0 0)
(0 0 0)
(0 0 0)
(0 0 0)
(0 0 0)
(0 0 0)
(0 0 0)
(0 0 0)
(0 0 0)
(0 0 0)
(0 0 0)
(0 0 0)
(0 0 0)
(0 0 0)
(0 0 0)
(0 0 0)
(0 0 0)
(0 0 0)
(0 0 0)
(0 0 0)
(0 0 0)
(0 0 0)
(0 0 0)
(0 0 0)
(0 0 0)
(0 0 0)
(0 0 0)
(0 0 0)
(0 0 0)
(0 0 0)
(0 0 0)
(0 0 0)
(0 0 0)
(0 0 0)
(0 0 0)
(0 0 0)
(0 0 0)
(0 0 0)
(0 0 0)
(0 0 0)
(0 0 0)
(0 0 0)
(0 0 0)
(0 0 0)
(0 0 0)
(0 0 0)
(0 0 0)
(0 0 0)
(0 0 0)
(0 0 0)
(0 0 0)
(0 0 0)
(0 0 0)
(0 0 0)
(0 0 0)
(0 0 0)
(0 0 0)
(0 0 0)
(0 0 0)
(0 0 0)
(0 0 0)
(0 0 0)
(0 0 0)
(0 0 0)
(0 0 0)
(0 0 0)
(0 0 0)
(0 0 0)
(0 0 0)
(0 0 0)
(0 0 0)
(0 0 0)
(0 0 0)
(0 0 0)
(0 0 0)
(0 0 0)
(0 0 0)
(0 0 0)
(0 0 0)
(0 0 0)
(0 0 0)
(0 0 0)
(0 0 0)
(0 0 0)
(0 0 0)
(0 0 0)
(0 0 0)
(0 0 0)
(0 0 0)
(0 0 0)
(0 0 0)
(0 0 0)
(0 0 0)
(0 0 0)
(0 0 0)
(0 0 0)
(0 0 0)
(0 0 0)
(0 0 0)
(0 0 0)
(0 0 0)
(0 0 0)
(0 0 0)
(0 0 0)
(0 0 0)
(0 0 0)
(0 0 0)
(0 0 0)
(0 0 0)
(0 0 0)
(0 0 0)
(0 0 0)
(0 0 0)
(0 0 0)
(0 0 0)
(0 0 0)
(0 0 0)
(0 0 0)
(0 0 0)
(0 0 0)
(0 0 0)
(0 0 0)
(0 0 0)
(0 0 0)
(0 0 0)
(0 0 0)
(0 0 0)
(0 0 0)
(0 0 0)
(0 0 0)
(0 0 0)
(0 0 0)
(0 0 0)
(0 0 0)
(0 0 0)
(0 0 0)
(0 0 0)
(0 0 0)
(0 0 0)
(0 0 0)
(0 0 0)
(0 0 0)
(0 0 0)
(0 0 0)
(0 0 0)
(0 0 0)
(0 0 0)
(0 0 0)
(0 0 0)
(0 0 0)
(0 0 0)
(0 0 0)
(0 0 0)
(0 0 0)
(0 0 0)
(0 0 0)
(0 0 0)
(0 0 0)
(0 0 0)
(0 0 0)
(0 0 0)
(0 0 0)
(0 0 0)
(0 0 0)
(0 0 0)
(0 0 0)
(0 0 0)
(0 0 0)
(0 0 0)
(0 0 0)
(0 0 0)
(0 0 0)
(0 0 0)
(0 0 0)
(0 0 0)
(0 0 0)
(0 0 0)
(0 0 0)
(0 0 0)
(0 0 0)
(0 0 0)
(0 0 0)
(0 0 0)
(0 0 0)
(0 0 0)
(0 0 0)
(0 0 0)
(0 0 0)
(0 0 0)
(0 0 0)
(0 0 0)
(0 0 0)
(0 0 0)
(0 0 0)
(0 0 0)
(0 0 0)
(0 0 0)
(0 0 0)
(0 0 0)
(0 0 0)
(0 0 0)
(0 0 0)
(0 0 0)
(0 0 0)
(0 0 0)
(0 0 0)
(0 0 0)
(0 0 0)
(0 0 0)
(0 0 0)
(0 0 0)
(0 0 0)
(0 0 0)
(0 0 0)
(0 0 0)
(0 0 0)
(0 0 0)
(0 0 0)
(0 0 0)
(0 0 0)
(0 0 0)
(0 0 0)
(0 0 0)
(0 0 0)
(0 0 0)
(0 0 0)
(0 0 0)
(0 0 0)
(0 0 0)
(0 0 0)
(0 0 0)
(0 0 0)
(0 0 0)
(0 0 0)
(0 0 0)
(0 0 0)
(0 0 0)
(0 0 0)
(0 0 0)
(0 0 0)
(0 0 0)
(0 0 0)
(0 0 0)
(0 0 0)
(0 0 0)
(0 0 0)
(0 0 0)
(0 0 0)
(0 0 0)
(0 0 0)
(0 0 0)
(0 0 0)
(0 0 0)
(0 0 0)
(0 0 0)
(0 0 0)
(0 0 0)
(0 0 0)
(0 0 0)
(0 0 0)
(0 0 0)
(0 0 0)
(0 0 0)
(0 0 0)
(0 0 0)
(0 0 0)
(0 0 0)
(0 0 0)
(0 0 0)
(0 0 0)
(0 0 0)
(0 0 0)
(0 0 0)
(0 0 0)
(0 0 0)
(0 0 0)
(0 0 0)
(0 0 0)
(0 0 0)
(0 0 0)
(0 0 0)
(0 0 0)
(0 0 0)
(0 0 0)
(0 0 0)
(0 0 0)
(0 0 0)
(0 0 0)
(0 0 0)
(0 0 0)
(0 0 0)
(0 0 0)
(0 0 0)
(0 0 0)
(0 0 0)
(0 0 0)
(0 0 0)
(0 0 0)
(0 0 0)
(0 0 0)
(0 0 0)
(0 0 0)
(0 0 0)
(0 0 0)
(0 0 0)
(0 0 0)
(0 0 0)
(0 0 0)
(0 0 0)
(0 0 0)
(0 0 0)
(0 0 0)
(0 0 0)
(0 0 0)
(0 0 0)
(0 0 0)
(0 0 0)
(0 0 0)
(0 0 0)
(0 0 0)
(0 0 0)
(0 0 0)
(0 0 0)
(0 0 0)
(0 0 0)
(0 0 0)
(0 0 0)
(0 0 0)
(0 0 0)
(0 0 0)
(0 0 0)
(0 0 0)
(0 0 0)
(0 0 0)
(0 0 0)
(0 0 0)
(0 0 0)
(0 0 0)
(0 0 0)
(0 0 0)
(0 0 0)
(0 0 0)
(0 0 0)
(0 0 0)
(0 0 0)
(0 0 0)
(0 0 0)
(0 0 0)
(0 0 0)
(0 0 0)
(0 0 0)
(0 0 0)
(0 0 0)
(0 0 0)
(0 0 0)
(0 0 0)
(0 0 0)
(0 0 0)
(0 0 0)
(0 0 0)
(0 0 0)
(0 0 0)
(0 0 0)
(0 0 0)
(0 0 0)
(0 0 0)
(0 0 0)
(0 0 0)
(0 0 0)
(0 0 0)
(0 0 0)
(0 0 0)
(0 0 0)
(0 0 0)
(0 0 0)
(0 0 0)
(0 0 0)
(0 0 0)
(0 0 0)
(0 0 0)
(0 0 0)
(0 0 0)
(0 0 0)
(0 0 0)
(0 0 0)
(0 0 0)
(0 0 0)
(0 0 0)
(0 0 0)
(0 0 0)
(0 0 0)
(0 0 0)
(0 0 0)
(0 0 0)
(0 0 0)
(0 0 0)
(0 0 0)
(0 0 0)
(0 0 0)
(0 0 0)
(0 0 0)
(0 0 0)
(0 0 0)
(0 0 0)
(0 0 0)
(0 0 0)
(0 0 0)
(0 0 0)
(0 0 0)
(0 0 0)
(0 0 0)
(0 0 0)
(0 0 0)
(0 0 0)
(0 0 0)
(0 0 0)
(0 0 0)
(0 0 0)
(0 0 0)
(0 0 0)
(0 0 0)
(0 0 0)
(0 0 0)
(0 0 0)
(0 0 0)
(0 0 0)
(0 0 0)
(0 0 0)
(0 0 0)
(0 0 0)
(0 0 0)
(0 0 0)
(0 0 0)
(0 0 0)
(0 0 0)
(0 0 0)
(0 0 0)
(0 0 0)
(0 0 0)
(0 0 0)
(0 0 0)
(0 0 0)
(0 0 0)
(0 0 0)
(0 0 0)
(0 0 0)
(0 0 0)
(0 0 0)
(0 0 0)
(0 0 0)
(0 0 0)
(0 0 0)
(0 0 0)
(0 0 0)
(0 0 0)
(0 0 0)
(0 0 0)
(0 0 0)
(0 0 0)
(0 0 0)
(0 0 0)
(0 0 0)
(0 0 0)
(0 0 0)
(0 0 0)
(0 0 0)
(0 0 0)
(0 0 0)
(0 0 0)
(0 0 0)
(0 0 0)
(0 0 0)
(0 0 0)
(0 0 0)
(0 0 0)
(0 0 0)
(0 0 0)
(0 0 0)
(0 0 0)
(0 0 0)
(0 0 0)
(0 0 0)
(0 0 0)
(0 0 0)
(0 0 0)
(0 0 0)
(0 0 0)
(0 0 0)
(0 0 0)
(0 0 0)
(0 0 0)
(0 0 0)
(0 0 0)
(0 0 0)
(0 0 0)
(0 0 0)
(0 0 0)
(0 0 0)
(0 0 0)
(0 0 0)
(0 0 0)
(0 0 0)
(0 0 0)
(0 0 0)
(0 0 0)
(0 0 0)
(0 0 0)
(0 0 0)
(0 0 0)
(0 0 0)
(0 0 0)
(0 0 0)
(0 0 0)
(0 0 0)
(0 0 0)
(0 0 0)
(0 0 0)
(0 0 0)
(0 0 0)
(0 0 0)
(0 0 0)
(0 0 0)
(0 0 0)
(0 0 0)
(0 0 0)
(0 0 0)
(0 0 0)
(0 0 0)
(0 0 0)
(0 0 0)
(0 0 0)
(0 0 0)
(0 0 0)
(0 0 0)
(0 0 0)
(0 0 0)
(0 0 0)
(0 0 0)
(0 0 0)
(0 0 0)
(0 0 0)
(0 0 0)
(0 0 0)
(0 0 0)
(0 0 0)
(0 0 0)
(0 0 0)
(0 0 0)
(0 0 0)
(0 0 0)
(0 0 0)
(0 0 0)
(0 0 0)
(0 0 0)
(0 0 0)
(0 0 0)
(0 0 0)
(0 0 0)
(0 0 0)
(0 0 0)
(0 0 0)
(0 0 0)
(0 0 0)
(0 0 0)
(0 0 0)
(0 0 0)
(0 0 0)
(0 0 0)
(0 0 0)
(0 0 0)
(0 0 0)
(0 0 0)
(0 0 0)
(0 0 0)
(0 0 0)
(0 0 0)
(0 0 0)
(0 0 0)
(0 0 0)
(0 0 0)
(0 0 0)
(0 0 0)
(0 0 0)
(0 0 0)
(0 0 0)
(0 0 0)
(0 0 0)
(0 0 0)
(0 0 0)
(0 0 0)
(0 0 0)
(0 0 0)
(0 0 0)
(0 0 0)
(0 0 0)
(0 0 0)
(0 0 0)
(0 0 0)
(0 0 0)
(0 0 0)
(0 0 0)
(0 0 0)
(0 0 0)
(0 0 0)
(0 0 0)
(0 0 0)
(0 0 0)
(0 0 0)
(0 0 0)
(0 0 0)
(0 0 0)
(0 0 0)
(0 0 0)
(0 0 0)
(0 0 0)
(0 0 0)
(0 0 0)
(0 0 0)
(0 0 0)
(0 0 0)
(0 0 0)
(0 0 0)
(0 0 0)
(0 0 0)
(0 0 0)
(0 0 0)
(0 0 0)
(0 0 0)
(0 0 0)
(0 0 0)
(0 0 0)
(0 0 0)
(0 0 0)
(0 0 0)
(0 0 0)
(0 0 0)
(0 0 0)
(0 0 0)
(0 0 0)
(0 0 0)
(0 0 0)
(0 0 0)
(0 0 0)
(0 0 0)
(0 0 0)
(0 0 0)
(0 0 0)
(0 0 0)
(0 0 0)
(0 0 0)
(0 0 0)
(0 0 0)
(0 0 0)
(0 0 0)
(0 0 0)
(0 0 0)
(0 0 0)
(0 0 0)
(0 0 0)
(0 0 0)
(0 0 0)
(0 0 0)
(0 0 0)
(0 0 0)
(0 0 0)
(0 0 0)
(0 0 0)
(0 0 0)
(0 0 0)
(0 0 0)
(0 0 0)
(0 0 0)
(0 0 0)
(0 0 0)
(0 0 0)
(0 0 0)
(0 0 0)
(0 0 0)
(0 0 0)
(0 0 0)
(0 0 0)
(0 0 0)
(0 0 0)
(0 0 0)
(0 0 0)
(0 0 0)
(0 0 0)
(0 0 0)
(0 0 0)
(0 0 0)
(0 0 0)
(0 0 0)
(0 0 0)
(0 0 0)
(0 0 0)
(0 0 0)
(0 0 0)
(0 0 0)
(0 0 0)
(0 0 0)
(0 0 0)
(0 0 0)
(0 0 0)
(0 0 0)
(0 0 0)
(0 0 0)
(0 0 0)
(0 0 0)
(0 0 0)
(0 0 0)
(0 0 0)
(0 0 0)
(0 0 0)
(0 0 0)
(0 0 0)
(0 0 0)
(0 0 0)
(0 0 0)
(0 0 0)
(0 0 0)
(0 0 0)
(0 0 0)
(0 0 0)
(0 0 0)
(0 0 0)
(0 0 0)
(0 0 0)
(0 0 0)
(0 0 0)
(0 0 0)
(0 0 0)
(0 0 0)
(0 0 0)
(0 0 0)
(0 0 0)
(0 0 0)
(0 0 0)
(0 0 0)
(0 0 0)
(0 0 0)
(0 0 0)
(0 0 0)
(0 0 0)
(0 0 0)
(0 0 0)
(0 0 0)
(0 0 0)
(0 0 0)
(0 0 0)
(0 0 0)
(0 0 0)
(0 0 0)
(0 0 0)
(0 0 0)
(0 0 0)
(0 0 0)
(0 0 0)
(0 0 0)
(0 0 0)
(0 0 0)
(0 0 0)
(0 0 0)
(0 0 0)
(0 0 0)
(0 0 0)
(0 0 0)
(0 0 0)
(0 0 0)
(0 0 0)
(0 0 0)
(0 0 0)
(0 0 0)
(0 0 0)
(0 0 0)
(0 0 0)
(0 0 0)
(0 0 0)
(0 0 0)
(0 0 0)
(0 0 0)
(0 0 0)
(0 0 0)
(0 0 0)
(0 0 0)
(0 0 0)
(0 0 0)
(0 0 0)
(0 0 0)
(0 0 0)
(0 0 0)
(0 0 0)
(0 0 0)
(0 0 0)
(0 0 0)
(0 0 0)
(0 0 0)
(0 0 0)
(0 0 0)
(0 0 0)
(0 0 0)
(0 0 0)
(0 0 0)
(0 0 0)
(0 0 0)
(0 0 0)
(0 0 0)
(0 0 0)
(0 0 0)
(0 0 0)
(0 0 0)
(0 0 0)
(0 0 0)
(0 0 0)
(0 0 0)
(0 0 0)
(0 0 0)
(0 0 0)
(0 0 0)
(0 0 0)
(0 0 0)
(0 0 0)
(0 0 0)
(0 0 0)
(0 0 0)
(0 0 0)
(0 0 0)
(0 0 0)
(0 0 0)
(0 0 0)
(0 0 0)
(0 0 0)
(0 0 0)
(0 0 0)
(0 0 0)
(0 0 0)
(0 0 0)
(0 0 0)
(0 0 0)
(0 0 0)
(0 0 0)
(0 0 0)
(0 0 0)
(0 0 0)
(0 0 0)
(0 0 0)
(0 0 0)
(0 0 0)
(0 0 0)
(0 0 0)
(0 0 0)
(0 0 0)
(0 0 0)
(0 0 0)
(0 0 0)
(0 0 0)
(0 0 0)
(0 0 0)
(0 0 0)
(0 0 0)
(0 0 0)
(0 0 0)
(0 0 0)
(0 0 0)
(0 0 0)
(0 0 0)
(0 0 0)
(0 0 0)
(0 0 0)
(0 0 0)
(0 0 0)
(0 0 0)
(0 0 0)
(0 0 0)
(0 0 0)
(0 0 0)
(0 0 0)
(0 0 0)
(0 0 0)
(0 0 0)
(0 0 0)
(0 0 0)
(0 0 0)
(0 0 0)
(0 0 0)
(0 0 0)
(0 0 0)
(0 0 0)
(0 0 0)
(0 0 0)
(0 0 0)
(0 0 0)
(0 0 0)
(0 0 0)
(0 0 0)
(0 0 0)
(0 0 0)
(0 0 0)
(0 0 0)
(0 0 0)
(0 0 0)
(0 0 0)
(0 0 0)
(0 0 0)
(0 0 0)
(0 0 0)
(0 0 0)
(0 0 0)
(0 0 0)
(0 0 0)
(0 0 0)
(0 0 0)
(0 0 0)
(0 0 0)
(0 0 0)
(0 0 0)
(0 0 0)
(0 0 0)
(0 0 0)
(0 0 0)
(0 0 0)
(0 0 0)
(0 0 0)
(0 0 0)
(0 0 0)
(0 0 0)
(0 0 0)
(0 0 0)
(0 0 0)
(0 0 0)
(0 0 0)
(0 0 0)
(0 0 0)
(0 0 0)
(0 0 0)
(0 0 0)
(0 0 0)
(0 0 0)
(0 0 0)
(0 0 0)
(0 0 0)
(0 0 0)
(0 0 0)
(0 0 0)
(0 0 0)
(0 0 0)
(0 0 0)
(0 0 0)
(0 0 0)
(0 0 0)
(0 0 0)
(0 0 0)
(0 0 0)
(0 0 0)
(0 0 0)
(0 0 0)
(0 0 0)
(0 0 0)
(0 0 0)
(0 0 0)
(0 0 0)
(-5.26397e-05 -8.19534e-06 6.34395e-05)
(4.45737e-06 9.53556e-05 4.89027e-05)
(1.09059e-05 2.51681e-05 8.95625e-05)
(1.45343e-06 -3.96097e-06 4.17851e-05)
(-0.000131455 -1.56762e-05 3.85754e-05)
(6.53625e-05 0.000264058 -0.000211389)
(0.000218934 -0.000227216 -4.58981e-05)
(0.000128731 5.12072e-05 4.5783e-05)
(5.26014e-05 0.00015617 5.76425e-05)
(5.90646e-05 0.000107512 7.77897e-05)
(-0.000121896 0.000144027 0.000132133)
(-2.44755e-05 -3.20133e-05 8.92816e-05)
(-4.01928e-06 5.33345e-05 2.80551e-05)
(-1.95755e-05 2.24733e-05 1.10938e-05)
(-1.68147e-05 -2.37676e-05 -0.000141043)
(6.07568e-05 0.000120876 0.000110509)
(0.00033462 4.5404e-05 4.40113e-05)
(0.000366629 0.000157514 0.000125848)
(-0.000207602 7.69309e-05 7.61974e-05)
(-3.80111e-05 -0.000229373 6.69663e-05)
(-2.87715e-05 -4.72513e-05 8.99984e-05)
(-5.65073e-05 -3.10232e-05 2.89021e-05)
(-4.94007e-05 2.76242e-05 2.01716e-05)
(-4.43372e-05 1.37504e-05 0.000106801)
(4.58455e-05 2.54046e-05 1.96099e-05)
(0.000279215 0.000202606 -8.40645e-05)
(0.000260585 4.86619e-05 -1.36247e-05)
(-2.23247e-05 -0.000107192 4.76314e-05)
(-5.06025e-05 1.31271e-05 2.59863e-05)
(4.6125e-05 -3.6083e-05 6.77896e-05)
(0.000118988 -0.000115276 9.0188e-05)
(2.44169e-05 -3.10844e-05 3.77125e-05)
(0.000110973 7.23702e-05 0.000321526)
(0.000192714 1.51632e-05 0.000196559)
(3.13089e-05 -8.73786e-05 0.000390143)
(1.30905e-06 4.62959e-05 0.000276276)
(5.93447e-05 7.85179e-05 0.000351353)
(0.000134339 0.000177631 0.00017523)
(0.000178027 0.000393922 0.000162252)
(-3.5292e-05 -2.10705e-05 0.000148309)
(0.000137471 -1.45662e-06 0.000287181)
(-5.98827e-05 4.53278e-05 0.000353696)
(5.26794e-05 6.38969e-05 0.000363782)
(0.000163221 -1.4047e-05 0.000301208)
(-9.67624e-06 -5.48227e-05 0.000240343)
(0.000234341 8.06058e-05 0.000364499)
(8.69621e-05 -0.000199813 0.000157492)
(9.05108e-06 -6.78617e-07 0.000294253)
(0.000178692 2.32582e-05 0.000150783)
(2.02968e-05 0.000128429 0.000288546)
(0.000201254 1.52732e-05 0.00021106)
(0.000157207 -9.64452e-05 0.000290437)
(-4.91416e-05 2.70796e-05 0.000195845)
(6.00539e-05 -9.6804e-05 0.000292301)
(0.000200297 -7.42983e-05 0.000449171)
(8.95741e-05 -7.22678e-07 0.000278308)
(0.000215078 7.21888e-05 0.000102783)
(0.000301211 0.000124991 0.00010974)
(0.000243321 1.9439e-05 0.000334107)
(0.000230205 0.000105409 0.000501147)
(-8.54076e-05 8.22174e-05 0.000115022)
(-5.39531e-06 -8.76753e-05 0.000219424)
(-3.15352e-05 -8.37418e-05 8.35024e-05)
(9.08668e-05 -3.97225e-05 0.000320425)
(0.000117275 7.24784e-05 0.000465195)
(0.000140427 0.000207508 0.000293484)
(0.000112194 0.000226598 0.000381295)
(-2.95308e-05 0.000164105 0.000446696)
(2.25171e-05 7.38675e-05 0.000383334)
(0.000100565 -5.3559e-05 0.000518015)
(0.00025471 0.000106341 0.00056561)
(0.000164987 -1.8995e-05 0.000472995)
(1.61659e-05 0.000126942 0.000469252)
(0.000126313 0.000179442 0.000398032)
(0.00017103 0.000272204 0.000492065)
(-9.22827e-05 0.000307648 0.000434182)
(9.47931e-05 0.000160071 0.000506359)
(1.19439e-05 -7.76181e-05 0.00048353)
(0.000114404 -5.45191e-05 0.000465899)
(0.000245736 5.07095e-06 0.000577567)