/*--------------------------------*- C++ -*----------------------------------*\
| =========                 |                                                 |
| \\      /  F ield         | OpenFOAM: The Open Source CFD Toolbox           |
|  \\    /   O peration     | Version:  2506                                  |
|   \\  /    A nd           | Website:  www.openfoam.com                      |
|    \\/     M anipulation  |                                                 |
\*---------------------------------------------------------------------------*/
FoamFile
{
    version     2.0;
    format      ascii;
    arch        "LSB;label=32;scalar=64";
    class       surfaceScalarField;
    location    "0.05";
    object      phi;
}
// * * * * * * * * * * * * * * * * * * * * * * * * * * * * * * * * * * * * * //

dimensions      [0 3 -1 0 0 0 0];

oriented        oriented;

internalField   nonuniform List<scalar> 
3120
(
1.30458e-09
-1.1648e-09
3.40303e-08
4.75313e-09
-2.55928e-09
3.94981e-08
7.20841e-10
-2.75173e-09
4.58053e-08
2.53519e-09
3.39709e-08
8.77091e-10
-6.4699e-10
1.77945e-09
3.4166e-08
2.30579e-09
1.55267e-09
2.60326e-08
2.86626e-09
2.26125e-09
2.699e-08
1.61677e-09
3.55194e-08
1.54286e-09
-3.54976e-10
1.61137e-09
3.83071e-08
3.65387e-09
6.21057e-09
2.45448e-08
8.13972e-10
1.92002e-09
3.57247e-08
4.3769e-09
2.87454e-08
2.61559e-09
5.51749e-09
2.80439e-08
3.2521e-09
-1.01455e-09
4.81062e-08
-2.03988e-09
1.79602e-09
3.12998e-08
-8.16099e-12
4.05656e-08
-1.12681e-09
-1.05669e-09
-1.03858e-09
1.73386e-09
3.20373e-08
1.79237e-09
4.27718e-09
3.09544e-08
3.73045e-09
3.31579e-09
3.68744e-08
-1.10838e-09
4.0138e-08
-1.59451e-09
1.18405e-09
-3.04259e-09
3.98911e-08
1.68799e-09
1.09892e-09
2.8707e-08
8.33576e-10
1.02209e-09
3.01381e-08
5.26516e-10
3.15821e-08
3.1361e-09
5.74522e-09
7.89545e-09
1.77979e-08
1.30178e-09
3.42696e-09
2.66602e-08
7.79302e-10
1.93406e-09
3.53351e-08
7.63242e-10
2.69425e-08
2.34541e-09
3.68715e-09
3.42164e-08
8.00819e-10
-2.01348e-09
5.72668e-08
-3.2938e-11
-6.83756e-10
2.83548e-08
3.54928e-09
2.74993e-08
7.11323e-09
6.03244e-09
-1.96003e-09
2.67971e-09
2.96691e-08
3.13482e-09
1.85375e-09
1.86685e-08
4.50979e-09
-1.28949e-09
3.59143e-08
-2.81886e-09
5.21349e-08
-2.03969e-09
-3.26751e-09
-1.9554e-09
5.23162e-08
-2.09042e-09
3.62038e-10
2.90216e-08
1.036e-09
2.68056e-10
2.54542e-08
2.81056e-09
2.5654e-08
1.33464e-09
8.38459e-10
4.97834e-10
1.4558e-08
-1.67547e-09
-3.345e-09
3.28812e-08
3.80998e-09
3.38756e-09
2.67302e-08
4.33386e-09
2.50417e-08
4.1875e-09
-2.96801e-09
3.74318e-08
1.37665e-09
5.57231e-09
4.0081e-08
5.30054e-09
3.99874e-09
3.13822e-08
1.93381e-09
3.22427e-08
1.21133e-09
2.37802e-09
-2.6731e-09
-4.94704e-09
4.46043e-08
-4.55093e-11
-1.12738e-09
1.34024e-08
-2.67504e-09
-5.60597e-10
3.686e-08
2.9971e-09
3.51563e-08
3.86693e-09
-9.67168e-10
4.40086e-09
4.05677e-08
1.19832e-09
2.85876e-09
2.287e-08
8.60924e-10
5.54341e-10
2.46766e-08
6.70938e-10
2.9313e-08
-4.71903e-10
-2.04735e-09
-2.47921e-09
2.49369e-08
-1.977e-10
-9.30233e-11
3.39833e-08
7.79955e-10
4.31614e-09
2.19907e-08
-3.69824e-10
2.66258e-08
2.36698e-10
-4.14064e-10
3.64858e-08
6.5511e-12
5.19892e-09
3.45802e-08
-2.05186e-10
-4.15282e-09
4.58435e-08
-7.93462e-10
2.80256e-08
-3.18626e-09
2.88077e-09
8.28769e-09
7.31569e-10
4.07279e-08
-4.92623e-09
-1.52092e-09
3.6976e-08
-2.42562e-09
5.18149e-09
3.25006e-08
6.65457e-09
1.94111e-08
4.35009e-09
1.29298e-09
3.00343e-09
3.84576e-08
2.4012e-09
-2.04691e-10
2.04455e-08
2.01509e-09
-6.35632e-10
3.08799e-08
-7.22752e-10
3.79855e-08
7.1996e-10
-1.21823e-09
5.27621e-09
2.72796e-08
2.49604e-09
8.15206e-10
2.92492e-08
1.55002e-09
-2.44244e-09
2.47435e-08
-3.86346e-09
3.41545e-08
-2.83797e-09
-5.36056e-09
5.88311e-08
-5.40663e-09
-1.58443e-10
3.05423e-08
-3.49054e-10
-1.16982e-09
4.05152e-08
3.89726e-09
2.26921e-08
1.95829e-09
-1.65808e-09
-3.0696e-09
-9.6212e-10
4.76626e-08
6.28399e-09
5.11559e-09
2.98948e-08
3.49145e-09
2.6504e-09
3.59825e-08
-7.10911e-10
3.08321e-08
-2.05299e-09
2.02959e-09
4.99473e-09
2.8402e-08
4.31297e-09
3.30116e-09
1.99766e-08
4.29407e-09
1.75798e-09
3.17912e-08
-1.56095e-09
4.45744e-08
-1.44483e-09
1.00833e-09
-2.70123e-09
3.44374e-08
1.98501e-09
5.23716e-10
3.10499e-08
6.73505e-10
-3.36318e-10
2.81493e-08
-1.7344e-10
3.55007e-08
-2.06039e-09
6.99756e-09
3.40465e-08
5.07619e-09
7.13143e-10
3.69762e-08
3.74263e-10
9.31806e-11
4.48841e-08
-4.08537e-09
2.40081e-08
-2.14535e-09
7.4896e-10
1.05598e-09
9.81565e-10
4.09089e-08
-1.39337e-11
2.38436e-10
3.02842e-08
9.02416e-10
1.19625e-10
3.28426e-08
-1.57354e-09
3.72529e-08
-8.62921e-10
6.42193e-10
-4.64023e-10
2.89095e-08
-7.60797e-10
-9.95628e-10
2.26137e-08
-1.05026e-09
4.5262e-10
3.1748e-08
-1.28773e-10
4.29623e-08
-8.82663e-10
6.35686e-10
-1.22099e-10
3.32128e-08
8.22609e-10
-8.16145e-10
3.06836e-08
-2.82265e-10
-1.72788e-09
3.14347e-08
-2.60505e-10
3.49441e-08
4.06158e-10
2.27674e-10
3.38476e-08
-7.63909e-10
-6.00031e-10
3.67862e-08
2.01523e-10
7.73485e-10
4.17989e-08
-1.61069e-11
2.90216e-08
-1.54659e-09
-2.95428e-09
-4.71104e-10
-4.17887e-10
3.678e-08
-1.71062e-09
-1.99321e-10
3.14432e-08
-1.97242e-09
-9.1698e-10
3.22065e-08
-9.66312e-10
3.46371e-08
2.53241e-10
-1.36186e-09
-1.38529e-09
2.98943e-08
-3.31614e-09
-1.56306e-09
2.59316e-08
-3.66563e-09
-4.42833e-10
3.16238e-08
2.31699e-09
3.56418e-08
3.72434e-10
-1.16781e-09
-5.6147e-10
3.22592e-08
-1.72914e-09
-6.84326e-10
3.03663e-08
-1.73823e-09
-1.84286e-10
3.11853e-08
3.36388e-09
3.23448e-08
-1.84925e-10
-2.13601e-09
3.38432e-08
-1.26886e-10
-1.80696e-09
3.45273e-08
1.24615e-09
6.43267e-10
3.66499e-08
2.51412e-09
3.01491e-08
2.67482e-09
2.04286e-10
3.6702e-10
-8.46253e-10
3.26321e-08
-6.41026e-10
-9.61837e-10
3.12354e-08
-2.11822e-09
-2.13405e-09
3.17457e-08
-1.1571e-09
3.34278e-08
-7.02029e-10
-7.45974e-10
-2.13202e-09
3.06905e-08
-2.67232e-09
-2.94094e-09
2.98373e-08
-2.65187e-09
-2.48117e-09
3.19504e-08
-1.16746e-09
3.3704e-08
-7.03683e-10
-1.00329e-09
-2.32373e-09
3.18391e-08
-1.90926e-09
-3.2465e-09
3.1578e-08
-1.78275e-09
-3.87124e-09
3.24488e-08
-2.54154e-09
3.30265e-08
-1.09087e-09
-2.02325e-09
3.29113e-08
-2.19714e-09
-2.31695e-09
3.34841e-08
-1.90951e-09
-8.62034e-10
3.46492e-08
-3.32642e-09
3.30695e-08
-5.30029e-09
-1.02495e-09
-3.73471e-10
-8.29313e-10
3.18326e-08
-1.07791e-09
-1.02924e-09
3.16554e-08
-1.78045e-09
-1.46773e-09
3.20263e-08
-1.02281e-09
3.29215e-08
-1.2433e-09
-8.86753e-10
-1.52931e-09
3.15255e-08
-1.76067e-09
-1.84378e-09
3.15258e-08
-1.85867e-09
-1.71721e-09
3.2298e-08
-1.06239e-09
3.30811e-08
-1.19613e-09
-1.09476e-09
-1.71629e-09
3.20856e-08
-1.52716e-09
-2.05552e-09
3.22222e-08
-1.38432e-09
-2.16612e-09
3.27549e-08
-1.54215e-09
3.314e-08
-1.01835e-09
-1.488e-09
3.27125e-08
-1.67951e-09
-1.53194e-09
3.30818e-08
-1.60922e-09
-7.74208e-10
3.36686e-08
-1.94347e-09
3.35941e-08
-2.26288e-09
-5.79175e-10
-4.48881e-10
-6.15099e-10
3.21007e-08
-8.47324e-10
-7.77282e-10
3.21649e-08
-1.14024e-09
-9.57822e-10
3.24228e-08
-8.61715e-10
3.28689e-08
-9.20952e-10
-6.91399e-10
-9.55624e-10
3.21468e-08
-1.086e-09
-1.12731e-09
3.22706e-08
-1.19315e-09
-1.18266e-09
3.26301e-08
-1.05206e-09
3.30269e-08
-9.48349e-10
-8.43361e-10
-1.06674e-09
3.24471e-08
-1.11088e-09
-1.25329e-09
3.2616e-08
-1.10353e-09
-1.37185e-09
3.29369e-08
-1.31771e-09
3.32175e-08
-9.15258e-10
-1.05262e-09
3.27932e-08
-9.73989e-10
-1.20444e-09
3.30404e-08
-1.05977e-09
-1.03631e-09
3.33849e-08
-1.256e-09
3.35686e-08
-1.48744e-09
-8.41047e-10
-3.65523e-10
-3.97074e-10
3.24562e-08
-5.81479e-10
-4.97057e-10
3.25301e-08
-7.10712e-10
-5.79642e-10
3.26895e-08
-5.72198e-10
3.29152e-08
-6.30206e-10
-4.80304e-10
-5.71651e-10
3.25332e-08
-6.76571e-10
-6.64512e-10
3.26344e-08
-7.41238e-10
-7.09483e-10
3.28244e-08
-6.78928e-10
3.30373e-08
-6.45163e-10
-5.66338e-10
-6.33596e-10
3.26984e-08
-7.11251e-10
-7.24625e-10
3.2821e-08
-7.17576e-10
-7.74178e-10
3.30079e-08
-7.6201e-10
3.31881e-08
-6.05149e-10
-6.61573e-10
3.28856e-08
-5.79615e-10
-7.51041e-10
3.30392e-08
-6.34084e-10
-6.90966e-10
3.32373e-08
-6.86772e-10
3.33955e-08
-7.39686e-10
-5.40296e-10
-2.51793e-10
-2.33949e-10
3.26985e-08
-3.65476e-10
-2.94236e-10
3.27514e-08
-4.23507e-10
-3.40986e-10
3.2845e-08
-3.55517e-10
3.29639e-08
-3.8894e-10
-3.13505e-10
-3.28354e-10
3.27547e-08
-4.14201e-10
-3.81687e-10
3.28224e-08
-4.46736e-10
-4.12423e-10
3.29282e-08
-4.11739e-10
3.30464e-08
-3.99899e-10
-3.63773e-10
-3.61575e-10
3.28463e-08
-4.41174e-10
-4.09395e-10
3.2926e-08
-4.45972e-10
-4.34901e-10
3.30351e-08
-4.34488e-10
3.31454e-08
-3.80698e-10
-4.11822e-10
3.29483e-08
-3.31063e-10
-4.63483e-10
3.30423e-08
-3.61011e-10
-4.40104e-10
3.31575e-08
-3.7857e-10
3.32642e-08
-3.92554e-10
-3.50907e-10
-1.66533e-10
-1.34808e-10
3.28422e-08
-2.24472e-10
-1.71124e-10
3.28766e-08
-2.50547e-10
-1.99724e-10
3.29309e-08
-2.14957e-10
3.2996e-08
-2.33043e-10
-2.02461e-10
-1.86519e-10
3.28769e-08
-2.53228e-10
-2.17872e-10
3.29198e-08
-2.6783e-10
-2.37811e-10
3.29808e-08
-2.43187e-10
3.3048e-08
-2.41425e-10
-2.32354e-10
-2.04529e-10
3.29278e-08
-2.71718e-10
-2.30628e-10
3.29781e-08
-2.72557e-10
-2.44532e-10
3.30425e-08
-2.45801e-10
3.31087e-08
-2.33384e-10
-2.58032e-10
3.2984e-08
-1.87418e-10
-2.84507e-10
3.30416e-08
-2.03491e-10
-2.71723e-10
3.31096e-08
-2.0956e-10
3.31757e-08
-2.10821e-10
-2.18405e-10
-1.10403e-10
-7.78057e-11
3.2923e-08
-1.39316e-10
-9.9683e-11
3.2945e-08
-1.50675e-10
-1.1745e-10
3.2977e-08
-1.28799e-10
3.30138e-08
-1.40273e-10
-1.31922e-10
-1.06444e-10
3.29433e-08
-1.57047e-10
-1.25025e-10
3.29704e-08
-1.6256e-10
-1.37589e-10
3.30064e-08
-1.42696e-10
3.30454e-08
-1.4617e-10
-1.49805e-10
-1.16486e-10
3.29718e-08
-1.69043e-10
-1.31019e-10
3.30034e-08
-1.67299e-10
-1.38825e-10
3.3042e-08
-1.3986e-10
3.30816e-08
-1.43047e-10
-1.6394e-10
3.30031e-08
-1.07221e-10
-1.76396e-10
3.30387e-08
-1.1558e-10
-1.6752e-10
3.30794e-08
-1.17533e-10
3.31194e-08
-1.1569e-10
-1.35453e-10
-7.41873e-11
-4.53853e-11
3.29674e-08
-8.83169e-11
-5.85834e-11
3.29817e-08
-9.27636e-11
-6.95651e-11
3.30009e-08
-7.71124e-11
3.30223e-08
-8.58029e-11
-8.71918e-11
-6.13647e-11
3.29791e-08
-9.92814e-11
-7.23723e-11
3.29965e-08
-1.00482e-10
-8.01042e-11
3.30182e-08
-8.37603e-11
3.30413e-08
-8.96807e-11
-9.78562e-11
-6.70536e-11
3.29952e-08
-1.06781e-10
-7.51824e-11
3.30153e-08
-1.03982e-10
-7.95709e-11
3.30388e-08
-8.01621e-11
3.30626e-08
-8.85288e-11
-1.05707e-10
3.30129e-08
-6.20571e-11
-1.10952e-10
3.30352e-08
-6.62485e-11
-1.0425e-10
3.30599e-08
-6.66528e-11
3.30841e-08
-6.45229e-11
-8.44917e-11
-5.05118e-11
-2.68143e-11
3.29915e-08
-5.72895e-11
-3.48251e-11
3.3001e-08
-5.85562e-11
-4.15392e-11
3.30129e-08
-4.62828e-11
3.30257e-08
-5.35593e-11
-5.84275e-11
-3.58284e-11
3.29984e-08
-6.40031e-11
-4.23224e-11
3.30097e-08
-6.33695e-11
-4.69902e-11
3.30231e-08
-4.93494e-11
3.30371e-08
-5.5991e-11
-6.47441e-11
-3.9056e-11
3.30076e-08
-6.85684e-11
-4.35745e-11
3.30205e-08
-6.56686e-11
-4.60093e-11
3.30351e-08
-4.62817e-11
3.30496e-08
-5.5578e-11
-6.90868e-11
3.30177e-08
-3.62704e-11
-7.08854e-11
3.30319e-08
-3.82747e-11
-6.58031e-11
3.30472e-08
-3.81135e-11
3.30619e-08
-3.6383e-11
-5.33245e-11
-3.47043e-11
-1.59851e-11
3.30046e-08
-3.78924e-11
-2.08738e-11
3.30111e-08
-3.77944e-11
-2.49332e-11
3.30187e-08
-2.78212e-11
3.30266e-08
-3.41065e-11
-3.95474e-11
-2.11404e-11
3.30087e-08
-4.1955e-11
-2.49513e-11
3.30163e-08
-4.07152e-11
-2.77217e-11
3.30248e-08
-2.91591e-11
3.30335e-08
-3.55826e-11
-4.32632e-11
-2.29561e-11
3.30141e-08
-4.46757e-11
-2.54451e-11
3.30226e-08
-4.21294e-11
-2.67616e-11
3.30318e-08
-2.68394e-11
3.30408e-08
-3.54182e-11
-4.5644e-11
3.302e-08
-2.13316e-11
-4.59245e-11
3.30292e-08
-2.22244e-11
-4.21415e-11
3.30388e-08
-2.18835e-11
3.30479e-08
-2.06069e-11
-3.40911e-11
-2.39196e-11
-9.52362e-12
3.30118e-08
-2.53498e-11
-1.25145e-11
3.30163e-08
-2.47611e-11
-1.4963e-11
3.30213e-08
-1.67053e-11
3.30264e-08
-2.20514e-11
-2.68901e-11
-1.24931e-11
3.30143e-08
-2.78005e-11
-1.47304e-11
3.30194e-08
-2.65216e-11
-1.63604e-11
3.3025e-08
-1.72148e-11
3.30306e-08
-2.29351e-11
-2.90746e-11
-1.35094e-11
3.30175e-08
-2.9404e-11
-1.48828e-11
3.30232e-08
-2.73667e-11
-1.55825e-11
3.30292e-08
-1.55701e-11
3.30349e-08
-2.28599e-11
-3.03799e-11
3.30211e-08
-1.25447e-11
-3.00623e-11
3.30271e-08
-1.28998e-11
-2.73186e-11
3.30332e-08
-1.25495e-11
3.3039e-08
-1.1652e-11
-2.20545e-11
-1.63895e-11
-5.57957e-12
3.30159e-08
-1.69664e-11
-7.4154e-12
3.3019e-08
-1.62957e-11
-8.90158e-12
3.30224e-08
-9.95956e-12
3.30259e-08
-1.43513e-11
-1.82225e-11
-7.29278e-12
3.30174e-08
-1.84566e-11
-8.619e-12
3.30209e-08
-1.73668e-11
-9.5798e-12
3.30247e-08
-1.00871e-11
3.30284e-08
-1.48835e-11
-1.95159e-11
-7.87433e-12
3.30193e-08
-1.94022e-11
-8.64265e-12
3.30232e-08
-1.78709e-11
-9.01401e-12
3.30272e-08
-8.9725e-12
3.30309e-08
-1.48523e-11
-2.02387e-11
3.30214e-08
-7.31915e-12
-1.97466e-11
3.30255e-08
-7.43022e-12
-1.78076e-11
3.30295e-08
-7.1376e-12
3.30332e-08
-6.52575e-12
-1.43523e-11
-1.10374e-11
-3.17918e-12
3.30181e-08
-1.12144e-11
-4.28276e-12
3.30204e-08
-1.06212e-11
-5.17136e-12
3.30229e-08
-5.80815e-12
3.30252e-08
-9.263e-12
-1.21451e-11
-4.16216e-12
3.3019e-08
-1.21098e-11
-4.942e-12
3.30216e-08
-1.12689e-11
-5.50168e-12
3.30243e-08
-5.79783e-12
3.30268e-08
-9.58741e-12
-1.2902e-11
-4.49904e-12
3.30202e-08
-1.26604e-11
-4.92714e-12
3.3023e-08
-1.15646e-11
-5.1199e-12
3.30257e-08
-5.07332e-12
3.30283e-08
-9.5735e-12
-1.32987e-11
3.30215e-08
-4.19419e-12
-1.28352e-11
3.30243e-08
-4.20335e-12
-1.15043e-11
3.30271e-08
-3.98098e-12
3.30295e-08
-3.57218e-12
-9.25952e-12
-7.15638e-12
-1.77901e-12
3.30194e-08
-7.15538e-12
-2.38095e-12
3.30212e-08
-6.68447e-12
-2.87212e-12
3.3023e-08
-3.23305e-12
3.30248e-08
-5.76807e-12
-7.76176e-12
-2.3159e-12
3.30199e-08
-7.65293e-12
-2.74291e-12
3.30219e-08
-7.05273e-12
-3.04775e-12
3.30239e-08
-3.20849e-12
3.30257e-08
-5.96238e-12
-8.1734e-12
-2.49368e-12
3.30206e-08
-7.95252e-12
-2.71626e-12
3.30227e-08
-7.21373e-12
-2.80543e-12
3.30247e-08
-2.76074e-12
3.30266e-08
-5.95283e-12
-8.37604e-12
3.30214e-08
-2.32495e-12
-8.03054e-12
3.30236e-08
-2.29845e-12
-7.16061e-12
3.30255e-08
-2.13996e-12
3.30273e-08
-1.87763e-12
-5.75089e-12
-4.29045e-12
-1.01601e-12
3.302e-08
-4.22644e-12
-1.29178e-12
3.30215e-08
-3.89331e-12
-1.52732e-12
3.30231e-08
-1.70879e-12
3.30245e-08
-3.32216e-12
-4.56813e-12
-1.27411e-12
3.30204e-08
-4.46522e-12
-1.47565e-12
3.3022e-08
-4.07741e-12
-1.62041e-12
3.30236e-08
-1.69574e-12
3.30251e-08
-3.42666e-12
-4.76117e-12
-1.34202e-12
3.30208e-08
-4.60693e-12
-1.44084e-12
3.30225e-08
-4.15185e-12
-1.47132e-12
3.30242e-08
-1.43515e-12
3.30256e-08
-3.41565e-12
-4.84915e-12
3.30214e-08
-1.23949e-12
-4.63121e-12
3.30231e-08
-1.20639e-12
-4.10952e-12
3.30246e-08
-1.10244e-12
3.30259e-08
-9.49489e-13
-3.29185e-12
-2.43495e-12
-7.42921e-13
-2.36621e-12
-8.69798e-13
-2.1609e-12
-9.77118e-13
-1.05528e-12
-1.83846e-12
-2.56136e-12
-8.37841e-13
-2.47414e-12
-9.25778e-13
-2.23922e-12
-9.84313e-13
-1.00442e-12
-1.87458e-12
-2.64494e-12
-8.37504e-13
-2.53066e-12
-8.70129e-13
-2.25805e-12
-8.66324e-13
-8.2486e-13
-1.84453e-12
-2.67178e-12
-7.52507e-13
-2.52184e-12
-7.16414e-13
-2.20983e-12
-6.39238e-13
-5.36079e-13
-1.74743e-12
2.1483e-09
-2.05328e-11
3.62287e-08
2.24309e-09
-1.06789e-09
3.12046e-08
2.64491e-10
-1.06872e-09
2.98136e-08
-2.08807e-10
1.88956e-08
-5.20648e-11
6.01145e-10
-1.39057e-09
4.01544e-08
1.66147e-09
-1.11416e-09
3.53206e-08
-2.88854e-10
4.06854e-09
2.68753e-08
2.53469e-09
1.89933e-08
1.96471e-09
9.87044e-10
1.28021e-09
3.6027e-08
3.70074e-09
1.99425e-09
3.53591e-08
-9.86407e-10
1.91338e-09
4.21986e-08
8.79237e-09
2.06662e-08
4.89582e-10
1.30234e-09
4.35844e-08
4.33595e-09
4.40008e-08
2.12507e-09
4.40272e-08
4.44121e-08
-3.71719e-10
1.6793e-09
4.75764e-09
3.10157e-08
1.67432e-09
5.15108e-09
2.60255e-08
3.39705e-09
6.45938e-10
3.09943e-08
-3.83861e-09
3.54461e-08
-2.20163e-09
1.75784e-09
2.46645e-09
4.25227e-08
-1.32179e-09
5.02288e-09
3.85284e-08
6.60482e-10
1.66953e-09
2.38695e-08
1.3773e-09
1.42991e-08
1.3883e-10
2.83284e-09
4.85403e-09
3.55344e-08
-2.68548e-09
-4.78933e-09
5.06897e-08
8.34945e-10
-1.32218e-09
4.16699e-08
4.61413e-09
1.7314e-08
9.50334e-10
-1.86222e-09
5.758e-08
-5.98252e-10
3.82571e-08
2.71505e-09
3.94874e-08
5.11545e-08
9.15513e-10
5.29452e-10
-1.18988e-09
3.36139e-08
2.45232e-09
3.978e-09
2.54251e-08
1.8689e-09
3.62244e-09
2.98889e-08
4.28026e-09
3.30288e-08
1.21754e-09
4.18082e-09
1.98624e-09
3.35027e-08
7.29478e-10
1.05567e-09
4.49021e-08
1.68009e-11
4.44465e-09
2.37598e-08
3.34401e-09
1.55193e-08
-2.6749e-10
3.53244e-09
1.33911e-09
2.79493e-08
3.80516e-09
1.31493e-09
5.01577e-08
-5.33229e-10
2.3665e-09
4.80865e-08
-3.48611e-09
2.48331e-08
-1.22223e-09
4.07751e-09
5.32079e-08
3.22879e-09
4.05183e-08
-3.80714e-09
4.89198e-08
4.39874e-08
-5.92371e-11
6.64442e-10
3.88853e-11
4.1046e-08
3.25623e-09
4.50884e-10
2.21773e-08
-4.19465e-09
-6.28334e-10
3.71746e-08
9.62251e-09
1.22535e-08
3.77189e-09
5.72171e-10
1.30768e-10
3.51422e-08
3.20225e-09
8.1544e-10
4.19075e-08
8.73742e-10
3.10194e-09
2.23581e-08
4.09471e-09
2.34197e-08
-1.49894e-09
-1.07332e-10
-6.10522e-09
3.92816e-08
3.59542e-09
1.01557e-09
4.62549e-08
1.32697e-09
1.22489e-09
5.2232e-08
1.26081e-08
2.03935e-08
-2.74677e-09
3.82831e-09
4.11728e-08
2.51059e-09
4.31917e-08
4.49456e-09
4.80455e-08
6.65897e-08
-5.49312e-09
4.41808e-10
-1.86615e-09
3.98256e-08
2.35693e-09
-3.01396e-09
2.29271e-08
-1.37045e-09
3.34377e-09
4.14556e-08
3.34331e-09
1.19291e-08
-2.43102e-09
-1.86801e-09
4.81954e-09
3.24195e-08
3.50233e-09
4.59e-10
3.30642e-08
-3.93476e-10
-1.08892e-08
4.04868e-08
-8.28336e-09
3.81413e-08
-3.4883e-09
-5.19059e-09
-1.0894e-08
7.34888e-08
-2.78267e-10
-7.79889e-10
4.25815e-08
1.16004e-09
-2.30614e-09
4.22106e-08
-7.70126e-10
1.43376e-08
-2.97297e-10
7.90683e-10
3.40397e-08
-4.10416e-10
4.3046e-08
4.00212e-09
4.21334e-08
7.41774e-08
-3.12129e-09
2.09357e-09
-1.33054e-09
4.52648e-08
-2.30749e-09
-1.04835e-10
2.78073e-08
2.15448e-09
2.53446e-09
3.03737e-08
-6.0307e-09
1.65429e-08
1.42587e-09
2.6251e-09
-1.3886e-09
3.14871e-08
-1.20423e-09
-7.87535e-09
4.46639e-08
-8.66197e-10
-1.50805e-08
5.77637e-08
-7.20805e-09
3.86757e-08
-2.23517e-10
-2.0831e-09
4.21543e-10
7.738e-08
-3.15925e-10
5.53369e-10
3.23856e-08
1.14447e-09
-1.04214e-08
3.60911e-08
-1.67905e-08
2.43191e-08
7.45295e-10
-5.19234e-10
4.36774e-08
-4.19674e-09
4.75172e-08
-9.75027e-10
2.9017e-08
5.34696e-08
4.08572e-09
1.44494e-09
6.01135e-10
4.11464e-08
-5.70992e-10
-2.18883e-09
3.22138e-08
8.46315e-10
-2.09346e-09
3.10348e-08
-4.31071e-09
2.02992e-08
-1.46254e-10
3.72241e-11
-4.86582e-09
3.75421e-08
-1.23954e-09
1.19207e-11
4.37394e-08
3.41349e-10
4.4247e-09
4.96647e-08
1.56065e-09
3.19452e-08
1.20105e-09
2.81416e-09
3.47346e-09
6.76615e-08
4.33646e-10
-3.10306e-09
3.788e-08
2.19627e-10
1.355e-09
3.93742e-08
-4.42051e-09
3.04142e-08
1.06698e-10
8.10544e-10
4.71724e-08
2.49761e-09
4.59546e-08
3.41597e-10
3.431e-08
4.76241e-08
1.01165e-09
-4.91782e-10
9.98748e-10
3.76169e-08
-5.51526e-10
8.58755e-10
3.26615e-08
-2.29444e-10
1.54865e-09
3.16797e-08
2.3715e-09
2.17648e-08
-1.39487e-09
-1.92965e-09
-1.45026e-09
4.01289e-08
-6.769e-10
3.87273e-09
3.94714e-08
7.29349e-10
7.54194e-09
4.22639e-08
5.58328e-09
2.9593e-08
-1.32325e-10
2.41103e-09
3.63128e-09
5.73643e-08
1.439e-09
1.53869e-09
4.11851e-08
4.34635e-10
5.05554e-09
4.28619e-08
1.30355e-09
3.58952e-08
-7.69066e-10
1.05165e-09
4.71084e-08
2.30412e-09
4.62398e-08
3.57504e-11
4.16313e-08
4.94441e-08
-4.79831e-10
-1.81286e-09
-1.64836e-09
3.57765e-08
-2.21075e-09
-1.80581e-09
3.2956e-08
2.61299e-10
-3.41557e-09
2.92959e-08
-5.68687e-09
2.072e-08
1.69051e-09
-2.59746e-09
-2.8263e-09
4.05662e-08
-3.31306e-09
-2.52741e-10
3.86334e-08
-3.05424e-10
-2.2587e-10
3.60657e-08
-4.99345e-09
2.65911e-08
1.99945e-09
-1.10136e-09
2.78276e-09
4.91386e-08
-2.93352e-09
1.99847e-10
4.25643e-08
-1.6358e-09
1.36153e-09
3.99745e-08
-4.92007e-09
3.25487e-08
1.6329e-09
-2.6088e-09
4.88246e-08
-3.08435e-09
4.69154e-08
-3.00375e-09
4.29118e-08
3.99586e-08
1.5596e-09
-1.27928e-09
-1.55598e-09
3.49949e-08
-9.99673e-10
-1.64049e-09
3.27077e-08
2.10247e-10
-2.20788e-09
2.83503e-08
-2.9381e-09
2.09251e-08
6.79628e-10
-1.52938e-09
-1.68184e-09
4.00219e-08
-1.37437e-09
-8.92485e-10
3.77299e-08
-1.92204e-11
-1.04302e-09
3.35454e-08
-2.89261e-09
2.57926e-08
7.3279e-10
-1.0935e-09
5.31724e-10
4.56766e-08
-1.42203e-09
-2.87196e-10
4.22863e-08
-4.86285e-10
-1.01671e-10
3.80967e-08
-2.28015e-09
3.08204e-08
6.28082e-10
-1.69756e-09
4.87496e-08
-1.61512e-09
4.65452e-08
-1.03883e-09
4.22336e-08
3.60737e-08
5.64785e-10
-1.01341e-09
-8.41169e-10
3.48081e-08
-8.92806e-10
-9.45955e-10
3.24737e-08
-3.20481e-10
-1.20667e-09
2.7729e-08
-1.56376e-09
2.04269e-08
2.5382e-10
-1.14205e-09
-6.33357e-10
3.97149e-08
-1.08029e-09
-5.73144e-10
3.72956e-08
-4.3337e-10
-7.77432e-10
3.24697e-08
-1.41567e-09
2.49437e-08
2.67461e-10
-1.05866e-09
1.47185e-10
4.46505e-08
-1.15747e-09
-1.3551e-10
4.19473e-08
-6.02799e-10
-2.78523e-10
3.7043e-08
-9.66754e-10
2.95292e-08
2.39441e-10
-1.26143e-09
4.88507e-08
-1.25626e-09
4.64043e-08
-7.58908e-10
4.14578e-08
3.41384e-08
2.09362e-10
-6.23865e-10
-5.13588e-10
3.47463e-08
-5.19529e-10
-5.94378e-10
3.23297e-08
-2.21821e-10
-7.00434e-10
2.74448e-08
-8.14586e-10
2.02026e-08
7.69577e-11
-6.8702e-10
-3.52253e-10
3.95325e-08
-5.9315e-10
-4.12802e-10
3.70203e-08
-2.58127e-10
-5.37291e-10
3.19717e-08
-7.40983e-10
2.45303e-08
8.14694e-11
-6.89985e-10
-4.18202e-11
4.42855e-08
-6.38941e-10
-1.5924e-10
4.16428e-08
-3.13785e-10
-2.70603e-10
3.64512e-08
-4.81512e-10
2.88835e-08
7.24575e-11
-7.51927e-10
4.88106e-08
-6.81507e-10
4.61748e-08
-3.62214e-10
4.08678e-08
3.32343e-08
6.01563e-11
-3.86963e-10
-2.98367e-10
3.47261e-08
-3.19969e-10
-3.47666e-10
3.22493e-08
-1.61447e-10
-3.90491e-10
2.7298e-08
-4.2594e-10
2.00602e-08
1.40047e-11
-4.18472e-10
-2.06402e-10
3.94424e-08
-3.49062e-10
-2.58402e-10
3.68616e-08
-1.72808e-10
-3.17367e-10
3.17224e-08
-3.81042e-10
2.42967e-08
1.5703e-11
-4.27379e-10
-6.25239e-11
4.41339e-08
-3.667e-10
-1.21735e-10
4.14455e-08
-1.8817e-10
-1.76228e-10
3.61314e-08
-2.41449e-10
2.85428e-08
1.27837e-11
-4.43599e-10
4.87511e-08
-3.78782e-10
4.59883e-08
-2.00529e-10
4.05133e-08
3.27844e-08
7.7797e-12
-2.41522e-10
-1.71723e-10
3.4718e-08
-1.97777e-10
-2.00195e-10
3.22023e-08
-1.0686e-10
-2.18856e-10
2.72163e-08
-2.29083e-10
1.99761e-08
-4.74223e-12
-2.57094e-10
-1.2277e-10
3.93968e-08
-2.09332e-10
-1.55449e-10
3.67691e-08
-1.09705e-10
-1.83201e-10
3.15871e-08
-2.03458e-10
2.41651e-08
-3.907e-12
-2.62006e-10
-5.12077e-11
4.40625e-08
-2.15008e-10
-8.07291e-11
4.13238e-08
-1.13017e-10
-1.06267e-10
3.59525e-08
-1.27304e-10
2.83581e-08
-4.53357e-12
-2.65318e-10
4.87014e-08
-2.17077e-10
4.58594e-08
-1.15105e-10
4.0305e-08
3.25476e-08
-5.63795e-12
-1.52734e-10
-1.00278e-10
3.47135e-08
-1.23701e-10
-1.16121e-10
3.2174e-08
-6.93219e-11
-1.24522e-10
2.71689e-08
-1.26591e-10
1.99264e-08
-8.77131e-12
-1.60026e-10
-7.44245e-11
3.93717e-08
-1.2798e-10
-9.31398e-11
3.67143e-08
-6.93152e-11
-1.06217e-10
3.15104e-08
-1.12343e-10
2.40896e-08
-8.08962e-12
-1.61705e-10
-3.60239e-11
4.40235e-08
-1.28986e-10
-5.11759e-11
4.12493e-08
-6.90857e-11
-6.30821e-11
3.58496e-08
-6.99401e-11
2.82546e-08
-7.97053e-12
-1.61444e-10
4.86646e-08
-1.28113e-10
4.5775e-08
-6.84426e-11
4.01824e-08
3.24174e-08
-8.0664e-12
-9.80317e-11
-5.92347e-11
3.47103e-08
-7.85958e-11
-6.78822e-11
3.21564e-08
-4.50932e-11
-7.17083e-11
2.71407e-08
-7.13707e-11
1.98968e-08
-8.51946e-12
-1.01159e-10
-4.54176e-11
3.93567e-08
-7.98672e-11
-5.5778e-11
3.66813e-08
-4.42825e-11
-6.19979e-11
3.14654e-08
-6.3566e-11
2.40455e-08
-7.98781e-12
-1.01174e-10
-2.37572e-11
4.40002e-08
-7.92609e-11
-3.16999e-11
4.12037e-08
-4.32214e-11
-3.73103e-11
3.57892e-08
-3.9517e-11
2.81952e-08
-7.68881e-12
-1.00047e-10
4.86387e-08
-7.77846e-11
4.57213e-08
-4.20812e-11
4.01096e-08
3.23435e-08
-7.48664e-12
-6.38327e-11
-3.51977e-11
3.47079e-08
-5.07956e-11
-3.98965e-11
3.21453e-08
-2.96982e-11
-4.16461e-11
2.71234e-08
-4.08096e-11
1.98789e-08
-7.1308e-12
-6.49794e-11
-2.76414e-11
3.93474e-08
-5.08934e-11
-3.33539e-11
3.66611e-08
-2.88027e-11
-3.63795e-11
3.14385e-08
-3.65759e-11
2.40194e-08
-6.70937e-12
-6.43515e-11
-1.50636e-11
4.39856e-08
-4.98965e-11
-1.93215e-11
4.11756e-08
-2.77311e-11
-2.2049e-11
3.57532e-08
-2.27432e-11
2.81603e-08
-6.39376e-12
-6.31829e-11
4.86212e-08
-4.85405e-11
4.56876e-08
-2.67e-11
4.0066e-08
3.23004e-08
-6.12466e-12
-4.20666e-11
-2.0966e-11
3.47061e-08
-3.33186e-11
-2.35329e-11
3.21382e-08
-1.98255e-11
-2.43298e-11
2.71127e-08
-2.35522e-11
1.98679e-08
-5.64097e-12
-4.23312e-11
-1.67479e-11
3.93416e-08
-3.30159e-11
-1.99323e-11
3.66485e-08
-1.9057e-11
-2.14486e-11
3.14222e-08
-2.12972e-11
2.40035e-08
-5.30376e-12
-4.15643e-11
-9.33602e-12
4.39764e-08
-3.20667e-11
-1.16728e-11
4.11583e-08
-1.81808e-11
-1.30514e-11
3.57314e-08
-1.32633e-11
2.81394e-08
-5.02147e-12
-4.05841e-11
4.86098e-08
-3.09959e-11
4.56665e-08
-1.73755e-11
4.00395e-08
3.22749e-08
-4.76349e-12
-2.79695e-11
-1.24734e-11
3.47047e-08
-2.21001e-11
-1.38926e-11
3.21335e-08
-1.33885e-11
-1.42566e-11
2.71059e-08
-1.36555e-11
1.98611e-08
-4.33779e-12
-2.78778e-11
-1.0099e-11
3.93377e-08
-2.17131e-11
-1.19034e-11
3.66407e-08
-1.27823e-11
-1.26917e-11
3.1412e-08
-1.25026e-11
2.39938e-08
-4.07066e-12
-2.71761e-11
-5.7111e-12
4.39704e-08
-2.09388e-11
-7.02169e-12
4.11475e-08
-1.21183e-11
-7.74617e-12
3.5718e-08
-7.81138e-12
2.81267e-08
-3.83416e-12
-2.64154e-11
4.86023e-08
-2.01412e-11
4.56534e-08
-1.15215e-11
4.00234e-08
3.22594e-08
-3.61135e-12
-1.8639e-11
-7.37739e-12
3.47036e-08
-1.47167e-11
-8.1704e-12
3.21305e-08
-9.07621e-12
-8.33979e-12
2.71016e-08
-7.91046e-12
1.98568e-08
-3.25721e-12
-1.84324e-11
-6.04818e-12
3.93352e-08
-1.43648e-11
-7.08514e-12
3.66357e-08
-8.62022e-12
-7.51094e-12
3.14057e-08
-7.36512e-12
2.39878e-08
-3.05143e-12
-1.78606e-11
-3.46174e-12
4.39666e-08
-1.37775e-11
-4.21098e-12
4.11407e-08
-8.13768e-12
-4.60407e-12
3.57097e-08
-4.62832e-12
2.81189e-08
-2.86229e-12
-1.72948e-11
4.85974e-08
-1.32016e-11
4.56451e-08
-7.70701e-12
4.00134e-08
3.22498e-08
-2.68047e-12
-1.22622e-11
-4.29363e-12
3.47029e-08
-9.69211e-12
-4.7391e-12
3.21285e-08
-6.07462e-12
-4.81969e-12
2.70988e-08
-4.53765e-12
1.98541e-08
-2.36385e-12
-1.20515e-11
-3.56381e-12
3.93335e-08
-9.41376e-12
-4.1653e-12
3.66325e-08
-5.75105e-12
-4.40281e-12
3.14017e-08
-4.31163e-12
2.3984e-08
-2.21135e-12
-1.16221e-11
-2.06832e-12
4.39641e-08
-8.99182e-12
-2.50459e-12
4.11364e-08
-5.41446e-12
-2.72304e-12
3.57046e-08
-2.73753e-12
2.81141e-08
-2.06816e-12
-1.1221e-11
4.85943e-08
-8.58982e-12
4.564e-08
-5.11254e-12
4.00072e-08
3.2244e-08
-1.92783e-12
-7.73265e-12
-2.41239e-12
3.47023e-08
-6.13055e-12
-2.6617e-12
3.21272e-08
-3.89155e-12
-2.7003e-12
2.70971e-08
-2.53816e-12
1.98524e-08
-1.60821e-12
-7.56771e-12
-2.02568e-12
3.93324e-08
-5.93298e-12
-2.37535e-12
3.66305e-08
-3.68139e-12
-2.51088e-12
3.13993e-08
-2.46415e-12
2.39818e-08
-1.50413e-12
-7.27562e-12
-1.19744e-12
4.39625e-08
-5.65025e-12
-1.45586e-12
4.11338e-08
-3.45997e-12
-1.58078e-12
3.57015e-08
-1.59387e-12
2.81111e-08
-1.40452e-12
-7.01313e-12
4.85924e-08
-5.38614e-12
4.56368e-08
-3.25876e-12
4.00035e-08
3.22405e-08
-1.30447e-12
-4.47376e-12
-1.29377e-12
3.4702e-08
-3.55407e-12
-1.42754e-12
3.21265e-08
-2.27291e-12
-1.44399e-12
2.70961e-08
-1.36059e-12
1.98515e-08
-9.71558e-13
-4.36749e-12
-1.09742e-12
3.93318e-08
-3.42992e-12
-1.2935e-12
3.66294e-08
-2.14952e-12
-1.36723e-12
3.13979e-08
-1.34451e-12
2.39805e-08
-9.08142e-13
-4.19288e-12
-6.66324e-13
4.39616e-08
-3.2586e-12
-8.17398e-13
4.11323e-08
-2.01535e-12
-8.86675e-13
3.56997e-08
-8.95139e-13
2.81095e-08
-8.47235e-13
-4.0404e-12
4.85913e-08
-3.09993e-12
4.56351e-08
-1.89148e-12
4.00014e-08
3.22385e-08
-7.84383e-13
-2.43764e-12
-7.73568e-13
-1.90024e-12
-8.34788e-13
-1.18772e-12
-8.30348e-13
-7.66905e-13
-5.01982e-13
-2.37035e-12
-6.5392e-13
-1.82333e-12
-7.54384e-13
-1.11561e-12
-7.86068e-13
-7.59331e-13
-4.69295e-13
-2.27313e-12
-4.04205e-13
-1.7266e-12
-4.8522e-13
-1.03865e-12
-5.17641e-13
-5.10402e-13
-4.37816e-13
-2.19221e-12
-1.63975e-12
-9.69565e-13
-4.05978e-13
7.03351e-09
2.81795e-09
2.53461e-08
2.72429e-09
-7.38276e-10
4.69766e-08
-5.02854e-09
1.11655e-09
4.96947e-08
5.36373e-09
3.28901e-08
5.79005e-10
1.4971e-09
3.41531e-08
6.11866e-09
2.39251e-09
2.7124e-08
3.98204e-09
4.11702e-09
3.97471e-08
-1.8055e-09
5.70994e-08
4.24548e-09
-8.32671e-10
2.70224e-08
9.45587e-09
-1.14145e-09
2.93331e-08
-1.04203e-08
-2.38364e-09
6.16474e-08
2.08257e-09
2.56965e-08
4.62143e-09
1.32172e-08
1.70362e-09
2.75728e-08
3.06429e-09
2.48923e-08
3.77726e-08
6.39042e-10
2.47207e-09
1.91732e-08
6.74832e-09
3.00766e-09
3.44521e-08
7.94781e-09
2.33345e-09
5.091e-08
-2.28022e-09
4.81558e-08
2.25699e-09
6.52835e-10
3.68515e-08
1.4441e-09
2.32341e-09
2.86211e-08
-3.50008e-09
6.24043e-09
4.07843e-08
5.53323e-09
4.57032e-08
3.44009e-09
1.63621e-09
2.49444e-08
9.25286e-09
8.95332e-10
2.49484e-08
2.92433e-09
1.45828e-10
7.40705e-08
3.64682e-10
3.3781e-08
1.68437e-09
1.69998e-08
4.93095e-09
2.53604e-08
3.66057e-09
2.72588e-08
4.22609e-08
-2.25425e-09
4.33091e-10
1.78987e-08
-8.54598e-10
3.11914e-09
2.73008e-08
3.97887e-09
3.73178e-09
3.86167e-08
2.45255e-10
5.20118e-08
2.90492e-09
5.15237e-09
3.05619e-08
4.82676e-10
7.63089e-10
3.33994e-08
-4.24552e-09
3.24823e-10
4.89195e-08
4.49713e-09
3.80224e-08
-1.75912e-09
4.09887e-10
3.56334e-08
7.10701e-11
1.21819e-09
2.2663e-08
1.69767e-08
2.22911e-09
5.52606e-08
2.60229e-10
5.42295e-08
2.746e-10
2.07309e-08
-6.50264e-11
2.66508e-08
6.52715e-09
2.16735e-08
4.86894e-08
1.01852e-09
-1.1668e-09
2.28703e-08
-1.20118e-09
-2.22541e-09
3.31607e-08
-2.6061e-09
-2.34012e-09
4.40102e-08
5.71417e-10
4.77059e-08
1.11941e-09
1.34819e-09
2.64556e-08
6.05613e-10
-6.27829e-10
3.23157e-08
3.39206e-09
-3.0229e-09
4.68158e-08
-2.39223e-09
4.32337e-08
-2.33555e-09
-5.39637e-11
3.96078e-08
-3.04422e-09
6.85649e-10
2.20581e-08
6.35594e-09
1.89751e-09
4.094e-08
8.67213e-10
5.79665e-08
-1.10382e-09
2.84335e-08
1.1221e-09
2.36116e-08
6.0521e-10
2.13412e-08
4.45815e-08
-1.50234e-09
1.3057e-09
3.29202e-08
-2.7716e-09
-1.74149e-09
3.99659e-08
2.1632e-09
1.05445e-10
4.50236e-08
9.08196e-11