/*--------------------------------*- C++ -*----------------------------------*\
| =========                 |                                                 |
| \\      /  F ield         | OpenFOAM: The Open Source CFD Toolbox           |
|  \\    /   O peration     | Version:  2506                                  |
|   \\  /    A nd           | Website:  www.openfoam.com                      |
|    \\/     M anipulation  |                                                 |
\*---------------------------------------------------------------------------*/
FoamFile
{
    version     2.0;
    format      ascii;
    arch        "LSB;label=32;scalar=64";
    class       volVectorField;
    location    "0.05";
    object      Us;
}
// * * * * * * * * * * * * * * * * * * * * * * * * * * * * * * * * * * * * * //

dimensions      [0 1 -1 0 0 0 0];

internalField   nonuniform List<vector> 
1152
(
(0.000139953 0.000311878 0.000125474)
(0.000294034 0.000226254 0.000206214)
(0.000525668 0.000277609 8.22466e-05)
(0.000563461 0.00036063 6.8797e-05)
(0.000358172 -0.000295359 0.000116382)
(0.000190852 5.94307e-05 0.000125793)
(-0.000148665 -0.000107943 -5.81857e-05)
(-0.000175118 0.000422215 0.000189709)
(-1.59127e-05 -0.00016549 0.000125211)
(0.000220486 9.94533e-05 0.000165473)
(0.000102546 -0.000201009 -6.51905e-05)
(-0.000544866 0.000285273 0.000199899)
(0.000554409 0.000618599 -7.16353e-05)
(0.000724997 0.000290594 0.000203965)
(-0.000311416 -3.77277e-05 -0.000190459)
(2.02613e-05 0.000138566 -0.000186753)
(4.37632e-05 0.000130097 0.000648049)
(0.000295221 0.000451934 0.000920805)
(0.000238303 0.000432123 0.000701488)
(-4.3056e-05 0.00025497 0.000805988)
(0.000705745 -0.000148409 0.000401011)
(0.000431154 2.20156e-05 0.000524312)
(0.000572377 0.000284951 0.000420527)
(0.000309026 0.00040032 0.00158007)
(0.000165387 0.000392391 0.000639645)
(0.000747545 1.36655e-05 0.000701587)
(0.000733559 0.000422645 0.00124493)
(0.00079325 0.000528532 0.0012763)
(0.000762842 0.000438734 0.000934926)
(-8.65847e-05 -0.000253092 0.00135334)
(-6.40925e-05 9.5002e-05 0.000716834)
(0.000250766 0.000126411 0.000608211)
(-0.00020756 -0.000409291 0.0015644)
(0.000338614 -0.000350134 0.00129057)
(0.000209694 0.000213712 0.00089014)
(-0.000580704 0.000466264 0.000862374)
(0.000286403 -9.4423e-05 0.00100678)
(8.10063e-05 -0.000285833 0.0012852)
(-0.000295624 0.00028554 0.00171608)
(-0.00018741 0.000562186 0.00127821)
(0.000675159 -2.71453e-05 0.000795749)
(0.000520547 -0.000183734 0.00091972)
(0.000379008 -0.000126768 0.00123292)
(0.000196802 0.000320499 0.000963635)
(0.000371839 0.000235179 0.000869359)
(0.00064357 -0.000175633 0.000737961)
(0.000496542 -6.3934e-05 0.0013881)
(0.00102069 4.90951e-05 0.00115168)
(-4.49462e-05 2.53483e-05 0.00138609)
(2.03945e-05 -0.000114956 0.00124485)
(-0.000218499 -0.000282735 0.00168493)
(-0.000358697 4.05887e-05 0.00190193)
(0.000538153 1.36664e-05 0.00158127)
(0.000434347 0.000331202 0.00151076)
(0.000162273 0.0002331 0.00143677)
(-1.34849e-05 0.000416523 0.00129086)
(0.000451507 -4.60809e-06 0.000905776)
(0.000276797 0.000179862 0.0012122)
(0.000138784 -5.55164e-05 0.00172934)
(0.000172796 0.000311981 0.00190649)
(0.000349029 -6.85962e-05 0.000789649)
(0.00028942 -0.000149607 0.000952077)
(0.000190352 -5.70237e-05 0.00180132)
(0.00017629 -0.000381038 0.00146732)
(0.000139207 0.000141954 0.00123168)
(0.000267344 -9.74877e-07 0.00127281)
(0.000149041 3.37707e-06 0.00134272)
(-2.34478e-05 -0.000122493 0.00163098)
(0.000107901 -3.83114e-05 0.00132895)
(0.000172043 -4.65572e-06 0.001341)
(0.000199124 7.82196e-05 0.00138617)
(0.000139563 0.000182471 0.00139261)
(0.000192506 -9.59118e-05 0.00114112)
(0.00033799 -8.53224e-05 0.00143668)
(0.00031437 -0.000136122 0.001665)
(0.000331935 0.000111552 0.00152047)
(0.000364346 -0.000101948 0.00125241)
(0.000153402 -0.000140964 0.00100738)
(0.000282999 -0.000112746 0.0016436)
(0.00026564 -0.000113387 0.00147958)
(7.5196e-05 -1.26815e-05 0.00126059)
(0.000379476 0.000119336 0.00126164)
(4.31908e-06 -5.16564e-05 0.00123632)
(7.53347e-05 -0.000126884 0.00129849)
(2.21019e-05 -2.85187e-05 0.00138822)
(8.73203e-05 -0.000121433 0.00134812)
(0.000146103 7.35095e-06 0.00134968)
(0.000149093 -8.54172e-05 0.00139234)
(0.000164532 -0.000112829 0.00134268)
(0.000114414 -0.000131033 0.00135971)
(0.000244489 -0.000131025 0.00137322)
(0.000116185 -5.92848e-05 0.00141787)
(0.000132749 -9.3906e-05 0.00108533)
(3.56228e-06 -0.000128196 0.000957756)
(-0.000183776 -0.00027202 0.0014015)
(-2.74583e-05 -0.000186339 0.00141585)
(2.59087e-05 -0.000126227 0.00125799)
(6.30326e-05 -0.000259357 0.00115999)
(1.04582e-05 -0.00023664 0.00125324)
(1.5754e-05 -0.000178967 0.00131229)
(1.83489e-05 -7.67749e-05 0.00130266)
(0.000116548 -7.38488e-05 0.00130094)
(2.75594e-05 -9.21916e-05 0.00138401)
(-0.000117825 -0.000410853 0.00122283)
(-2.85917e-05 -9.83353e-06 0.00129055)
(0.000280092 4.78774e-05 0.00114802)
(8.96063e-05 0.0001794 0.00135509)
(0.0001344 -0.00030893 0.00129568)
(0.000162649 6.37727e-05 0.000792253)
(-3.01148e-05 -0.000203282 0.00102029)
(-0.000247032 -0.000179588 0.00118346)
(-0.000842447 -0.000780529 0.00111506)
(0 0 0)
(0 0 0)
(0 0 0)
(0 0 0)
(0 0 0)
(0 0 0)
(0 0 0)
(0 0 0)
(0 0 0)
(0 0 0)
(0 0 0)
(0 0 0)
(0 0 0)
(0 0 0)
(0 0 0)
(0 0 0)
(0 0 0)
(0 0 0)
(0 0 0)
(0 0 0)
(0 0 0)
(0 0 0)
(0 0 0)
(0 0 0)
(0 0 0)
(0 0 0)
(0 0 0)
(0 0 0)
(0 0 0)
(0 0 0)
(0 0 0)
(0 0 0)
(0 0 0)
(0 0 0)
(0 0 0)
(0 0 0)
(0 0 0)
(0 0 0)
(0 0 0)
(0 0 0)
(0 0 0)
(0 0 0)
(0 0 0)
(0 0 0)
(0 0 0)
(0 0 0)
(0 0 0)
(0 0 0)
(0 0 0)
(0 0 0)
(0 0 0)
(0 0 0)
(0 0 0)
(0 0 0)
(0 0 0)
(0 0 0)
(0 0 0)
(0 0 0)
(0 0 0)
(0 0 0)
(0 0 0)
(0 0 0)
(0 0 0)
(0 0 0)
(0 0 0)
(0 0 0)
(0 0 0)
(0 0 0)
(0 0 0)
(0 0 0)
(0 0 0)
(0 0 0)
(0 0 0)
(0 0 0)
(0 0 0)
(0 0 0)
(0 0 0)
(0 0 0)
(0 0 0)
(0 0 0)
(0 0 0)
(0 0 0)
(0 0 0)
(0 0 0)
(0 0 0)
(0 0 0)
(0 0 0)
(0 0 0)
(0 0 0)
(0 0 0)
(0 0 0)
(0 0 0)
(0 0 0)
(0 0 0)
(0 0 0)
(0 0 0)
(0 0 0)
(0 0 0)
(0 0 0)
(0 0 0)
(0 0 0)
(0 0 0)
(0 0 0)
(0 0 0)
(0 0 0)
(0 0 0)
(0 0 0)
(0 0 0)
(0 0 0)
(0 0 0)
(0 0 0)
(0 0 0)
(0 0 0)
(0 0 0)
(0 0 0)
(0 0 0)
(0 0 0)
(0 0 0)
(0 0 0)
(0 0 0)
(0 0 0)
(0 0 0)
(0 0 0)
(0 0 0)
(0 0 0)
(0 0 0)
(0 0 0)
(0 0 0)
(0 0 0)
(0 0 0)
(0 0 0)
(0 0 0)
(0 0 0)
(0 0 0)
(0 0 0)
(0 0 0)
(0 0 0)
(0 0 0)
(0 0 0)
(0 0 0)
(0 0 0)
(0 0 0)
(0 0 0)
(0 0 0)
(0 0 0)
(0 0 0)
(0 0 0)
(0 0 0)
(0 0 0)
(0 0 0)
(0 0 0)
(0 0 0)
(0 0 0)
(0 0 0)
(0 0 0)
(0 0 0)
(0 0 0)
(0 0 0)
(0 0 0)
(0 0 0)
(0 0 0)
(0 0 0)
(0 0 0)
(0 0 0)
(0 0 0)
(0 0 0)
(0 0 0)
(0 0 0)
(0 0 0)
(0 0 0)
(0 0 0)
(0 0 0)
(0 0 0)
(0 0 0)
(0 0 0)
(0 0 0)
(0 0 0)
(0 0 0)
(0 0 0)
(0 0 0)
(0 0 0)
(0 0 0)
(0 0 0)
(0 0 0)
(0 0 0)
(0 0 0)
(0 0 0)
(0 0 0)
(0 0 0)
(0 0 0)
(0 0 0)
(0 0 0)
(0 0 0)
(0 0 0)
(0 0 0)
(0 0 0)
(0 0 0)
(0 0 0)
(0 0 0)
(0 0 0)
(0 0 0)
(0 0 0)
(0 0 0)
(0 0 0)
(0 0 0)
(0 0 0)
(0 0 0)
(0 0 0)
(0 0 0)
(0 0 0)
(0 0 0)
(0 0 0)
(0 0 0)
(0 0 0)
(0 0 0)
(0 0 0)
(0 0 0)
(0 0 0)
(0 0 0)
(0 0 0)
(0 0 0)
(0 0 0)
(0 0 0)
(0 0 0)
(0 0 0)
(0 0 0)
(0 0 0)
(0 0 0)
(0 0 0)
(0 0 0)
(0 0 0)
(0 0 0)
(0 0 0)
(0 0 0)
(0 0 0)
(0 0 0)
(0 0 0)
(0 0 0)
(0 0 0)
(0 0 0)
(0 0 0)
(0 0 0)
(0 0 0)
(0 0 0)
(0 0 0)
(0 0 0)
(0 0 0)
(0 0 0)
(0 0 0)
(0 0 0)
(0 0 0)
(0 0 0)
(0 0 0)
(0 0 0)
(0 0 0)
(0 0 0)
(0 0 0)
(0 0 0)
(0 0 0)
(0 0 0)
(0 0 0)
(0 0 0)
(0 0 0)
(0 0 0)
(0 0 0)
(0 0 0)
(0 0 0)
(0 0 0)
(0 0 0)
(0 0 0)
(0 0 0)
(0 0 0)
(0.000322908 0.000467106 6.41733e-06)
(0.000352561 3.96991e-07 0.000153507)
(0.000175851 -0.00100185 -3.44279e-05)
(-2.8131e-05 -0.000137964 -0.000102988)
(-0.000208187 0.000155546 -1.61657e-05)
(1.95203e-05 -5.86919e-07 9.20239e-06)
(0.000180172 -0.000162223 -0.000385589)
(-4.59051e-05 5.74528e-05 0.000107405)
(-1.94218e-05 -1.68548e-05 -1.81158e-05)
(0.000159214 -0.000194569 0.000114405)
(-0.000182082 0.000235064 -8.05814e-06)
(7.79673e-05 2.95918e-05 0.000220268)
(1.76824e-05 -5.2106e-05 5.38243e-05)
(0.000111781 -5.24696e-05 -5.97552e-05)
(-5.66643e-05 -3.16365e-05 2.86933e-05)
(0.000157176 -0.00014329 0.000406245)
(0.000212066 0.000166865 0.000507799)
(0.00048922 6.77323e-05 0.000517173)
(0.000593394 0.000437041 0.000835533)
(-0.000147466 0.000112055 0.000608241)
(-3.37976e-05 0.000131829 0.000971392)
(0.000136758 1.31137e-05 0.000827177)
(9.92996e-05 -7.01249e-05 0.00031352)
(-0.000138784 0.00025267 0.000447044)
(0.000139832 0.000135905 0.000653261)
(0.000214497 -0.000153039 0.000545629)
(-0.000170206 -7.76072e-05 0.00128864)
(5.80014e-05 0.00020155 0.000801094)
(8.25663e-05 -0.000124775 0.000355629)
(-0.000196339 -7.66305e-05 0.000311016)
(-0.000161879 3.92448e-05 0.000730403)
(-0.000163668 -1.57802e-05 0.00120609)
(0.000326484 -0.000189147 0.00142006)
(0.000522526 4.49435e-05 0.000765062)
(0.00117127 -0.000370059 0.00160027)
(0.000644514 -3.90562e-05 0.000808907)
(0.000140543 -0.000380608 0.001588)
(0.000233139 -0.000145818 0.000818676)
(0.000559523 -3.5559e-05 0.000850186)
(0.000680005 -3.59632e-05 0.000802492)
(6.88431e-05 6.67709e-05 0.000698784)
(-3.4547e-05 -0.000142839 0.000604311)
(0.000759815 -0.000422804 0.00109953)
(-6.19215e-05 0.000283887 0.0010925)
(0.000541129 -0.000254275 0.00109512)
(0.000432736 -0.000172062 0.000558671)
(0.000185561 -0.000112149 0.000561792)
(-0.000461866 0.000346943 0.00199157)
(0.00115865 -0.000265422 0.00218975)
(0.000733522 -0.00017639 0.00137033)
(0.000626098 0.000162317 0.00198989)
(0.00050177 0.000321497 0.00169073)
(0.000784824 -0.000307487 0.0010685)
(0.000914268 -0.000218416 0.00211694)
(0.000650501 -6.31227e-06 0.00113726)
(0.000573076 0.000230008 0.000799698)
(0.000405884 -0.000285325 0.000563699)
(0.000294432 -0.00032771 0.00112683)
(0.000328688 -0.000291885 0.00117127)
(-0.000548693 0.000722473 0.00058036)
(0.000429624 -0.000301646 0.00106289)
(0.000369962 -0.000250415 0.000689359)
(0.00029526 -0.000110943 0.000607934)
(-0.000493066 0.000401385 0.000423803)
(0.000476945 7.27082e-07 0.00120671)
(0.000479602 -0.000342434 0.00144534)
(0.000190429 -2.61324e-05 0.00131387)
(0.000213999 3.1919e-05 0.00136539)
(0.000570929 -0.000100335 0.00109671)
(0.000489503 -0.000171704 0.00116409)
(8.96205e-05 -4.09273e-07 0.000937162)
(9.42074e-05 -0.000102552 0.00116708)
(0.00122416 3.28747e-05 0.00125022)
(0.000157846 3.18823e-05 0.000968714)
(7.72436e-05 -4.03232e-05 0.000967565)
(-6.90218e-05 -0.000141441 0.000891121)
(0.000714492 -0.0007466 0.00207138)
(0.000480736 8.83826e-05 0.000805307)
(-0.000179349 -0.000252186 0.000833651)
(-0.000344601 -0.000227195 0.00160188)
(0.000165498 -9.34544e-05 0.000857196)
(0.000144494 -0.000242633 0.000924906)
(-2.63931e-05 -0.000391439 0.000859468)
(-5.88707e-05 -0.000448458 0.00109257)
(0.000250171 -0.000168965 0.000836255)
(0.000314848 -0.000382463 0.00112464)
(0.000120681 -0.000527436 0.000851663)
(-5.62804e-05 -0.000504062 0.000867434)
(0.000110346 -0.000197087 0.000738809)
(0.000150879 -0.000447882 0.000879045)
(-4.54585e-05 -0.000373221 0.000512318)
(-8.58257e-05 -0.00032154 0.000868744)
(0.000146979 -0.000168324 0.000793864)
(-7.55657e-06 -9.8306e-05 0.000405511)
(-0.000119005 -0.000162736 0.000374936)
(-1.75786e-05 -0.000529301 0.000682557)
(5.09286e-05 -0.000236177 0.000690658)
(-0.000175265 -0.000400877 0.000809795)
(4.55367e-05 -0.000171494 0.000888914)
(-0.0001406 -0.000149971 0.00091211)
(4.3977e-05 -0.000223141 0.000736854)
(0.000391908 -0.000225591 0.00114637)
(0.000318945 0.000124707 0.000841102)
(-0.000523831 -0.000321272 0.000662859)
(0.000174989 -0.000118772 0.000783681)
(0.000185948 -0.000375108 0.000929543)
(0.000502366 0.000644219 0.000549724)
(-0.000460082 -0.00024939 0.000752805)
(0.000327734 -0.000144105 0.000488562)
(0.000267968 -0.00103219 0.000137594)
(0.000779153 -0.00101856 0.000633583)
(0.000151101 0.000159959 0.000260897)
(0 0 0)
(0 0 0)
(0 0 0)
(0 0 0)
(0 0 0)
(0 0 0)
(0 0 0)
(0 0 0)
(0 0 0)
(0 0 0)
(0 0 0)
(0 0 0)
(0 0 0)
(0 0 0)
(0 0 0)
(0 0 0)
(0 0 0)
(0 0 0)
(0 0 0)
(0 0 0)
(0 0 0)
(0 0 0)
(0 0 0)
(0 0 0)
(0 0 0)
(0 0 0)
(0 0 0)
(0 0 0)
(0 0 0)
(0 0 0)
(0 0 0)
(0 0 0)
(0 0 0)
(0 0 0)
(0 0 0)
(0 0 0)
(0 0 0)
(0 0 0)
(0 0 0)
(0 0 0)
(0 0 0)
(0 0 0)
(0 0 0)
(0 0 0)
(0 0 0)
(0 0 0)
(0 0 0)
(0 0 0)
(0 0 0)
(0 0 0)
(0 0 0)
(0 0 0)
(0 0 0)
(0 0 0)
(0 0 0)
(0 0 0)
(0 0 0)
(0 0 0)
(0 0 0)
(0 0 0)
(0 0 0)
(0 0 0)
(0 0 0)
(0 0 0)
(0 0 0)
(0 0 0)
(0 0 0)
(0 0 0)
(0 0 0)
(0 0 0)
(0 0 0)
(0 0 0)
(0 0 0)
(0 0 0)
(0 0 0)
(0 0 0)
(0 0 0)
(0 0 0)
(0 0 0)
(0 0 0)
(0 0 0)
(0 0 0)
(0 0 0)
(0 0 0)
(0 0 0)
(0 0 0)
(0 0 0)
(0 0 0)
(0 0 0)
(0 0 0)
(0 0 0)
(0 0 0)
(0 0 0)
(0 0 0)
(0 0 0)
(0 0 0)
(0 0 0)
(0 0 0)
(0 0 0)
(0 0 0)
(0 0 0)
(0 0 0)
(0 0 0)
(0 0 0)
(0 0 0)
(0 0 0)
(0 0 0)
(0 0 0)
(0 0 0)
(0 0 0)
(0 0 0)
(0 0 0)
(0 0 0)
(0 0 0)
(0 0 0)
(0 0 0)
(0 0 0)
(0 0 0)
(0 0 0)
(0 0 0)
(0 0 0)
(0 0 0)
(0 0 0)
(0 0 0)
(0 0 0)
(0 0 0)
(0 0 0)
(0 0 0)
(0 0 0)
(0 0 0)
(0 0 0)
(0 0 0)
(0 0 0)
(0 0 0)
(0 0 0)
(0 0 0)
(0 0 0)
(0 0 0)
(0 0 0)
(0 0 0)
(0 0 0)
(0 0 0)
(0 0 0)
(0 0 0)
(0 0 0)
(0 0 0)
(0 0 0)
(0 0 0)
(0 0 0)
(0 0 0)
(0 0 0)
(0 0 0)
(0 0 0)
(0 0 0)
(0 0 0)
(0 0 0)
(0 0 0)
(0 0 0)
(0 0 0)
(0 0 0)
(0 0 0)
(0 0 0)
(0 0 0)
(0 0 0)
(0 0 0)
(0 0 0)
(0 0 0)
(0 0 0)
(0 0 0)
(0 0 0)
(0 0 0)
(0 0 0)
(0 0 0)
(0 0 0)
(0 0 0)
(0 0 0)
(0 0 0)
(0 0 0)
(0 0 0)
(0 0 0)
(0 0 0)
(0 0 0)
(0 0 0)
(0 0 0)
(0 0 0)
(0 0 0)
(0 0 0)
(0 0 0)
(0 0 0)
(0 0 0)
(0 0 0)
(0 0 0)
(0 0 0)
(0 0 0)
(0 0 0)
(0 0 0)
(0 0 0)
(0 0 0)
(0 0 0)
(0 0 0)
(0 0 0)
(0 0 0)
(0 0 0)
(0 0 0)
(0 0 0)
(0 0 0)
(0 0 0)
(0 0 0)
(0 0 0)
(0 0 0)
(0 0 0)
(0 0 0)
(0 0 0)
(0 0 0)
(0 0 0)
(0 0 0)
(0 0 0)
(0 0 0)
(0 0 0)
(0 0 0)
(0 0 0)
(0 0 0)
(0 0 0)
(0 0 0)
(0 0 0)
(0 0 0)
(0 0 0)
(0 0 0)
(0 0 0)
(0 0 0)
(0 0 0)
(0 0 0)
(0 0 0)
(0 0 0)
(0 0 0)
(0 0 0)
(0 0 0)
(0 0 0)
(0 0 0)
(0 0 0)
(0 0 0)
(0 0 0)
(0 0 0)
(0 0 0)
(0 0 0)
(0 0 0)
(0 0 0)
(0 0 0)
(0 0 0)
(0 0 0)
(0 0 0)
(0 0 0)
(0 0 0)
(0 0 0)
(0 0 0)
(0 0 0)
(0 0 0)
(0 0 0)
(0 0 0)
(0 0 0)
(0 0 0)
(0 0 0)
(0 0 0)
(0 0 0)
(0 0 0)
(0 0 0)
(0 0 0)
(0 0 0)
(0 0 0)
(0 0 0)
(0 0 0)
(0 0 0)
(0.000262224 0.000277808 0.000377307)
(4.59463e-05 0.000270616 6.19483e-05)
(-0.000771982 0.000317802 9.47578e-05)
(-0.000812901 0.000215177 -0.000455846)
(-3.60085e-05 0.000362873 9.2759e-06)
(-0.000197988 0.000474679 -0.000158456)
(-0.000265657 0.000202677 -4.37027e-05)
(-0.000259322 0.0004294 9.08142e-05)
(-0.000375122 -1.65059e-05 -0.00022887)
(-0.000129675 0.00018726 -3.95009e-05)
(-1.30197e-05 0.000271544 -3.58414e-05)
(-0.00021831 0.00032503 7.55927e-05)
(-0.000291854 0.000127333 5.99367e-05)
(-0.000108791 -7.67061e-05 3.1738e-05)
(-0.000317096 0.000144729 0.000116093)
(-0.000513677 0.000517544 0.000308074)
(-0.000295023 0.000298914 0.00120215)
(-9.11933e-05 0.000301348 0.000698929)
(0.000451308 0.000162731 0.0012281)
(0.00035309 9.59619e-06 0.000703639)
(0.000434689 0.000266469 0.000990405)
(-1.22149e-05 7.48636e-05 0.00033564)
(-8.85337e-05 0.000422256 0.000397259)
(-6.10387e-05 0.000305678 0.000263184)
(-0.000150394 0.000346021 0.000171048)
(0.000171618 0.000616288 0.00103745)
(6.767e-05 0.000600909 0.00190838)
(-0.000121061 0.000234053 0.000675028)
(0.000214145 0.000449153 0.000139913)
(0.000120207 0.000699822 0.000105342)
(9.51722e-05 6.0655e-05 0.000557792)
(0.000136944 0.00010663 0.00144212)
(-0.000540333 0.000348545 0.000852144)
(-0.000435029 0.000237035 0.000867708)
(-0.000226558 0.000441849 0.00115468)
(-8.72143e-05 0.00012579 0.000699009)
(0.000133645 0.000531 0.00163749)
(5.9576e-05 0.000541571 0.00070545)
(3.60848e-05 0.000101907 0.00120947)
(-0.000480965 0.000385609 0.000839119)
(-6.79539e-05 0.000154848 0.000661063)
(0.000301488 -1.68982e-05 0.000672385)
(0.00116932 0.000833605 0.00248168)
(0.000238313 0.000175068 0.00107695)
(0.000972613 -0.000246356 0.00118597)
(0.000660109 -4.39213e-05 0.000690466)
(0.000507745 0.00045532 0.00150818)
(1.16361e-05 0.000158516 0.00130807)
(-0.000249394 0.000314442 0.000717455)
(-0.000237715 7.6534e-05 0.00106874)
(-0.000292076 -0.000164057 0.00137055)
(8.73843e-05 -0.000137675 0.00141292)
(-9.1944e-05 0.000119132 0.00121193)
(-0.000198644 -7.68407e-05 0.00151692)
(0.000108778 -0.000551553 0.00128659)
(0.000496044 -4.19694e-05 0.000826208)
(-0.000464173 1.18178e-05 0.00402474)
(-0.000165616 3.46741e-06 0.00109528)
(0.000110069 -0.00017618 0.00110235)
(-0.000121749 -0.000248219 0.00143994)
(0.000256203 -0.000361772 0.00114628)
(-9.9893e-05 3.15662e-05 0.000861946)
(0.000190295 0.00031415 0.000803154)
(0.000123754 -0.000101611 0.0010021)
(-0.000203976 -9.25329e-05 0.0009424)
(-0.000367476 -0.00024654 0.000979926)
(-0.000300985 -0.000124516 0.000862698)
(-2.44225e-05 -3.8929e-05 0.00113208)
(-8.01721e-05 -8.62954e-05 0.00173736)
(-3.60578e-06 -8.69921e-05 0.00141391)
(0.000124389 -0.000471139 0.00182692)
(-2.45998e-05 -1.47186e-05 0.000747775)
(0.000281254 -0.000110904 0.00143132)
(0.000152017 -0.000165195 0.00106796)
(0.000157135 -8.72624e-05 0.000870312)
(9.04199e-05 3.19561e-06 0.000762573)
(0.000252232 5.26636e-05 0.00135057)
(-5.94962e-05 -0.000144073 0.00127672)
(-0.000245513 -0.000293981 0.000935977)
(-0.000224821 -0.000141598 0.000640278)
(-3.84282e-05 -0.000146902 0.00145157)
(-0.00036782 3.43436e-06 0.000763704)
(-0.000368204 3.20718e-05 0.000960067)
(-0.000117664 0.00027286 0.00050463)
(0.000178718 4.80046e-06 0.00139277)
(0.000141014 7.20339e-05 0.00110646)
(-6.60757e-05 0.000162056 0.00101481)
(-0.00012221 0.000314542 0.000479031)
(0.000199447 -8.70813e-05 0.00139448)
(0.000262156 -0.000161571 0.00120036)
(0.00011396 -7.05409e-05 0.000814132)
(0.000167617 -0.000324743 0.000450218)
(-9.46653e-05 -0.000389775 0.00134228)
(-0.000124297 -0.000323679 0.00122868)
(-0.000144631 -0.000108283 0.000574141)
(5.383e-05 -0.000183146 0.000180037)
(-0.000668905 -0.000618923 0.00153768)
(-0.000686425 -0.000260849 0.000472032)
(0.000337105 5.92763e-05 0.000687744)
(-1.14306e-05 0.000666655 0.000610788)
(-0.000450641 2.46273e-05 0.00110347)
(-0.00051923 -0.00036075 0.000925488)
(-4.22249e-05 -9.4809e-05 0.00109605)
(0.000466493 -4.70778e-05 0.000460535)
(0.000373602 -8.27119e-05 0.00124984)
(0.000131884 -0.000546459 0.0011972)
(0.00015495 -0.000173739 0.000640676)
(-7.18047e-06 -2.83161e-05 0.000555912)
(-0.000108728 -0.000609375 0.00141891)
(-9.32118e-06 -0.000230733 0.0011134)
(-9.80752e-05 -0.000733826 0.000106595)
(9.96435e-05 -0.000678932 0.000103038)
(0 0 0)
(0 0 0)
(0 0 0)
(0 0 0)
(0 0 0)
(0 0 0)
(0 0 0)
(0 0 0)
(0 0 0)
(0 0 0)
(0 0 0)
(0 0 0)
(0 0 0)
(0 0 0)
(0 0 0)
(0 0 0)
(0 0 0)
(0 0 0)
(0 0 0)
(0 0 0)
(0 0 0)
(0 0 0)
(0 0 0)
(0 0 0)
(0 0 0)
(0 0 0)
(0 0 0)
(0 0 0)
(0 0 0)
(0 0 0)
(0 0 0)
(0 0 0)
(0 0 0)
(0 0 0)
(0 0 0)
(0 0 0)
(0 0 0)
(0 0 0)
(0 0 0)
(0 0 0)
(0 0 0)
(0 0 0)
(0 0 0)
(0 0 0)
(0 0 0)
(0 0 0)
(0 0 0)
(0 0 0)
(0 0 0)
(0 0 0)
(0 0 0)
(0 0 0)
(0 0 0)
(0 0 0)
(0 0 0)
(0 0 0)
(0 0 0)
(0 0 0)
(0 0 0)
(0 0 0)
(0 0 0)
(0 0 0)
(0 0 0)
(0 0 0)
(0 0 0)
(0 0 0)
(0 0 0)
(0 0 0)
(0 0 0)
(0 0 0)
(0 0 0)
(0 0 0)
(0 0 0)
(0 0 0)
(0 0 0)
(0 0 0)
(0 0 0)
(0 0 0)
(0 0 0)
(0 0 0)
(0 0 0)
(0 0 0)
(0 0 0)
(0 0 0)
(0 0 0)
(0 0 0)
(0 0 0)
(0 0 0)
(0 0 0)
(0 0 0)
(0 0 0)
(0 0 0)
(0 0 0)
(0 0 0)
(0 0 0)
(0 0 0)
(0 0 0)
(0 0 0)
(0 0 0)
(0 0 0)
(0 0 0)
(0 0 0)
(0 0 0)
(0 0 0)
(0 0 0)
(0 0 0)
(0 0 0)
(0 0 0)
(0 0 0)
(0 0 0)
(0 0 0)
(0 0 0)
(0 0 0)
(0 0 0)
(0 0 0)
(0 0 0)
(0 0 0)
(0 0 0)
(0 0 0)
(0 0 0)
(0 0 0)
(0 0 0)
(0 0 0)
(0 0 0)
(0 0 0)
(0 0 0)
(0 0 0)
(0 0 0)
(0 0 0)
(0 0 0)
(0 0 0)
(0 0 0)
(0 0 0)
(0 0 0)
(0 0 0)
(0 0 0)
(0 0 0)
(0 0 0)
(0 0 0)
(0 0 0)
(0 0 0)
(0 0 0)
(0 0 0)
(0 0 0)
(0 0 0)
(0 0 0)
(0 0 0)
(0 0 0)
(0 0 0)
(0 0 0)
(0 0 0)
(0 0 0)
(0 0 0)
(0 0 0)
(0 0 0)
(0 0 0)
(0 0 0)
(0 0 0)
(0 0 0)
(0 0 0)
(0 0 0)
(0 0 0)
(0 0 0)
(0 0 0)
(0 0 0)
(0 0 0)
(0 0 0)
(0 0 0)
(0 0 0)
(0 0 0)
(0 0 0)
(0 0 0)
(0 0 0)
(0 0 0)
(0 0 0)
(0 0 0)
(0 0 0)
(0 0 0)
(0 0 0)
(0 0 0)
(0 0 0)
(0 0 0)
(0 0 0)
(0 0 0)
(0 0 0)
(0 0 0)
(0 0 0)
(0 0 0)
(0 0 0)
(0 0 0)
(0 0 0)
(0 0 0)
(0 0 0)
(0 0 0)
(0 0 0)
(0 0 0)
(0 0 0)
(0 0 0)
(0 0 0)
(0 0 0)
(0 0 0)
(0 0 0)
(0 0 0)
(0 0 0)
(0 0 0)
(0 0 0)
(0 0 0)
(0 0 0)
(0 0 0)
(0 0 0)
(0 0 0)
(0 0 0)
(0 0 0)
(0 0 0)
(0 0 0)
(0 0 0)
(0 0 0)
(0 0 0)
(0 0 0)
(0 0 0)
(0 0 0)
(0 0 0)
(0 0 0)
(0 0 0)
(0 0 0)
(0 0 0)
(0 0 0)
(0 0 0)
(0 0 0)
(0 0 0)
(0 0 0)
(0 0 0)
(0 0 0)
(0 0 0)
(0 0 0)
(0 0 0)
(0 0 0)
(0 0 0)
(0 0 0)
(0 0 0)
(0 0 0)
(0 0 0)
(0 0 0)
(0 0 0)
(0 0 0)
(0 0 0)
(0 0 0)
(0 0 0)
(0 0 0)
(0 0 0)
(0 0 0)
(0 0 0)
(0 0 0)
(0 0 0)
(0 0 0)
(0 0 0)
(0 0 0)
(0 0 0)
(0 0 0)
(0 0 0)
(0 0 0)
(0 0 0)
(0 0 0)
(0 0 0)
(0 0 0)
(0 0 0)
(0 0 0)
(0 0 0)
(0 0 0)
(0 0 0)
(0 0 0)
(0 0 0)
)
;

boundaryField
{
    inlet
    {
        type            zeroGradient;
    }
    outlet
    {
        type            zeroGradient;
    }
    wall
    {
        type            zeroGradient;
    }
    procBoundary3to1
    {
        type            processor;
        value           nonuniform List<vector> 
192
(
(8.49919e-05 0.000131204 4.88496e-06)
(0.000188557 1.69699e-05 -0.000307258)
(0.00017206 0.000405857 -3.24588e-05)
(0.00048803 5.77114e-05 4.34498e-05)
(0.000193941 0.0002987 0.000718003)
(-0.000163493 0.000256638 0.00027686)
(7.25308e-05 0.000706687 0.00103906)
(-0.000165195 0.000274702 0.000616409)
(0.00028165 0.000235376 0.0013126)
(0.000303793 0.000102456 0.00126064)
(-2.56948e-05 -0.000141448 0.00117191)
(-0.000165042 -6.13799e-07 0.00140787)
(0.00020236 0.00012998 0.001137)
(0.000150205 0.000261852 0.00133914)
(8.46333e-05 -0.000320282 0.00100598)
(-0.00025153 -0.000128795 0.00145256)
(5.14092e-05 0.000102456 0.00132292)
(0.000130804 0.000193291 0.00146799)
(8.18194e-05 -4.23864e-05 0.00106815)
(0.000185504 0.000314086 0.00136148)
(5.77474e-05 -2.26959e-05 0.00115404)
(6.06121e-05 -1.70702e-05 0.00113372)
(-1.36354e-05 1.44393e-05 0.00103163)
(9.22077e-05 -1.25286e-05 0.00112588)
(-3.43498e-05 -0.000106457 0.00115804)
(-6.26592e-05 -0.000129875 0.00112101)
(5.94088e-05 -0.00020531 0.00107035)
(0.000206267 -0.000215139 0.0010764)
(0 0 0)
(4.70134e-05 -2.59464e-05 0.00113864)
(-1.75894e-05 -0.000168223 0.00114985)
(0 0 0)
(0 0 0)
(0 0 0)
(0 0 0)
(0 0 0)
(0 0 0)
(0 0 0)
(0 0 0)
(0 0 0)
(0 0 0)
(0 0 0)
(0 0 0)
(0 0 0)
(0 0 0)
(0 0 0)
(0 0 0)
(0 0 0)
(0 0 0)
(0 0 0)
(0 0 0)
(0 0 0)
(0 0 0)
(0 0 0)
(0 0 0)
(0 0 0)
(0 0 0)
(0 0 0)
(0 0 0)
(0 0 0)
(0 0 0)
(0 0 0)
(0 0 0)
(0 0 0)
(0 0 0)
(0 0 0)
(0 0 0)
(0 0 0)
(0 0 0)
(0 0 0)
(0 0 0)
(0 0 0)
(0 0 0)
(0 0 0)
(0 0 0)
(0 0 0)
(0 0 0)
(0 0 0)
(0 0 0)
(0 0 0)
(0 0 0)
(0 0 0)
(0 0 0)
(0 0 0)
(0 0 0)
(0 0 0)
(0 0 0)
(0 0 0)
(0 0 0)
(0 0 0)
(0 0 0)
(0 0 0)
(0 0 0)
(0 0 0)
(0 0 0)
(0 0 0)
(0.000346615 -0.000177043 -0.00017495)
(-2.91258e-05 -0.000118217 0.000102443)
(-0.000167341 0.000154337 3.85335e-05)
(-0.000121677 9.59455e-05 -0.000270892)
(-0.000408485 0.000206989 0.000448871)
(-0.000564017 0.000137734 0.000609556)
(-0.000378123 -0.000182592 0.000667867)
(-0.000248828 2.94647e-06 0.000509088)
(-0.000209884 0.000318121 0.000909306)
(-0.00022275 0.000157071 0.00117931)
(-0.000244283 0.000358164 0.000621355)
(-0.000229055 -3.03029e-05 0.000416877)
(-0.000251816 9.70706e-05 0.00141305)
(8.5086e-05 3.59711e-05 0.000526023)
(0.000535748 0.000458793 0.00190338)
(0.000344942 0.000492242 0.00131751)
(-1.46466e-05 0.000149788 0.000913404)
(-1.958e-05 0.000107551 0.000669986)
(-0.000234841 0.000264722 0.00102847)
(-2.51955e-05 0.000186689 0.00101298)
(1.66207e-05 0.000107215 0.000933891)
(6.72674e-05 0.000119257 0.000660934)
(0.000110017 0.000243508 0.000594817)
(2.78516e-05 5.05377e-05 0.000529573)
(0.000315568 -0.000157788 0.00108062)
(0.000466681 -0.000212233 0.000659832)
(0.000148421 9.1456e-05 0.000528037)
(4.73013e-05 0.000148826 0.0002918)
(0 0 0)
(0 0 0)
(0 0 0)
(0 0 0)
(0 0 0)
(0 0 0)
(0 0 0)
(0 0 0)
(0 0 0)
(0 0 0)
(0 0 0)
(0 0 0)
(0 0 0)
(0 0 0)
(0 0 0)
(0 0 0)
(0 0 0)
(0 0 0)
(0 0 0)
(0 0 0)
(0 0 0)
(0 0 0)
(0 0 0)
(0 0 0)
(0 0 0)
(0 0 0)
(0 0 0)
(0 0 0)
(0 0 0)
(0 0 0)
(0 0 0)
(0 0 0)
(0 0 0)
(0 0 0)
(0 0 0)
(0 0 0)
(0 0 0)
(0 0 0)
(0 0 0)
(0 0 0)
(0 0 0)
(0 0 0)
(0 0 0)
(0 0 0)
(0 0 0)
(0 0 0)
(0 0 0)
(0 0 0)
(0 0 0)
(0 0 0)
(0 0 0)
(0 0 0)
(0 0 0)
(0 0 0)
(0 0 0)
(0 0 0)
(0 0 0)
(0 0 0)
(0 0 0)
(0 0 0)
(0 0 0)
(0 0 0)
(0 0 0)
(0 0 0)
(0 0 0)
(0 0 0)
(0 0 0)
(0 0 0)
)
;
    }
    procBoundary3to2
    {
        type            processor;
        value           nonuniform List<vector> 
192
(
(3.97982e-05 0.000162597 9.88613e-06)
(-5.46165e-05 -2.48305e-05 5.68601e-05)
(0.000197943 0.000326762 -0.000358333)
(0.000332899 0.000753735 6.92167e-05)
(0.000243163 -0.000142306 0.000293725)
(0.00044039 0.000403606 0.000606462)
(0.000401638 0.000133568 0.000164812)
(0.000438288 5.97585e-05 0.000207635)
(3.93277e-05 0.000455274 0.000901068)
(0.000383769 0.00024035 0.000844619)
(0.000400742 7.14257e-05 0.000655983)
(0.000497452 0.000133803 0.000571472)
(-0.000211304 0.000838061 0.00164354)
(0.000210405 9.22306e-05 0.00127182)
(0.000362176 -0.000172215 0.000984712)
(0.000533454 -0.00022404 0.000679759)
(3.50533e-05 0.00018426 0.0012289)
(0.000238838 0.000216948 0.00160736)
(0.000203407 -3.9162e-05 0.00104531)
(0.000876038 -0.000385864 0.0021585)
(2.82101e-05 -4.41906e-05 0.00112997)
(7.12564e-05 2.8921e-05 0.00123295)
(0.000192788 -0.000147898 0.00125693)
(3.7995e-05 -0.000179546 0.00109658)
(-8.45485e-05 -9.20537e-05 0.00116336)
(-5.07797e-05 -0.000127325 0.00113558)
(-6.45739e-05 -0.000144113 0.00114907)
(-4.85441e-05 -0.000122133 0.00104129)
(0 0 0)
(0 0 0)
(0 0 0)
(0 0 0)
(0 0 0)
(0 0 0)
(0 0 0)
(0 0 0)
(0 0 0)
(0 0 0)
(0 0 0)
(0 0 0)
(0 0 0)
(0 0 0)
(0 0 0)
(0 0 0)
(0 0 0)
(0 0 0)
(0 0 0)
(0 0 0)
(0 0 0)
(0 0 0)
(0 0 0)
(0 0 0)
(0 0 0)
(0 0 0)
(0 0 0)
(0 0 0)
(0 0 0)
(0 0 0)
(0 0 0)
(0 0 0)
(0 0 0)
(0 0 0)
(0 0 0)
(0 0 0)
(0 0 0)
(0 0 0)
(0 0 0)
(0 0 0)
(0 0 0)
(0 0 0)
(0 0 0)
(0 0 0)
(0 0 0)
(0 0 0)
(0 0 0)
(0 0 0)
(0 0 0)
(0 0 0)
(0 0 0)
(0 0 0)
(0 0 0)
(0 0 0)
(0 0 0)
(0 0 0)
(0 0 0)
(0 0 0)
(0 0 0)
(0 0 0)
(0 0 0)
(0 0 0)
(0 0 0)
(0 0 0)
(0 0 0)
(0 0 0)
(0 0 0)
(0 0 0)
(0.000167738 0.000353388 -7.33078e-05)
(-0.000200552 0.000152847 4.94399e-05)
(-6.07817e-05 -0.000128353 0.000182901)
(-0.000227272 6.46908e-05 0.000102581)
(0.000473128 0.000303818 0.000245978)
(2.2355e-05 -0.000241046 0.000820628)
(0.000502415 -0.000321629 0.00146092)
(-3.56836e-05 0.000140542 0.000582473)
(-7.38045e-05 -0.000222477 0.000862424)
(5.13655e-05 0.000348023 0.00126431)
(0.00025671 -0.000191362 0.00111116)
(0.000704869 -3.68488e-05 0.00150583)
(0.000292722 -0.000301135 0.000810875)
(0.000394002 -0.000129846 0.000995437)
(0.000689426 -0.000239282 0.00180535)
(0.000952544 -0.000364896 0.00134518)
(0.000325104 -0.000360963 0.00112368)
(0.000369179 -0.000205634 0.0009263)
(0.000185653 -0.00019469 0.00102689)
(-0.000166405 -0.000208692 0.000936905)
(0.000152984 -0.000149265 0.000921794)
(0.000209342 -9.46842e-05 0.000750887)
(0.000299234 -4.72026e-05 0.000542345)
(0.000420691 -6.27983e-05 0.000633141)
(0.000181875 -1.46874e-06 0.000870831)
(0.000104558 -0.000175332 0.000704626)
(0.00196526 -0.00319249 -0.000369471)
(0.000298957 -0.00015865 0.000401632)
(0 0 0)
(0 0 0)
(0 0 0)
(0 0 0)
(0 0 0)
(0 0 0)
(0 0 0)
(0 0 0)
(0 0 0)
(0 0 0)
(0 0 0)
(0 0 0)
(0 0 0)
(0 0 0)
(0 0 0)
(0 0 0)
(0 0 0)
(0 0 0)
(0 0 0)
(0 0 0)
(0 0 0)
(0 0 0)
(0 0 0)
(0 0 0)
(0 0 0)
(0 0 0)
(0 0 0)
(0 0 0)
(0 0 0)
(0 0 0)
(0 0 0)
(0 0 0)
(0 0 0)
(0 0 0)
(0 0 0)
(0 0 0)
(0 0 0)
(0 0 0)
(0 0 0)
(0 0 0)
(0 0 0)
(0 0 0)
(0 0 0)
(0 0 0)
(0 0 0)
(0 0 0)
(0 0 0)
(0 0 0)
(0 0 0)
(0 0 0)
(0 0 0)
(0 0 0)
(0 0 0)
(0 0 0)
(0 0 0)
(0 0 0)
(0 0 0)
(0 0 0)
(0 0 0)
(0 0 0)
(0 0 0)
(0 0 0)
(0 0 0)
(0 0 0)
(0 0 0)
(0 0 0)
(0 0 0)
(0 0 0)
)
;
    }
}


// ************************************************************************* //
