/*--------------------------------*- C++ -*----------------------------------*\
| =========                 |                                                 |
| \\      /  F ield         | OpenFOAM: The Open Source CFD Toolbox           |
|  \\    /   O peration     | Version:  2506                                  |
|   \\  /    A nd           | Website:  www.openfoam.com                      |
|    \\/     M anipulation  |                                                 |
\*---------------------------------------------------------------------------*/
FoamFile
{
    version     2.0;
    format      ascii;
    arch        "LSB;label=32;scalar=64";
    class       volScalarField;
    location    "0.05";
    object      voidfraction;
}
// * * * * * * * * * * * * * * * * * * * * * * * * * * * * * * * * * * * * * //

dimensions      [0 0 0 0 0 0 0];

internalField   nonuniform List<scalar> 
1152
(
0.452263
0.475963
0.523364
0.478597
0.486497
0.423296
0.42593
0.47333
0.51283
0.42593
0.444363
0.46543
0.407496
0.420663
0.452263
0.51283
0.431196
0.431196
0.396963
0.362729
0.352196
0.40223
0.40223
0.42593
0.373263
0.38643
0.439097
0.383796
0.423296
0.494397
0.42593
0.328496
0.373263
0.375896
0.446997
0.478597
0.46543
0.404863
0.415396
0.404863
0.323229
0.412763
0.40223
0.404863
0.41803
0.436463
0.378529
0.431196
0.41803
0.339029
0.38643
0.444363
0.44963
0.404863
0.339029
0.375896
0.354829
0.412763
0.375896
0.370629
0.436463
0.41803
0.42593
0.404863
0.468063
0.304796
0.436463
0.367996
0.407496
0.325862
0.404863
0.404863
0.412763
0.404863
0.357463
0.39433
0.378529
0.404863
0.454897
0.389063
0.396963
0.49703
0.373263
0.336396
0.462797
0.415396
0.436463
0.452263
0.391696
0.399596
0.415396
0.44963
0.541797
0.41013
0.383796
0.365363
0.694531
0.589197
0.676098
0.791965
0.623431
0.597097
0.710332
0.836732
0.694531
0.707698
0.749832
0.791965
0.702431
0.768265
0.813032
0.741932
1
1
1
1
1
1
1
1
1
1
1
1
1
1
1
1
1
1
1
1
1
1
1
1
1
1
1
1
1
1
1
1
1
1
1
1
1
1
1
1
1
1
1
1
1
1
1
1
1
1
1
1
1
1
1
1
1
1
1
1
1
1
1
1
1
1
1
1
1
1
1
1
1
1
1
1
1
1
1
1
1
1
1
1
1
1
1
1
1
1
1
1
1
1
1
1
1
1
1
1
1
1
1
1
1
1
1
1
1
1
1
1
1
1
1
1
1
1
1
1
1
1
1
1
1
1
1
1
1
1
1
1
1
1
1
1
1
1
1
1
1
1
1
1
1
1
1
1
1
1
1
1
1
1
1
1
1
1
1
1
1
1
1
1
1
1
1
1
1
1
1
1
1
1
1
1
1
1
1
1
1
1
1
1
1
1
1
1
1
1
1
1
1
1
1
1
1
1
1
1
1
1
1
1
1
1
1
1
1
1
1
1
1
1
1
1
1
1
1
1
1
1
1
1
1
1
1
1
1
1
1
1
1
1
1
1
1
1
1
1
1
1
1
1
1
1
1
1
1
1
1
1
1
1
1
1
1
1
1
1
1
1
1
1
1
1
1
1
1
1
1
1
0.463745
0.453207
0.470421
0.44361
0.434
0.399331
0.446022
0.448733
0.390738
0.412222
0.464045
0.421411
0.420147
0.45306
0.491238
0.44695
0.423652
0.401776
0.412649
0.377895
0.425157
0.43257
0.385085
0.350811
0.416454
0.397422
0.429939
0.368812
0.40404
0.388266
0.373831
0.473928
0.383558
0.399069
0.435116
0.509325
0.427367
0.404079
0.393394
0.387079
0.382826
0.469308
0.41045
0.381189
0.470258
0.409229
0.432534
0.44695
0.431169
0.399069
0.40302
0.373514
0.354407
0.468182
0.398934
0.372572
0.370957
0.407993
0.483535
0.430693
0.386144
0.422569
0.462973
0.428065
0.413628
0.347638
0.457583
0.342847
0.429578
0.347099
0.349076
0.423346
0.42041
0.439708
0.420195
0.350248
0.402251
0.414946
0.432534
0.541373
0.451216
0.41531
0.454373
0.395419
0.349985
0.427821
0.49311
0.492255
0.509426
0.388964
0.439684
0.381189
0.359299
0.409229
0.434709
0.452346
0.744402
0.772621
0.720767
0.732758
0.677203
0.805317
0.795028
0.782395
0.776472
0.644796
0.66381
0.659654
0.699336
0.67984
0.578206
0.649285
1
1
1
1
1
1
1
1
1
1
1
1
1
1
1
1
1
1
1
1
1
1
1
1
1
1
1
1
1
1
1
1
1
1
1
1
1
1
1
1
1
1
1
1
1
1
1
1
1
1
1
1
1
1
1
1
1
1
1
1
1
1
1
1
1
1
1
1
1
1
1
1
1
1
1
1
1
1
1
1
1
1
1
1
1
1
1
1
1
1
1
1
1
1
1
1
1
1
1
1
1
1
1
1
1
1
1
1
1
1
1
1
1
1
1
1
1
1
1
1
1
1
1
1
1
1
1
1
1
1
1
1
1
1
1
1
1
1
1
1
1
1
1
1
1
1
1
1
1
1
1
1
1
1
1
1
1
1
1
1
1
1
1
1
1
1
1
1
1
1
1
1
1
1
1
1
1
1
1
1
1
1
1
1
1
1
1
1
1
1
1
1
1
1
1
1
1
1
1
1
1
1
1
1
1
1
1
1
1
1
1
1
1
1
1
1
1
1
1
1
1
1
1
1
1
1
1
1
1
1
1
1
1
1
1
1
1
1
1
1
1
1
1
1
1
1
1
1
1
1
1
1
1
1
1
1
1
1
1
1
1
1
1
1
1
1
1
1
1
1
1
1
0.431169
0.471586
0.408541
0.400461
0.4505
0.41595
0.460851
0.487363
0.483259
0.432173
0.476226
0.38905
0.364752
0.474121
0.384283
0.444252
0.37604
0.440633
0.48371
0.387933
0.431552
0.401705
0.403764
0.451155
0.348457
0.423863
0.481099
0.382528
0.408562
0.390705
0.446164
0.430763
0.343464
0.361039
0.35711
0.452361
0.426138
0.394583
0.433365
0.382549
0.444744
0.374005
0.493279
0.43036
0.391038
0.448733
0.390471
0.455043
0.366017
0.383149
0.422388
0.362878
0.385534
0.418325
0.431251
0.405417
0.431906
0.410014
0.403142
0.476018
0.452372
0.408839
0.405941
0.465835
0.37604
0.407469
0.404585
0.436254
0.377414
0.368467
0.405879
0.407323
0.438325
0.351846
0.437248
0.436883
0.44361
0.408839
0.378095
0.436159
0.443699
0.440633
0.440191
0.445203
0.474862
0.389834
0.465079
0.451155
0.454373
0.349076
0.427503
0.371657
0.369133
0.394332
0.399753
0.433461
0.792013
0.774484
0.691413
0.715443
0.778034
0.774452
0.797026
0.775126
0.791378
0.817187
0.761257
0.723877
0.846664
0.673592
0.681312
0.695148
1
1
1
1
1
1
1
1
1
1
1
1
1
1
1
1
1
1
1
1
1
1
1
1
1
1
1
1
1
1
1
1
1
1
1
1
1
1
1
1
1
1
1
1
1
1
1
1
1
1
1
1
1
1
1
1
1
1
1
1
1
1
1
1
1
1
1
1
1
1
1
1
1
1
1
1
1
1
1
1
1
1
1
1
1
1
1
1
1
1
1
1
1
1
1
1
1
1
1
1
1
1
1
1
1
1
1
1
1
1
1
1
1
1
1
1
1
1
1
1
1
1
1
1
1
1
1
1
1
1
1
1
1
1
1
1
1
1
1
1
1
1
1
1
1
1
1
1
1
1
1
1
1
1
1
1
1
1
1
1
1
1
1
1
1
1
1
1
1
1
1
1
1
1
1
1
1
1
1
1
1
1
1
1
1
1
1
1
1
1
1
1
1
1
1
1
1
1
1
1
1
1
1
1
1
1
1
1
1
1
1
1
1
1
1
1
1
1
1
1
1
1
1
1
1
1
1
1
1
1
1
1
1
1
1
1
1
1
1
1
1
1
1
1
1
1
1
1
1
1
1
1
1
1
1
1
1
1
1
1
1
1
1
1
1
1
1
1
1
1
1
1
)
;

boundaryField
{
    inlet
    {
        type            fixedValue;
        value           uniform 1;
    }
    outlet
    {
        type            fixedValue;
        value           uniform 1;
    }
    wall
    {
        type            zeroGradient;
    }
    procBoundary3to1
    {
        type            processor;
        value           nonuniform List<scalar> 
192
(
0.43383
0.404863
0.375896
0.304796
0.383796
0.320596
0.439097
0.43383
0.41013
0.362729
0.396963
0.399596
0.41803
0.439097
0.420663
0.365363
0.344296
0.460163
0.375896
0.478597
0.360096
0.415396
0.373263
0.43383
0.483863
0.570764
0.525997
0.715598
1
0.997367
0.997367
1
1
1
1
1
1
1
1
1
1
1
1
1
1
1
1
1
1
1
1
1
1
1
1
1
1
1
1
1
1
1
1
1
1
1
1
1
1
1
1
1
1
1
1
1
1
1
1
1
1
1
1
1
1
1
1
1
1
1
1
1
1
1
1
1
0.478781
0.376516
0.529207
0.51321
0.41864
0.400836
0.408541
0.450572
0.441193
0.431789
0.430301
0.361088
0.446204
0.361039
0.465907
0.416568
0.423652
0.422946
0.434257
0.429096
0.393581
0.387571
0.374913
0.35393
0.656697
0.765641
0.671632
0.668911
1
1
1
1
1
1
1
1
1
1
1
1
1
1
1
1
1
1
1
1
1
1
1
1
1
1
1
1
1
1
1
1
1
1
1
1
1
1
1
1
1
1
1
1
1
1
1
1
1
1
1
1
1
1
1
1
1
1
1
1
1
1
1
1
1
1
1
1
)
;
    }
    procBoundary3to2
    {
        type            processor;
        value           nonuniform List<scalar> 
192
(
0.454897
0.383796
0.391696
0.444363
0.44963
0.41013
0.41013
0.317962
0.381163
0.296896
0.38643
0.399596
0.44963
0.354829
0.436463
0.291629
0.360096
0.399596
0.396963
0.391696
0.404863
0.341663
0.41013
0.302162
0.641864
0.626064
0.702431
0.799865
1
1
1
1
1
1
1
1
1
1
1
1
1
1
1
1
1
1
1
1
1
1
1
1
1
1
1
1
1
1
1
1
1
1
1
1
1
1
1
1
1
1
1
1
1
1
1
1
1
1
1
1
1
1
1
1
1
1
1
1
1
1
1
1
1
1
1
1
0.513863
0.427367
0.481732
0.495313
0.340958
0.347774
0.418432
0.420147
0.488804
0.400836
0.380848
0.348561
0.381052
0.367672
0.531185
0.470258
0.34597
0.356617
0.374913
0.425516
0.361005
0.425157
0.367001
0.466679
0.656697
0.66836
0.647894
0.545424
1
1
1
1
1
1
1
1
1
1
1
1
1
1
1
1
1
1
1
1
1
1
1
1
1
1
1
1
1
1
1
1
1
1
1
1
1
1
1
1
1
1
1
1
1
1
1
1
1
1
1
1
1
1
1
1
1
1
1
1
1
1
1
1
1
1
1
1
)
;
    }
}


// ************************************************************************* //
