/*--------------------------------*- C++ -*----------------------------------*\
| =========                 |                                                 |
| \\      /  F ield         | OpenFOAM: The Open Source CFD Toolbox           |
|  \\    /   O peration     | Version:  2506                                  |
|   \\  /    A nd           | Website:  www.openfoam.com                      |
|    \\/     M anipulation  |                                                 |
\*---------------------------------------------------------------------------*/
FoamFile
{
    version     2.0;
    format      ascii;
    arch        "LSB;label=32;scalar=64";
    class       volScalarField;
    location    "0.07";
    object      p;
}
// * * * * * * * * * * * * * * * * * * * * * * * * * * * * * * * * * * * * * //

dimensions      [0 2 -2 0 0 0 0];

internalField   nonuniform List<scalar> 
1152
(
17.6775
17.6241
17.4879
17.1971
17.5731
17.5655
17.555
17.3842
17.5982
17.556
17.5212
17.3131
17.5259
17.5084
17.5122
17.4659
15.0088
15.0149
14.8156
14.22
15.1848
15.1187
14.9669
14.4216
15.2668
15.2446
14.9736
15.1259
15.0678
15.2402
15.1972
15.1924
11.9792
12.2742
12.4515
12.9148
12.0515
12.0652
12.3297
12.2954
12.2973
12.0768
12.0201
12.1235
12.1581
12.1946
11.9933
11.9703
8.84509
7.85039
8.57997
8.73798
8.86747
8.43515
8.59453
8.95974
8.60356
8.5929
8.83998
8.39847
8.73052
8.37244
8.38038
8.50292
4.48444
5.53139
5.36502
5.42846
4.94982
5.12921
5.16157
5.22983
4.71658
4.91953
4.82393
5.15649
4.45712
4.68094
4.84955
4.96272
1.80512
1.87771
1.8104
0.910921
1.64675
1.91034
1.99794
1.99788
1.60204
1.83207
2.10078
2.06889
1.78172
1.87772
2.02872
1.41859
1.01105
1.01255
1.01006
1.03793
1.01753
1.01195
0.998834
0.999599
1.011
1.01145
1.00972
1.0166
1.01126
1.00411
1.00418
0.997852
1.00354
1.00371
1.00182
1.0016
1.00224
1.00224
1.00139
1.00077
1.00022
1.00104
1.00182
1.0026
0.996291
0.99865
1.00101
1.00256
1.00925
1.00961
1.01007
1.01408
1.00827
1.00825
1.00792
1.00954
1.00751
1.00757
1.00776
1.00861
1.00708
1.00662
1.00678
1.00713
1.00643
1.0066
1.00672
1.0076
1.00575
1.00581
1.00572
1.00618
1.00524
1.00528
1.00537
1.00563
1.0048
1.00474
1.00481
1.00493
1.00631
1.0064
1.00642
1.00659
1.00588
1.00592
1.00589
1.006
1.00556
1.00557
1.00558
1.00564
1.00528
1.00524
1.00524
1.00528
1.00568
1.00571
1.00568
1.00567
1.0054
1.00541
1.00537
1.00537
1.00517
1.00517
1.00515
1.00514
1.00496
1.00495
1.00493
1.00494
1.00514
1.00514
1.0051
1.00506
1.00497
1.00496
1.00492
1.00488
1.00481
1.00479
1.00476
1.00473
1.00467
1.00465
1.00462
1.0046
1.00465
1.00463
1.00459
1.00455
1.00453
1.00451
1.00448
1.00444
1.00442
1.0044
1.00437
1.00433
1.00432
1.0043
1.00427
1.00425
1.00417
1.00415
1.00412
1.00409
1.00409
1.00407
1.00404
1.00401
1.00402
1.00399
1.00397
1.00394
1.00395
1.00393
1.0039
1.00387
1.00372
1.0037
1.00367
1.00364
1.00366
1.00364
1.00362
1.00359
1.0036
1.00358
1.00356
1.00354
1.00355
1.00354
1.00351
1.00349
1.00327
1.00325
1.00323
1.00321
1.00322
1.00321
1.00319
1.00317
1.00319
1.00317
1.00315
1.00313
1.00315
1.00313
1.00312
1.0031
1.00282
1.00281
1.00279
1.00278
1.00279
1.00278
1.00276
1.00275
1.00276
1.00275
1.00274
1.00272
1.00274
1.00273
1.00271
1.0027
1.00238
1.00237
1.00236
1.00235
1.00236
1.00235
1.00234
1.00233
1.00234
1.00233
1.00232
1.00231
1.00232
1.00231
1.0023
1.00229
1.00195
1.00194
1.00193
1.00192
1.00193
1.00192
1.00192
1.00191
1.00192
1.00191
1.0019
1.00189
1.0019
1.0019
1.00189
1.00188
1.00151
1.00151
1.0015
1.00149
1.0015
1.0015
1.00149
1.00148
1.00149
1.00149
1.00148
1.00147
1.00148
1.00148
1.00147
1.00146
1.00108
1.00108
1.00107
1.00107
1.00107
1.00107
1.00106
1.00106
1.00107
1.00106
1.00106
1.00105
1.00106
1.00106
1.00105
1.00105
1.00065
1.00065
1.00064
1.00064
1.00064
1.00064
1.00064
1.00064
1.00064
1.00064
1.00063
1.00063
1.00064
1.00063
1.00063
1.00063
1.00022
1.00022
1.00021
1.00021
1.00021
1.00021
1.00021
1.00021
1.00021
1.00021
1.00021
1.00021
1.00021
1.00021
1.00021
1.00021
17.4147
17.5617
17.4543
17.6104
17.4594
17.6179
17.5745
17.578
17.4663
17.4382
17.4529
17.5
17.3757
17.5386
17.3906
17.5608
15.2391
15.1286
15.4455
14.767
15.242
15.1491
15.3134
14.818
15.2324
15.1932
15.1275
15.1479
15.2417
15.1083
15.2124
15.1386
12.4315
12.0612
12.0092
11.6313
12.12
11.644
11.8073
11.6912
11.9825
12.0189
11.7096
11.7069
11.9727
11.9787
11.8668
11.3314
8.0766
8.45151
8.18494
8.43851
8.5377
8.38879
8.18828
8.48334
8.59328
8.2949
8.22123
7.68046
8.54814
8.07862
8.42858
7.73075
4.28668
4.72955
4.72697
4.84971
4.53521
4.99586
4.66304
3.91813
5.16256
4.93181
4.77867
4.02473
5.16745
4.89327
4.9485
3.75128
2.39018
1.60646
1.70492
1.44801
1.82681
1.74905
1.43698
1.49229
1.68277
1.68057
1.5659
1.04826
1.76746
1.5478
1.41448
1.26842
0.971598
1.00177
1.01551
1.01935
0.990875
1.00347
1.0203
1.03912
1.00171
1.01486
1.03327
1.09954
1.01292
1.01937
1.01858
1.05404
0.994176
0.997399
1.00019
1.00082
0.995529
0.998003
0.999404
0.995973
0.99772
0.999402
0.998404
0.978512
0.998806
1.00054
1.0006
0.99937
1.00788
1.00666
1.00663
1.00669
1.00681
1.0063
1.00622
1.0062
1.00648
1.00654
1.00613
1.00509
1.00663
1.00696
1.00592
1.00652
1.00462
1.00447
1.00452
1.00461
1.00436
1.00429
1.00428
1.0044
1.00421
1.00425
1.00418
1.00431
1.00409
1.00422
1.00398
1.00432
1.00518
1.00506
1.00503
1.00505
1.00508
1.00494
1.00486
1.0049
1.005
1.00487
1.00475
1.00483
1.005
1.00487
1.0047
1.00482
1.00484
1.00481
1.00478
1.00478
1.00478
1.00472
1.00467
1.00468
1.00473
1.00466
1.0046
1.00462
1.0047
1.00462
1.00454
1.00459
1.00459
1.00455
1.00452
1.00449
1.00455
1.00449
1.00444
1.00442
1.00452
1.00445
1.00439
1.00438
1.00451
1.00443
1.00436
1.00435
1.00427
1.00423
1.0042
1.00417
1.00424
1.00419
1.00415
1.00412
1.00422
1.00416
1.00411
1.00409
1.00421
1.00415
1.00409
1.00407
1.00391
1.00388
1.00385
1.00382
1.00389
1.00385
1.00381
1.00378
1.00388
1.00383
1.00379
1.00376
1.00387
1.00382
1.00378
1.00375
1.00353
1.0035
1.00348
1.00345
1.00352
1.00348
1.00345
1.00343
1.00351
1.00347
1.00343
1.00341
1.0035
1.00346
1.00342
1.0034
1.00313
1.00311
1.00309
1.00307
1.00312
1.0031
1.00307
1.00305
1.00312
1.00309
1.00306
1.00304
1.00311
1.00308
1.00305
1.00303
1.00272
1.00271
1.00269
1.00268
1.00272
1.0027
1.00268
1.00266
1.00272
1.00269
1.00267
1.00265
1.00271
1.00269
1.00267
1.00265
1.00231
1.0023
1.00229
1.00228
1.00231
1.00229
1.00228
1.00227
1.00231
1.00229
1.00227
1.00226
1.00231
1.00229
1.00227
1.00225
1.0019
1.00189
1.00188
1.00187
1.00189
1.00188
1.00187
1.00186
1.00189
1.00188
1.00187
1.00186
1.00189
1.00188
1.00186
1.00185
1.00148
1.00147
1.00146
1.00146
1.00147
1.00147
1.00146
1.00145
1.00147
1.00146
1.00146
1.00145
1.00147
1.00146
1.00145
1.00145
1.00106
1.00105
1.00105
1.00104
1.00105
1.00105
1.00104
1.00104
1.00105
1.00105
1.00104
1.00104
1.00105
1.00105
1.00104
1.00104
1.00063
1.00063
1.00063
1.00063
1.00063
1.00063
1.00063
1.00062
1.00063
1.00063
1.00063
1.00062
1.00063
1.00063
1.00062
1.00062
1.00021
1.00021
1.00021
1.00021
1.00021
1.00021
1.00021
1.00021
1.00021
1.00021
1.00021
1.00021
1.00021
1.00021
1.00021
1.00021
17.9018
17.8104
17.9633
17.7719
17.7134
17.7077
17.7487
17.64
17.2574
17.4184
17.5598
17.4755
17.4911
17.5178
17.4845
17.5328
15.1182
15.1882
15.1907
15.2088
15.0855
15.1661
15.2442
15.4357
14.9213
15.1979
15.2025
15.3541
15.123
15.0399
15.2585
15.2336
11.6024
11.7519
11.8147
11.7993
12.3737
11.8786
11.9843
12.1578
12.0667
11.7217
11.857
11.9769
11.898
12.0363
11.9689
12.073
8.39229
8.68803
8.65573
8.63439
8.35476
8.64051
8.53681
8.54225
9.0924
8.731
9.01576
8.68313
8.5925
8.70062
8.70326
8.63348
4.77661
4.4623
4.78547
4.7415
4.79329
4.93973
4.94528
4.96566
5.43084
5.15532
4.92016
5.0659
5.46769
5.3644
5.14115
4.85677
1.47135
1.33721
1.26893
1.4126
1.49407
1.6719
1.56111
1.54402
1.664
1.78555
1.66397
1.70116
1.89744
1.75656
1.64266
1.48841
1.01257
1.01637
1.00792
1.01834
1.00862
1.00872
1.01309
1.00484
1.0127
1.01561
1.00646
1.01166
1.00921
1.00156
1.00247
1.00314
1.00188
1.00335
1.00249
1.00368
1.00043
1.00074
1.00125
1.00164
0.999725
0.99974
0.999541
0.999774
0.998611
0.998041
0.997032
0.996485
1.00862
1.00888
1.00849
1.00916
1.00733
1.00722
1.00753
1.00762
1.00741
1.00728
1.0071
1.00737
1.00648
1.00628
1.00648
1.00688
1.00607
1.00625
1.00617
1.00636
1.00511
1.0052
1.00536
1.00552
1.00488
1.00501
1.005
1.00511
1.0042
1.00429
1.00442
1.00461
1.00611
1.00612
1.00613
1.00623
1.0056
1.00559
1.00566
1.00577
1.00542
1.00541
1.00544
1.00551
1.00513
1.00511
1.00519
1.00527
1.00559
1.00561
1.00562
1.00565
1.00523
1.00525
1.00529
1.00534
1.00505
1.00507
1.00509
1.00514
1.00482
1.00485
1.00489
1.00493
1.00513
1.00513
1.00513
1.00514
1.0049
1.0049
1.00492
1.00495
1.00476
1.00476
1.00477
1.0048
1.00461
1.00462
1.00464
1.00467
1.00466
1.00466
1.00466
1.00465
1.00451
1.00451
1.00452
1.00453
1.0044
1.0044
1.00441
1.00442
1.0043
1.0043
1.00431
1.00433
1.0042
1.0042
1.00419
1.00419
1.0041
1.0041
1.0041
1.0041
1.00402
1.00402
1.00402
1.00402
1.00394
1.00394
1.00395
1.00396
1.00374
1.00374
1.00374
1.00373
1.00367
1.00367
1.00367
1.00367
1.00361
1.00361
1.00361
1.00361
1.00356
1.00356
1.00356
1.00356
1.00329
1.00329
1.00328
1.00328
1.00324
1.00324
1.00324
1.00323
1.0032
1.0032
1.0032
1.00319
1.00315
1.00316
1.00316
1.00316
1.00284
1.00284
1.00284
1.00283
1.00281
1.00281
1.00281
1.0028
1.00278
1.00278
1.00277
1.00277
1.00274
1.00274
1.00275
1.00275
1.0024
1.0024
1.0024
1.00239
1.00238
1.00237
1.00237
1.00237
1.00235
1.00235
1.00235
1.00235
1.00233
1.00233
1.00233
1.00233
1.00196
1.00196
1.00196
1.00195
1.00194
1.00194
1.00194
1.00194
1.00193
1.00192
1.00192
1.00192
1.00191
1.00191
1.00191
1.00191
1.00152
1.00152
1.00152
1.00152
1.00151
1.00151
1.00151
1.00151
1.0015
1.0015
1.0015
1.00149
1.00149
1.00149
1.00149
1.00149
1.00109
1.00109
1.00108
1.00108
1.00108
1.00108
1.00108
1.00107
1.00107
1.00107
1.00107
1.00107
1.00106
1.00106
1.00106
1.00106
1.00065
1.00065
1.00065
1.00065
1.00065
1.00065
1.00065
1.00064
1.00064
1.00064
1.00064
1.00064
1.00064
1.00064
1.00064
1.00064
1.00022
1.00022
1.00022
1.00022
1.00022
1.00022
1.00022
1.00021
1.00021
1.00021
1.00021
1.00021
1.00021
1.00021
1.00021
1.00021
)
;

boundaryField
{
    inlet
    {
        type            zeroGradient;
    }
    outlet
    {
        type            fixedValue;
        value           uniform 1;
    }
    wall
    {
        type            zeroGradient;
    }
    procBoundary2to0
    {
        type            processor;
        value           nonuniform List<scalar> 
192
(
17.6028
17.3827
17.3993
17.4141
15.2425
15.3414
15.1849
14.7043
12.0671
11.8737
11.8309
10.6347
8.29854
8.76049
8.56586
8.19386
4.75697
5.46513
5.68235
7.49542
1.65278
1.92079
2.08487
2.20451
1.02456
1.01334
1.00379
1.02464
1.00473
1.00512
1.00551
1.00571
1.01007
1.01004
1.00975
1.01183
1.00687
1.00694
1.00684
1.00741
1.00658
1.00665
1.00659
1.00669
1.00588
1.0059
1.00584
1.00581
1.00529
1.00529
1.00524
1.00519
1.00476
1.00474
1.0047
1.00465
1.00425
1.00423
1.0042
1.00416
1.00377
1.00375
1.00373
1.0037
1.00331
1.00329
1.00327
1.00325
1.00285
1.00284
1.00282
1.00281
1.0024
1.0024
1.00238
1.00237
1.00196
1.00196
1.00195
1.00194
1.00152
1.00152
1.00151
1.0015
1.00109
1.00108
1.00108
1.00107
1.00065
1.00065
1.00065
1.00064
1.00022
1.00022
1.00022
1.00021
18.1219
17.8739
17.6882
17.6737
15.2779
15.3333
15.4565
15.338
11.848
12.4438
12.5193
12.0345
8.14713
8.16704
8.13304
8.50349
4.60997
4.47165
4.4568
4.60357
1.60483
1.33949
1.27287
1.45637
1.00856
1.00896
1.01542
1.01507
1.00226
1.00261
1.00367
1.00373
1.00841
1.00856
1.00909
1.00944
1.00619
1.00636
1.00655
1.00665
1.00629
1.00632
1.00639
1.00648
1.00576
1.00578
1.00581
1.00584
1.00526
1.00527
1.00528
1.00529
1.00477
1.00477
1.00477
1.00476
1.00428
1.00428
1.00428
1.00427
1.0038
1.0038
1.0038
1.00379
1.00334
1.00333
1.00333
1.00332
1.00288
1.00287
1.00287
1.00286
1.00242
1.00242
1.00242
1.00241
1.00198
1.00198
1.00197
1.00197
1.00153
1.00153
1.00153
1.00153
1.00109
1.00109
1.00109
1.00109
1.00066
1.00066
1.00065
1.00065
1.00022
1.00022
1.00022
1.00022
)
;
    }
    procBoundary2to3
    {
        type            processor;
        value           nonuniform List<scalar> 
192
(
16.9181
17.0395
17.4363
17.3895
14.6016
15.1062
14.547
14.6785
12.2365
12.3546
12.3122
11.9375
8.4464
8.72183
8.64791
8.29607
5.03083
4.88084
5.13749
4.81928
2.64135
2.16354
1.89118
2.04374
1.01046
1.02004
1.00747
0.985308
1.00457
1.00335
1.00306
1.00319
1.0096
1.00881
1.00799
1.00686
1.00637
1.00585
1.00538
1.00486
1.00615
1.00582
1.00551
1.00523
1.00548
1.00526
1.00506
1.00487
1.00495
1.0048
1.00467
1.00455
1.00448
1.00438
1.00428
1.0042
1.00403
1.00396
1.0039
1.00384
1.0036
1.00355
1.0035
1.00346
1.00318
1.00314
1.00311
1.00308
1.00276
1.00273
1.0027
1.00268
1.00233
1.00231
1.00229
1.00228
1.00191
1.0019
1.00188
1.00187
1.00149
1.00148
1.00147
1.00146
1.00106
1.00105
1.00105
1.00104
1.00064
1.00063
1.00063
1.00063
1.00021
1.00021
1.00021
1.00021
17.4149
17.4957
17.3331
17.3122
15.1579
15.0188
15.0801
14.88
11.8701
11.8363
11.5836
12.2524
7.9376
7.27368
7.21163
7.75999
4.25245
3.88488
3.45271
3.9985
1.87887
1.87049
1.77376
1.31452
0.972665
1.00411
1.05248
1.03211
1.00097
0.997899
0.999778
1.00371
1.00669
1.00821
1.00748
1.00758
1.00464
1.00483
1.00472
1.0046
1.00505
1.00499
1.00491
1.00488
1.00475
1.00468
1.00462
1.00458
1.00446
1.00439
1.00435
1.00433
1.00414
1.00409
1.00406
1.00404
1.00379
1.00375
1.00373
1.00372
1.00343
1.0034
1.00338
1.00338
1.00305
1.00303
1.00302
1.00301
1.00266
1.00265
1.00264
1.00263
1.00226
1.00225
1.00225
1.00224
1.00186
1.00185
1.00185
1.00184
1.00145
1.00144
1.00144
1.00144
1.00104
1.00103
1.00103
1.00103
1.00062
1.00062
1.00062
1.00062
1.00021
1.00021
1.00021
1.00021
)
;
    }
}


// ************************************************************************* //
