/*--------------------------------*- C++ -*----------------------------------*\
| =========                 |                                                 |
| \\      /  F ield         | OpenFOAM: The Open Source CFD Toolbox           |
|  \\    /   O peration     | Version:  2506                                  |
|   \\  /    A nd           | Website:  www.openfoam.com                      |
|    \\/     M anipulation  |                                                 |
\*---------------------------------------------------------------------------*/
FoamFile
{
    version     2.0;
    format      ascii;
    arch        "LSB;label=32;scalar=64";
    class       surfaceScalarField;
    location    "0.07";
    object      phi;
}
// * * * * * * * * * * * * * * * * * * * * * * * * * * * * * * * * * * * * * //

dimensions      [0 3 -1 0 0 0 0];

oriented        oriented;

internalField   nonuniform List<scalar> 
3120
(
1.01637e-09
5.3056e-09
3.80457e-08
-3.58075e-09
1.87087e-09
7.88961e-10
2.33215e-08
5.43513e-09
-2.10226e-09
3.75002e-08
-1.29977e-09
3.56865e-08
-3.56115e-10
-7.35127e-10
5.25006e-08
-3.10722e-09
-3.50732e-11
4.55073e-10
4.33181e-08
2.42809e-09
1.05526e-09
3.71995e-08
3.93825e-09
2.49551e-08
3.07476e-10
2.58327e-09
3.16543e-08
7.31832e-09
4.03854e-10
2.46965e-09
3.9203e-08
1.20894e-08
6.56183e-10
2.93911e-08
-9.84189e-09
7.37542e-08
-6.32133e-10
3.71818e-08
7.8375e-09
7.16898e-11
-1.31518e-09
4.54931e-08
-1.00971e-09
2.03486e-09
3.63494e-08
3.42119e-09
3.65495e-08
-5.55817e-09
1.50443e-10
-2.71642e-09
4.72134e-08
-1.54091e-09
5.75234e-09
-2.70569e-09
2.56171e-08
2.34479e-08
-3.53236e-09
3.11369e-08
-3.56822e-08
1.97382e-07
1.32317e-09
-1.60974e-09
5.30223e-08
-2.95155e-09
4.07132e-09
-3.63173e-09
4.1496e-08
1.27569e-08
-8.69976e-10
2.58516e-08
-1.92496e-08
4.26008e-08
-3.12187e-10
4.65517e-09
2.84568e-08
-2.75518e-09
1.90156e-09
3.27359e-10
3.30302e-08
-1.46277e-09
-4.0136e-09
3.58991e-08
-2.29077e-09
3.80197e-08
-6.34546e-09
5.68892e-08
-6.06716e-09
-2.63954e-09
-9.25722e-10
3.59851e-08
4.41564e-09
3.98272e-10
3.68622e-08
-5.85031e-09
1.89893e-08
3.12654e-09
-4.18833e-09
-4.2039e-09
4.99961e-08
6.2166e-09
-2.01181e-09
8.97215e-10
1.09867e-08
-1.47326e-08
1.44263e-09
3.43175e-08
2.13323e-08
9.35497e-08
-3.65853e-10
-8.02332e-09
5.86409e-08
-1.43331e-09
-3.98351e-09
-1.11698e-09
4.71279e-08
-2.17532e-10
5.83832e-09
1.76899e-08
2.48759e-09
6.07871e-08
1.49432e-09
2.3903e-09
1.2908e-08
3.64086e-09
4.29156e-10
-2.56871e-09
3.55471e-08
-4.06738e-09
-2.17915e-10
4.64519e-08
6.45929e-10
4.01753e-08
-3.60433e-09
6.2656e-08
-6.12886e-09
6.35665e-09
1.38999e-09
2.51908e-08
3.23136e-09
-1.54669e-10
3.89957e-08
-8.06717e-10
1.34443e-08
6.05597e-09
3.01963e-09
-1.48914e-09
3.58055e-08
4.60562e-09
-7.87366e-09
-2.25987e-08
5.29024e-08
-3.88537e-09
-4.4042e-10
3.03025e-08
-7.69782e-09
7.29299e-08
7.6099e-09
8.20733e-10
4.46771e-08
4.0441e-09
-2.55937e-09
-4.08394e-09
3.87824e-08
-5.54803e-09
-2.60447e-09
2.28426e-08
8.57217e-09
3.40847e-08
-1.37733e-10
-1.60157e-09
1.73012e-08
-1.83315e-09
-3.01835e-09
2.20532e-09
3.21385e-08
6.24743e-09
5.42156e-09
2.91601e-08
-2.31781e-09
6.19765e-08
4.2999e-09
4.87249e-08
7.39272e-09
6.36945e-10
-1.45327e-10
3.36571e-08
-1.81581e-09
-1.44859e-09
4.47986e-08
9.21913e-10
7.0732e-09
-2.73295e-10
-9.45004e-09
-6.10594e-09
5.61245e-08
-2.50921e-09
2.71706e-09
5.68445e-09
3.41852e-08
-6.63581e-10
3.13461e-09
3.40754e-08
3.50578e-09
8.96484e-08
-3.23525e-09
3.61327e-09
3.82826e-08
-8.94709e-11
-5.68356e-10
2.67595e-09
3.91241e-08
-7.65884e-10
3.6731e-09
2.25017e-08
4.31053e-10
3.37545e-08
-2.67785e-09
4.90588e-09
2.43718e-08
-5.68533e-09
7.05273e-10
3.12395e-09
2.83074e-08
-9.46099e-09
-1.1879e-09
4.41874e-08
2.21987e-09
5.07104e-08
-4.19867e-09
6.15622e-08
8.31705e-09
-1.20498e-08
-3.5947e-09
3.80939e-08
-1.91674e-09
-1.91816e-09
3.96841e-08
2.2501e-09
4.32345e-09
1.05357e-09
-2.19372e-09
5.0025e-09
3.36119e-08
1.47895e-08
9.59588e-10
-3.00373e-10
3.22089e-08
5.34347e-09
-1.47355e-09
3.59878e-08
-1.38001e-08
1.50614e-07
-5.53215e-09
1.03203e-09
4.64938e-08
1.29148e-09
-1.49981e-09
2.00534e-09
3.2786e-08
1.95476e-10
-1.97218e-09
2.1305e-08
-1.5132e-09
2.68795e-08
-3.56997e-09
-4.4137e-09
3.598e-08
-2.59254e-09
-7.52209e-09
-3.41599e-10
3.46065e-08
6.96131e-10
2.40855e-09
3.15884e-08
3.73969e-09
4.46811e-08
-4.31947e-09
6.66239e-08
-1.46547e-08
9.4988e-09
-3.58875e-09
3.09371e-08
6.08453e-09
7.63788e-09
2.47958e-08
6.07025e-09
2.13858e-08
6.99303e-10
2.3706e-10
8.99396e-10
3.72846e-08
-7.28762e-10
-6.89289e-10
1.40793e-09
3.26881e-08
-6.17051e-09
2.64268e-09
3.98282e-08
9.66924e-09
1.24542e-07
5.58342e-10
2.6751e-09
4.20595e-08
2.10015e-09
8.86904e-10
1.26538e-09
3.25999e-08
-1.77392e-11
7.13956e-10
2.41391e-08
1.63979e-10
3.74822e-08
-2.06061e-10
-7.6254e-10
3.91664e-08
4.57105e-10
2.14929e-11
1.50306e-09
3.41413e-08
-7.08528e-10
1.43982e-09
3.15925e-08
3.161e-09
3.97922e-08
-1.9666e-10
5.7089e-08
5.35073e-09
3.61569e-09
-1.13849e-09
3.18334e-08
1.54859e-09
3.80961e-10
2.43169e-08
3.98952e-10
2.41323e-08
1.82901e-11
3.05773e-09
3.57899e-09
3.91508e-08
-5.79803e-09
-2.57214e-10
3.79548e-09
3.38836e-08
-4.26892e-09
2.52698e-09
4.32569e-08
7.77862e-09
1.04881e-07
2.72227e-09
4.25193e-09
3.95131e-08
-8.48717e-10
2.25847e-09
3.14473e-09
3.37148e-08
6.668e-10
8.60219e-10
2.73971e-08
1.93882e-09
4.59811e-08
4.36016e-10
2.65775e-09
4.00019e-08
3.2285e-10
-7.38802e-10
3.42149e-09
3.50411e-08
-1.52897e-09
9.59827e-10
3.22835e-08
-2.81462e-10
4.02069e-08
-1.65171e-09
5.67518e-08
2.80168e-09
1.84457e-09
-3.4627e-09
3.51355e-08
1.931e-09
-4.3566e-09
2.64127e-08
-2.41858e-10
2.17099e-08
5.7236e-10
2.84524e-10
1.28127e-09
4.15544e-08
-2.03386e-09
-6.29476e-09
2.36882e-09
3.954e-08
-1.22868e-08
4.70414e-09
4.22755e-08
1.39236e-08
5.94336e-08
1.83183e-09
-2.22867e-09
4.0615e-08
5.76348e-10
-7.98952e-10
4.21297e-10
3.82934e-08
-7.48462e-09
2.20638e-09
3.65794e-08
9.33957e-09
4.39474e-08
2.92809e-09
-6.54766e-09
4.19042e-08
-5.10818e-10
8.92859e-10
-1.53418e-09
3.90323e-08
-2.05127e-09
2.11817e-11
3.74133e-08
5.4399e-09
4.01973e-08
7.04107e-09
4.69749e-08
-5.81521e-09
2.00541e-09
4.85965e-09
3.94791e-08
-3.69641e-09
1.02602e-09
3.54768e-08
-5.20905e-09
3.43267e-08
-5.87226e-09
9.41086e-10
1.10024e-09
4.23092e-08
-1.83923e-09
-1.61839e-09
1.48481e-09
4.16848e-08
-3.75775e-09
2.18817e-09
4.24131e-08
4.78714e-09
4.72612e-08
1.18787e-09
-6.00257e-10
4.16012e-08
-4.73583e-10
-1.51141e-10
3.14057e-10
4.08032e-08
-2.76085e-09
1.03758e-09
4.03403e-08
3.46908e-09
4.31175e-08
1.61376e-09
-1.84516e-09
4.22584e-08
-7.22655e-10
7.0866e-10
-7.92822e-10
4.10441e-08
-8.13774e-10
-3.92699e-10
4.03661e-08
1.31071e-09
4.14211e-08
2.27113e-09
4.36271e-08
-1.6369e-09
8.67887e-10
1.84091e-09
4.12368e-08
-2.12026e-09
2.46056e-10
3.97564e-08
-3.07748e-09
3.95952e-08
-3.50777e-09
4.73749e-10
2.79268e-10
4.27322e-08
-7.98708e-10
-3.74345e-10
5.10736e-10
4.25279e-08
-1.17886e-09
8.04789e-10
4.26913e-08
1.56926e-09
4.41462e-08
5.66796e-10
-6.83462e-10
4.23413e-08
-3.44133e-10
-5.60943e-12
-1.77254e-10
4.20636e-08
-9.84947e-10
1.87048e-10
4.19372e-08
1.08565e-09
4.29352e-08
9.499e-10
-1.29979e-09
4.26093e-08
-6.84353e-10
5.08916e-10
-8.30315e-10
4.21382e-08
-2.54759e-10
-5.35948e-10
4.18528e-08
5.03293e-11
4.22723e-08
1.27499e-09
4.29676e-08
-1.55802e-09
-3.57305e-10
9.61782e-10
4.22406e-08
-1.52121e-09
1.62061e-10
4.17171e-08
-1.69698e-09
4.17391e-08
-1.84935e-09
2.75078e-10
1.80031e-10
4.29094e-08
-4.38329e-10
-4.42874e-11
2.56371e-10
4.28676e-08
-3.60886e-10
3.30215e-10
4.29043e-08
5.60231e-10
4.33667e-08
2.59758e-10
-2.38986e-10
4.27026e-08
-2.01954e-10
3.20736e-11
-9.57044e-11
4.26432e-08
-3.45456e-10
2.66578e-11
4.2618e-08
3.33014e-10
4.29786e-08
4.02676e-10
-4.79627e-10
4.27699e-08
-3.22499e-10
2.27466e-10
-4.25149e-10
4.26428e-08
-9.98045e-11
-3.51328e-10
4.25579e-08
-1.73746e-10
4.27344e-08
3.79272e-10
4.28165e-08
-6.48907e-10
-5.88698e-11
3.11117e-10
4.26577e-08
-7.74175e-10
3.54439e-11
4.25197e-08
-8.78295e-10
4.25829e-08
-9.78537e-10
1.65291e-10
7.39025e-11
4.30091e-08
-2.37367e-10
4.26772e-11
1.07122e-10
4.30232e-08
-9.86563e-11
1.32041e-10
4.30431e-08
1.78389e-10
4.31995e-08
1.37555e-10
-1.38727e-10
4.29006e-08
-1.22949e-10
4.99499e-11
-8.37219e-11
4.29215e-08
-9.55574e-11
-3.89516e-11
4.29342e-08
6.12716e-11
4.30641e-08
2.06649e-10
-2.76026e-10
4.28924e-08
-1.918e-10
1.28742e-10
-2.58341e-10
4.28952e-08
-1.53051e-11
-2.27425e-10
4.28903e-08
-1.7512e-10
4.29659e-08
1.84793e-10
4.28453e-08
-4.0095e-10
-8.87355e-11
1.47757e-10
4.28659e-08
-4.29608e-10
3.37944e-11
4.28588e-08
-4.52678e-10
4.29091e-08
-4.98953e-10
9.59486e-11
3.02535e-11
4.30617e-08
-1.25651e-10
4.78431e-11
3.79376e-11
4.3102e-08
-1.46115e-11
4.56802e-11
4.31263e-08
5.96212e-11
4.31804e-08
7.40131e-11
-6.95536e-11
4.29967e-08
-7.0315e-11
4.09869e-11
-5.67622e-11
4.30491e-08
-1.63605e-11
-3.98419e-11
4.30769e-08
-9.49312e-12
4.31275e-08
1.01797e-10
-1.39416e-10
4.29579e-08
-9.72992e-11
6.95044e-11
-1.42057e-10
4.30128e-08
1.29229e-11
-1.33086e-10
4.30402e-08
-1.20935e-10
4.30779e-08
7.99849e-11
4.28707e-08
-2.04669e-10
-4.00869e-11
6.93998e-11
4.2955e-08
-2.20604e-10
3.02505e-11
4.29944e-08
-2.2949e-10
4.30325e-08
-2.51905e-10
5.65904e-11
1.12297e-11
4.30895e-08
-6.88586e-11
3.67506e-11
1.05471e-11
4.31432e-08
1.09097e-11
1.24888e-11
4.3171e-08
1.54081e-11
4.31945e-08
4.42525e-11
-3.93082e-11
4.30441e-08
-4.12235e-11
3.14398e-11
-3.63421e-11
4.31088e-08
9.18134e-12
-3.06102e-11
4.31424e-08
-2.16705e-11
4.31676e-08
5.39515e-11
-7.30795e-11
4.29903e-08
-5.25462e-11
4.13251e-11
-7.754e-11
4.30666e-08
2.02198e-11
-7.6236e-11
4.3107e-08
-7.31854e-11
4.31319e-08
4.02122e-11
4.2886e-08
-1.06688e-10
-2.19092e-11
3.82244e-11
4.29927e-08
-1.13255e-10
2.52732e-11
4.30491e-08
-1.17921e-10
4.30803e-08
-1.2833e-10
3.44672e-11
3.7851e-12
4.31035e-08
-3.92887e-11
2.62388e-11
1.73255e-12
4.31639e-08
1.56866e-11
1.16217e-12
4.3194e-08
1.42215e-12
4.32092e-08
2.78745e-11
-2.15688e-11
4.3067e-08
-2.53277e-11
2.34615e-11
-2.22908e-11
4.31373e-08
1.47527e-11
-2.08634e-11
4.31733e-08
-1.80885e-11
4.3191e-08
3.09115e-11
-3.85481e-11
4.3006e-08
-2.95719e-11
2.66222e-11
-4.29817e-11
4.30915e-08
1.88384e-11
-4.3081e-11
4.31371e-08
-4.22195e-11
4.31583e-08
2.3904e-11
4.28922e-08
-5.54643e-11
-1.32014e-11
2.37268e-11
4.30082e-08
-5.84117e-11
2.0173e-11
4.30709e-08
-6.13819e-11
4.31e-08
-6.59434e-11
2.15501e-11
9.42452e-13
4.31103e-08
-2.31649e-11
1.84258e-11
-1.37889e-12
4.31744e-08
1.40355e-11
-2.10558e-12
4.3206e-08
-2.34371e-12
4.3219e-08
1.85418e-11
-1.18893e-11
4.30772e-08
-1.59695e-11
1.68904e-11
-1.32563e-11
4.31507e-08
1.34764e-11
-1.32287e-11
4.31881e-08
-1.24705e-11
4.32038e-08
1.95194e-11
-2.07129e-11
4.30123e-08
-1.70657e-11
1.77419e-11
-2.26712e-11
4.31026e-08
1.4987e-11
-2.39012e-11
4.31506e-08
-2.38882e-11
4.3171e-08
1.45257e-11
4.28948e-08
-2.83189e-11
-9.58679e-12
1.56817e-11
4.30141e-08
-2.9875e-11
1.53006e-11
4.30796e-08
-3.2237e-11
4.31083e-08
-3.43184e-11
1.38952e-11
-4.67918e-13
4.31134e-08
-1.40119e-11
1.27357e-11
-1.8147e-12
4.31795e-08
1.09268e-11
-2.44268e-12
4.32122e-08
-2.67401e-12
4.3225e-08
1.201e-11
-6.65421e-12
4.3082e-08
-1.06083e-11
1.18428e-11
-7.82823e-12
4.31569e-08
1.06199e-11
-8.12793e-12
4.31952e-08
-7.91034e-12
4.32107e-08
1.21245e-11
-1.11106e-11
4.30153e-08
-1.0623e-11
1.19733e-11
-1.246e-11
4.31073e-08
1.11671e-11
-1.32417e-11
4.31566e-08
-1.33709e-11
4.31773e-08
9.65288e-12
4.28954e-08
-1.46071e-11
-6.78076e-12
1.0789e-11
4.30162e-08
-1.57127e-11
1.11991e-11
4.30829e-08
-1.69533e-11
4.31119e-08
-1.79447e-11
8.93531e-12
-7.09515e-13
4.31148e-08
-8.6545e-12
8.70689e-12
-1.50507e-12
4.3182e-08
8.02883e-12
-1.90345e-12
4.32155e-08
-2.04617e-12
4.32286e-08
8.09614e-12
-3.74283e-12
4.3084e-08
-7.07919e-12
8.24291e-12
-4.43595e-12
4.31598e-08
7.87567e-12
-4.74664e-12
4.31988e-08
-4.75099e-12
4.32145e-08
7.93452e-12
-5.88253e-12
4.30163e-08
-6.81537e-12
8.16039e-12
-6.68402e-12
4.31092e-08
8.0792e-12
-7.25359e-12
4.31594e-08
-7.39e-12
4.31805e-08
6.69437e-12
4.28952e-08
-7.4261e-12
-4.8809e-12
7.51722e-12
4.30166e-08
-8.05589e-12
7.99846e-12
4.30841e-08
-8.86173e-12
4.31134e-08
-9.44893e-12
5.89413e-12
-5.31166e-13
4.31154e-08
-5.45881e-12
5.98829e-12
-9.78582e-13
4.31833e-08
5.80443e-12
-1.23863e-12
4.32173e-08
-1.35526e-12
4.32307e-08
5.50585e-12
-1.97248e-12
4.30848e-08
-4.78002e-12
5.72819e-12
-2.43205e-12
4.31611e-08
5.69906e-12
-2.68146e-12
4.32006e-08
-2.75322e-12
4.32166e-08
5.33417e-12
-2.95482e-12
4.30166e-08
-4.52527e-12
5.58873e-12
-3.50995e-12
4.311e-08
5.73243e-12
-3.90229e-12
4.31607e-08
-4.04709e-12
4.31821e-08
4.66796e-12
4.28947e-08
-3.632e-12
-3.48191e-12
5.22082e-12
4.30165e-08
-4.06883e-12
5.61946e-12
4.30845e-08
-4.60355e-12
4.31141e-08
-4.98636e-12
3.97272e-12
-2.66738e-13
4.31157e-08
-3.55813e-12
4.16505e-12
-5.28732e-13
4.31839e-08
4.16524e-12
-7.14379e-13
4.32183e-08
-8.34945e-13
4.32318e-08
3.78616e-12
-9.56764e-13
4.30851e-08
-3.24875e-12
3.9943e-12
-1.25651e-12
4.31617e-08
4.05977e-12
-1.46177e-12
4.32014e-08
-1.57267e-12
4.32176e-08
3.64532e-12
-1.40632e-12
4.30165e-08
-3.08004e-12
3.84045e-12
-1.73064e-12
4.31102e-08
4.01591e-12
-2.05264e-12
4.31613e-08
-2.20717e-12
4.31829e-08
3.2359e-12
4.28942e-08
-1.69315e-12
-2.48157e-12
3.62844e-12
4.30163e-08
-1.99167e-12
3.90607e-12
4.30845e-08
-2.3326e-12
4.31144e-08
-2.63165e-12
2.74648e-12
-6.39978e-14
4.31157e-08
-2.4028e-12
2.92834e-12
-2.34882e-13
4.31841e-08
2.96549e-12
-3.63263e-13
4.32186e-08
-4.60686e-13
4.32324e-08
2.64125e-12
-3.82269e-13
4.30851e-08
-2.25272e-12
2.81458e-12
-5.96973e-13
4.31618e-08
2.87691e-12
-7.60753e-13
4.32018e-08
-8.48511e-13
4.32181e-08
2.52004e-12
-5.93893e-13
4.30163e-08
-2.12222e-12
2.69233e-12
-8.19349e-13
4.31102e-08
2.82024e-12
-1.02677e-12
4.31614e-08
-1.15469e-12
4.31832e-08
2.26098e-12
4.28938e-08
-6.75572e-13
-1.79546e-12
2.53068e-12
4.3016e-08
-9.02127e-13
2.73305e-12
4.30844e-08
-1.15024e-12
4.31145e-08
-1.3532e-12
2.02059e-12
7.04861e-14
4.31156e-08
-1.7382e-12
2.17481e-12
-4.85562e-14
4.31841e-08
2.21818e-12
-1.25954e-13
4.32187e-08
-1.92541e-13
4.32325e-08
1.95928e-12
-5.28242e-14
4.30849e-08
-1.65839e-12
2.10969e-12
-2.05127e-13
4.31618e-08
2.1603e-12
-3.13745e-13
4.32018e-08
-3.74769e-13
4.32183e-08
1.87095e-12
-1.41078e-13
4.30161e-08
-1.5578e-12
2.02494e-12
-2.85169e-13
4.31101e-08
2.11797e-12
-4.31901e-13
4.31614e-08
-5.23782e-13
4.31833e-08
1.71745e-12
4.28935e-08
-1.56124e-13
-1.37436e-12
1.91263e-12
4.30158e-08
-2.8655e-13
2.0515e-12
4.30843e-08
-4.74819e-13
4.31144e-08
-6.17315e-13
1.88352e-12
2.50943e-13
-1.61431e-12
2.0611e-12
1.89286e-13
2.12804e-12
1.52786e-13
1.42904e-13
1.84494e-12
2.43909e-13
-1.57976e-12
2.02681e-12
1.51251e-13
2.10696e-12
8.06192e-14
3.23336e-14
1.78172e-12
2.43747e-13
-1.52556e-12
1.97318e-12
1.39421e-13
2.06987e-12
2.99434e-14
-5.43307e-14
1.69277e-12
2.91027e-13
-1.44299e-12
1.89379e-12
1.57475e-13
2.00554e-12
8.92172e-15
-1.15526e-13
-5.13365e-09
-3.83456e-09
4.56756e-08
-3.17444e-09
4.0363e-09
-1.93284e-09
2.75534e-08
-7.60946e-09
-9.45286e-09
6.40679e-08
8.49933e-10
2.25192e-08
-3.95375e-09
-2.34505e-10
3.27754e-08
-7.11663e-10
7.76442e-10
1.06434e-08
2.35405e-08
5.98263e-11
6.4311e-09
3.18801e-08
3.57585e-09
4.58738e-08
4.59635e-10
8.94104e-09
2.79149e-08
-4.28991e-10
-7.24598e-10
-5.80118e-09
6.47167e-08
-1.43345e-09
4.75099e-09
5.64482e-08
-3.87023e-09
5.07747e-08
-4.07883e-09
5.421e-08
-1.17728e-09
3.16308e-09
3.91892e-08
-5.15374e-09
7.26936e-08
5.11526e-08
2.8895e-09
2.30143e-09
3.4813e-08
-3.95491e-10
-7.21382e-09
1.60712e-09
4.04652e-08
8.8857e-09
3.8853e-09
3.82328e-08
-1.5541e-09
3.9658e-08
7.98646e-10
2.06801e-09
3.26584e-08
-4.48196e-10
-3.27896e-10
2.82841e-09
2.34458e-08
5.33453e-09
6.98014e-09
2.31228e-08
-8.06406e-09
6.02262e-08
1.10486e-10
5.76571e-10
2.72211e-08
2.07471e-09
1.6928e-09
5.49991e-09
6.04629e-08
-1.46197e-10
-2.84046e-09
6.81078e-08
-1.20662e-09
4.2058e-08
1.3172e-09
5.22285e-08
1.08993e-09
-2.243e-09
4.80809e-08
7.47305e-10
6.76033e-08
4.33579e-08
5.59321e-09
7.68118e-09
1.22994e-08
3.11035e-09
3.17573e-09
1.33964e-08
3.27177e-08
1.00267e-08
2.95722e-09
2.76179e-08
-3.72888e-09
6.26422e-08
6.4037e-09
5.18692e-09
2.70527e-08
1.69625e-09
2.31398e-10
-7.45678e-09
5.04713e-08
2.3976e-09
2.74739e-09
2.11665e-08
-1.97367e-10
6.25883e-08
1.54451e-10
1.32856e-10
3.29283e-08
-8.07622e-10
5.40797e-09
1.3457e-09
4.64069e-08
6.15279e-12
-6.1603e-09
8.24174e-08
7.86312e-09
3.56687e-08
2.65912e-10
5.23111e-08
2.46967e-10
2.08276e-09
4.74102e-08
6.02001e-09
5.84899e-08
6.51805e-08
-2.87122e-09
-1.00229e-08
3.65069e-08
-3.9206e-09
2.40924e-09
1.26363e-09
2.43578e-08
-2.92557e-09
-9.00138e-10
3.47748e-08
-2.23832e-09
5.26368e-08
2.26458e-09
-3.52718e-09
2.0109e-08
-1.81655e-09
4.04773e-09
3.27535e-09
4.66764e-08
-2.25088e-09
-1.43983e-09
2.80048e-08
1.00308e-08
3.55806e-08
4.28249e-09
1.02878e-09
2.52394e-08
-1.14955e-09
2.76114e-09
4.83142e-09
4.63722e-08
9.50236e-09
-9.19517e-09
8.34315e-08
-2.35572e-09
5.19865e-08
4.48115e-09
5.04146e-08
-5.40494e-10
-2.1272e-09
5.90501e-08
9.36903e-09
3.81347e-08
7.5136e-08
-1.13005e-08
-1.07427e-08
7.87903e-08
-1.19232e-08
-1.24529e-09
-5.32864e-09
1.77145e-08
-2.18353e-09
1.69526e-09
3.62679e-08
1.43738e-08
2.75424e-08
-2.32709e-09
-8.518e-09
2.49696e-08
-4.75811e-09
3.3176e-09
1.25775e-09
3.44453e-08
7.35989e-09
-2.89204e-09
2.85498e-08
-2.58396e-09
5.83045e-08
2.44205e-09
-1.65798e-09
1.75007e-08
-1.56331e-09
3.94053e-09
2.49324e-09
4.36382e-08
1.56952e-08
-4.18707e-09
7.29718e-08
7.4386e-09
6.47732e-08
4.76227e-09
4.82446e-08
-3.11383e-09
7.25414e-10
6.37072e-08
8.08017e-09
2.64371e-08
9.36061e-08
5.56851e-09
1.37758e-08
4.35811e-08
1.21018e-09
-1.77615e-10
-2.12208e-09
3.16672e-08
1.98249e-09
4.5499e-09
3.56281e-08
2.43813e-09
4.05598e-08
3.05209e-09
5.50957e-09
2.84422e-08
1.74154e-09
5.00337e-09
2.39409e-09
2.79779e-08
3.55678e-11
-3.50891e-09
4.15763e-08
2.17926e-08
5.04593e-08
5.07185e-10
-3.12598e-09
2.63134e-08
-6.84405e-10
2.86324e-09
3.65964e-09
4.00166e-08
9.37586e-09
4.65725e-09
5.82933e-08
-1.71067e-08
1.24878e-07
2.62911e-09
4.37104e-08
-1.3734e-09
1.13172e-09
6.89291e-08
3.67347e-09
2.86535e-08
8.16473e-08
1.2352e-09
5.29079e-10
4.98542e-08
-2.68668e-09
4.49159e-10
6.83577e-10
3.33163e-08
2.80331e-10
-3.43123e-10
3.65386e-08
-3.88432e-09
3.97134e-08
2.74028e-10
-9.38269e-10
3.15195e-08
-1.88785e-09
-1.21428e-09
-1.66357e-09
3.18136e-08
-3.90288e-09
-4.06712e-09
4.79899e-08
-3.03674e-08
6.97488e-08
-6.51477e-10
-3.18487e-09
2.96533e-08
-4.41709e-10
-2.41664e-09
-4.52863e-09
4.46464e-08
-1.87461e-08
5.31143e-09
6.52432e-08
5.14154e-08
6.09822e-09
5.41083e-10
4.03414e-08
-2.57375e-10
2.27403e-09
6.64276e-08
-7.25192e-09
4.22764e-08
1.1719e-07
5.53999e-11
5.96501e-09
4.67628e-08
-1.29114e-10
-1.64358e-09
4.56251e-10
3.64902e-08
-2.25447e-09
6.07821e-11
3.68458e-08
1.05395e-09
3.80717e-08
-1.16796e-09
1.99683e-09
3.8039e-08
-1.38349e-09
-2.44101e-09
-2.88325e-09
3.64257e-08
-1.47107e-09
1.97342e-09
4.51065e-08
1.36717e-08
5.9601e-08
-1.93354e-09
1.08001e-10
3.36677e-08
-1.93982e-10
-1.71187e-09
-4.8865e-09
4.64279e-08
8.53484e-09
-5.16189e-10
5.74859e-08
-3.34718e-08
7.7372e-08
-1.56236e-09
4.17543e-08
2.56286e-10
-4.83555e-10
6.04617e-08
-2.09081e-09
4.33666e-08
8.30169e-08
4.04128e-09
3.58936e-09
3.00438e-08
3.27162e-09
2.83923e-09
-1.28059e-09
3.52775e-08
-5.75222e-10
-4.29224e-09
3.93446e-08
-1.0705e-08
4.23439e-08
2.42713e-09
4.39294e-09
3.32755e-08
1.53453e-09
6.0985e-10
-3.31041e-09
4.02728e-08
-5.27606e-09
-7.96121e-10
4.74957e-08
-7.91004e-09
5.57369e-08
1.08742e-10
4.66952e-10
3.63769e-08
1.10699e-09
-2.96645e-10
-3.95347e-09
4.7477e-08
-4.2566e-09
5.10983e-09
5.55418e-08
-3.9313e-09
6.95741e-08
6.13336e-10
4.07212e-08
8.87473e-10
2.67025e-09
5.44516e-08
-3.23693e-09
5.43834e-08
7.44447e-08
2.10533e-10
1.33462e-10
2.70698e-08
9.93144e-10
1.18432e-10
-1.90894e-09
3.51576e-08
-9.03451e-10
-3.36351e-09
4.06531e-08
-6.14153e-09
4.40677e-08
-3.31058e-10
9.74961e-10
3.20632e-08
7.00476e-10
-8.68706e-10
-1.97985e-09
4.08823e-08
-2.65622e-09
-1.66002e-09
4.7581e-08
-5.60076e-09
5.32599e-08
-9.56692e-10
1.02103e-09
3.66981e-08
5.89915e-10
-1.25274e-09
-1.00218e-09
4.67955e-08
-2.89927e-09
1.59196e-09
5.39363e-08
-1.83627e-09
6.23218e-08
-8.74111e-10
4.21218e-08
4.94786e-10
-6.09155e-10
5.31846e-08
-2.49962e-09
5.78667e-08
6.88006e-08
1.27718e-10
-1.01844e-09
2.59237e-08
4.77794e-10
2.16212e-10
-1.52264e-09
3.50704e-08
-2.62979e-10
-1.9005e-09
4.1336e-08
-2.98407e-09
4.48715e-08
-2.58313e-12
-6.64573e-10
3.1262e-08
4.49703e-10
-7.88095e-11
-1.44029e-09
4.08764e-08
-8.30531e-10
-1.28104e-09
4.77135e-08
-2.85536e-09
5.2274e-08
-1.70483e-10
-6.33639e-10
3.64204e-08
4.17089e-10
-2.2542e-10
-1.19789e-09
4.6608e-08
-1.01785e-09
-2.47038e-10
5.36949e-08
-1.58037e-09
5.95339e-08
-1.44061e-10
4.1285e-08
3.4747e-10
-8.6731e-11
5.19293e-08
-9.15457e-10
5.84484e-08
6.55116e-08
-1.4246e-10
-5.99025e-10
2.57788e-08
2.36807e-10
-1.02541e-10
-8.8517e-10
3.51414e-08
-2.02774e-10
-1.05278e-09
4.16108e-08
-1.51602e-09
4.51013e-08
-2.29337e-10
-4.09423e-10
3.10582e-08
2.43024e-10
-2.26331e-10
-7.60651e-10
4.0749e-08
-4.07226e-10
-7.51698e-10
4.75934e-08
-1.43467e-09
5.16021e-08
-2.98123e-10
-1.27461e-10
3.62045e-08
2.32024e-10
-2.91989e-10
-3.8348e-10
4.62246e-08
-5.1919e-10
-1.5133e-10
5.33218e-08
-7.32202e-10
5.79581e-08
-2.97293e-10
4.12533e-08
2.01491e-10
-2.68603e-10
5.15169e-08
-5.14642e-10
5.8543e-08
6.37801e-08
-7.58794e-11
-3.84383e-10
2.57163e-08
1.21116e-10
-3.8115e-11
-4.95275e-10
3.51693e-08
-6.56942e-11
-5.45373e-10
4.17311e-08
-7.37913e-10
4.51775e-08
-1.10265e-10
-3.06614e-10
3.09599e-08
1.30319e-10
-9.16292e-11
-4.38198e-10
4.06733e-08
-1.40795e-10
-4.34513e-10
4.75316e-08
-7.19441e-10
5.12879e-08
-1.37618e-10
-1.87664e-10
3.60949e-08
1.28101e-10
-1.2235e-10
-2.759e-10
4.60469e-08
-1.89119e-10
-1.83793e-10
5.31377e-08
-4.2586e-10
5.72477e-08
-1.34378e-10
4.10875e-08
1.12516e-10
-1.1978e-10
5.12263e-08
-1.94983e-10
5.84344e-08
6.28781e-08
-4.73753e-11
-2.02094e-10
2.56989e-08
6.16035e-11
-2.08796e-11
-2.55915e-10
3.5178e-08
-1.90719e-11
-2.7345e-10
4.17733e-08
-3.58372e-10
4.51918e-08
-6.50112e-11
-1.63324e-10
3.09194e-08
6.64025e-11
-4.42798e-11
-2.2725e-10
4.06241e-08
-4.30435e-11
-2.29914e-10
4.74868e-08
-3.51988e-10
5.11326e-08
-7.91347e-11
-9.0497e-11
3.60353e-08
6.58516e-11
-5.96257e-11
-1.38885e-10
4.59389e-08
-6.67797e-11
-1.15923e-10
5.30308e-08
-2.21576e-10
5.6913e-08
-7.83268e-11
4.10171e-08
5.82113e-11
-6.17589e-11
5.10708e-08
-7.14626e-11
5.83281e-08
6.24243e-08
-2.48612e-11
-1.06685e-10
2.56918e-08
3.13193e-11
-7.18046e-12
-1.31872e-10
3.51788e-08
1.28025e-12
-1.39912e-10
4.17869e-08
-1.75368e-10
4.51904e-08
-3.21208e-11
-8.84978e-11
3.08994e-08
3.35301e-11
-1.59461e-11
-1.18618e-10
4.05947e-08
-9.39973e-12
-1.20023e-10
4.74602e-08
-1.72963e-10
5.10542e-08
-3.90907e-11
-5.17484e-11
3.60037e-08
3.38614e-11
-2.45147e-11
-7.35978e-11
4.5879e-08
-1.91217e-11
-6.53706e-11
5.29706e-08
-1.11494e-10
5.67513e-08
-3.76451e-11
4.0974e-08
2.89475e-11
-2.5694e-11
5.0985e-08
-1.92233e-11
5.82562e-08
6.22015e-08
-1.12214e-11
-5.60944e-11
2.56877e-08
1.52594e-11
-4.21317e-13
-6.77054e-11
3.51771e-08
8.07701e-12
-7.2699e-11
4.17897e-08
-8.69416e-11
4.51868e-08
-1.47869e-11
-4.65186e-11
3.08888e-08
1.54028e-11
-4.16333e-12
-6.11535e-11
4.05774e-08
3.23946e-12
-6.36316e-11
4.74436e-08
-8.55956e-11
5.10151e-08
-1.79725e-11
-2.7247e-11
3.59864e-08
1.58761e-11
-7.71518e-12
-3.82569e-11
4.58455e-08
-1.3328e-12
-3.6359e-11
5.29367e-08
-5.60466e-11
5.66725e-08
-1.66818e-11
4.09503e-08
1.3009e-11
-7.50411e-12
5.09374e-08
-7.75646e-13
5.8213e-08
6.20909e-08
-4.3237e-12
-2.94225e-11
2.56852e-08
7.2928e-12
2.61414e-12
-3.49779e-11
3.5175e-08
8.9785e-12
-3.80818e-11
4.17891e-08
-4.37686e-11
4.5184e-08
-5.77005e-12
-2.45538e-11
3.08825e-08
6.64314e-12
7.44558e-13
-3.15812e-11
4.05674e-08
6.87046e-12
-3.39352e-11
4.74331e-08
-4.28335e-11
5.09955e-08
-7.3149e-12
-1.45698e-11
3.59765e-08
7.03385e-12
-8.79069e-13
-1.99285e-11
4.58269e-08
4.71608e-12
-2.00443e-11
5.29169e-08
-2.83165e-11
5.66339e-08
-6.09679e-12
4.09367e-08
4.98342e-12
-1.0486e-13
5.09112e-08
5.62879e-12
5.81871e-08
6.20362e-08
-1.02223e-12
-1.5365e-11
2.56833e-08
3.0328e-12
3.35315e-12
-1.82963e-11
3.51731e-08
7.79296e-12
-2.00961e-11
4.17877e-08
-2.24242e-11
4.5182e-08
-1.55555e-12
-1.29394e-11
3.08788e-08
2.4171e-12
2.47872e-12
-1.64353e-11
4.05614e-08
6.86004e-12
-1.81156e-11
4.74264e-08
-2.17274e-11
5.09854e-08
-2.26235e-12
-7.64053e-12
3.59707e-08
2.57412e-12
1.63798e-12
-1.03986e-11
4.58166e-08
5.86959e-12
-1.09785e-11
5.29052e-08
-1.43745e-11
5.66146e-08
-1.29733e-12
4.09287e-08
1.48086e-12
2.46826e-12
5.08968e-08
6.7537e-12
5.81716e-08
6.20088e-08
4.7638e-13
-8.14515e-12
2.5682e-08
9.05062e-13
3.25979e-12
-9.55195e-12
3.51716e-08
6.08531e-12
-1.04421e-11
4.17864e-08
-1.16001e-11
4.51807e-08
2.56454e-13
-6.89204e-12
3.08764e-08
4.19735e-13
2.7796e-12
-8.58646e-12
4.05578e-08
5.70606e-12
-9.62475e-12
4.74224e-08
-1.11665e-11
5.09801e-08
-4.29609e-14
-4.06193e-12
3.59671e-08
5.68083e-13
2.3376e-12
-5.48197e-12
4.58106e-08
5.23876e-12
-5.98081e-12
5.28983e-08
-7.38653e-12
5.66047e-08
7.31222e-13
4.0924e-08
-1.72866e-13
3.05849e-12
5.08887e-08
5.97067e-12
5.81624e-08
6.1995e-08
9.64868e-13
-4.24953e-12
2.56811e-08
-3.86613e-14
2.71494e-12
-4.96338e-12
3.51705e-08
4.51813e-12
-5.54062e-12
4.17855e-08
-6.04031e-12
4.51799e-08
8.99854e-13
-3.68316e-12
3.08749e-08
-4.38387e-13
2.48974e-12
-4.49976e-12
4.05556e-08
4.30902e-12
-5.138e-12
4.74199e-08
-5.79198e-12
5.09773e-08
7.96279e-13
-2.19568e-12
3.59649e-08
-3.24816e-13
2.24495e-12
-2.94334e-12
4.58072e-08
4.11034e-12
-3.28061e-12
5.28942e-08
-3.83259e-12
5.65996e-08
1.37687e-12
4.09211e-08
-8.00045e-13
2.81143e-12
5.0884e-08
4.67128e-12
5.81571e-08
6.19879e-08
1.00674e-12
-2.17478e-12
2.56805e-08
-4.20067e-13
2.10933e-12
-2.54352e-12
3.51698e-08
3.23441e-12
-2.8505e-12
4.17849e-08
-3.1513e-12
4.51794e-08
1.00087e-12
-1.97086e-12
3.08738e-08
-7.02075e-13
1.99181e-12
-2.34542e-12
4.05542e-08
3.11382e-12
-2.72051e-12
4.74184e-08
-3.01853e-12
5.09758e-08
9.79725e-13
-1.18598e-12
3.59636e-08
-6.20916e-13
1.8624e-12
-1.59574e-12
4.58051e-08
3.02349e-12
-1.80043e-12
5.28918e-08
-2.00078e-12
5.6597e-08
1.40449e-12
4.09193e-08
-9.24468e-13
2.28453e-12
5.08813e-08
3.42892e-12
5.8154e-08
6.19843e-08
9.21363e-13
-1.04287e-12
2.56801e-08
-5.30962e-13
1.61901e-12
-1.24939e-12
3.51693e-08
2.313e-12
-1.43958e-12
4.17844e-08
-1.61028e-12
4.51791e-08
9.24168e-13
-1.0221e-12
3.08732e-08
-7.0724e-13
1.54846e-12
-1.18008e-12
4.05534e-08
2.22376e-12
-1.3966e-12
4.74175e-08
-1.54737e-12
5.0975e-08
9.28626e-13
-6.28524e-13
3.59627e-08
-6.54595e-13
1.47248e-12
-8.25199e-13
4.58039e-08
2.17272e-12
-9.36101e-13
5.28905e-08
-1.02626e-12
5.65956e-08
1.20606e-12
4.09182e-08
-8.36795e-13
1.75486e-12
5.08798e-08
2.44706e-12
5.81523e-08
6.19824e-08
8.91083e-13
-4.21801e-13
2.56798e-08
-5.59961e-13
1.36466e-12
-5.25459e-13
3.5169e-08
1.792e-12
-6.45967e-13
4.17842e-08
-7.58115e-13
4.51789e-08
8.82054e-13
-4.69998e-13
3.08728e-08
-6.64626e-13
1.30842e-12
-5.3732e-13
4.05529e-08
1.72008e-12
-6.53685e-13
4.7417e-08
-7.27125e-13
5.09746e-08
8.83133e-13
-3.14488e-13
3.59622e-08
-6.24671e-13
1.25181e-12
-4.00493e-13
4.58032e-08
1.67832e-12
-4.58252e-13
5.28898e-08
-5.0371e-13
5.65949e-08
1.02851e-12
4.09175e-08
-7.1788e-13
1.40035e-12
5.08789e-08
1.82116e-12
5.81514e-08
6.19815e-08
1.10308e-12
1.07315e-14
-6.77545e-13
1.52284e-12
-6.29919e-14
1.83846e-12
-1.48761e-13
-2.08981e-13
1.06594e-12
-1.03455e-13
-7.35158e-13
1.45244e-12
-1.44476e-13
1.75988e-12
-2.01993e-13
-2.27933e-13
1.02771e-12
-9.1067e-14
-7.06611e-13
1.3837e-12
-1.22768e-13
1.69486e-12
-1.50467e-13
-1.63146e-13
1.04576e-12
-7.29099e-13
1.39039e-12
1.69678e-12
6.4519e-09
3.35193e-09
5.89472e-08
-8.21982e-09
4.12631e-09
7.01794e-08
6.86132e-09
4.6836e-09
2.28226e-08
7.00311e-09
3.5679e-08
-1.45851e-09
8.93137e-09
5.25783e-08
-3.19742e-09
9.77663e-09
4.96082e-08
4.25543e-09
4.28842e-09
4.04181e-08
9.55383e-09
4.00156e-08
-1.7007e-08
-5.16419e-09
8.35088e-08
-1.02176e-08
-1.58164e-09
5.048e-08
4.54684e-09
2.63461e-09
2.58667e-08
-1.7719e-09
5.90505e-08
-1.02428e-09
3.5822e-08
3.1079e-09
3.03523e-08
-3.58787e-09
3.97234e-08
1.78321e-08
-1.45071e-09
5.43334e-10
6.18014e-08
-1.10844e-09
9.50374e-10
7.46772e-08
-9.13099e-10
9.22047e-11
3.10693e-08
-2.03431e-09
3.72271e-08
-4.27578e-09
3.03339e-09
5.45087e-08
-4.87821e-09
-9.87716e-10
5.21488e-08
-7.47429e-09
-4.87027e-10
4.35934e-08
2.46128e-09
2.50942e-08
-1.74954e-08
-3.75414e-09
1.06937e-07
-3.80614e-09
1.77791e-09
3.40251e-08
-8.8862e-09
-1.40038e-09
3.18601e-08
3.69814e-09
4.61723e-08
4.89283e-09
2.85575e-08
-9.11372e-09
4.82115e-08
4.86774e-10
2.82743e-08
1.8982e-08
-7.38151e-09
-1.01581e-08
8.32124e-08
-3.1171e-09
-2.3947e-09
8.70922e-08
-1.18209e-09
-3.00692e-09
3.90138e-08
-7.15965e-09
5.41078e-08
1.7622e-08
4.66153e-09
2.33888e-08
-1.57414e-09
-1.02676e-09
6.99769e-08
-2.02527e-09
5.73768e-10
4.04638e-08
-4.58215e-10
1.49342e-08
1.51804e-08
4.07755e-09
9.35602e-08
-6.25443e-09
-3.39537e-09
5.78285e-08
-4.65023e-09
-2.67505e-09
3.35048e-08
-3.23298e-09
4.79377e-08
-5.20025e-09
3.76691e-08
2.17129e-09
3.66369e-08
-6.95858e-09
3.64254e-08
1.82574e-08
-1.00366e-08
-6.15091e-10
9.00621e-08
1.42401e-09
2.04063e-10
6.9384e-08
2.95864e-10
2.14267e-10
3.38403e-08
2.81914e-10
5.5285e-08
-7.58165e-09
-8.51989e-09
3.92624e-08
2.27706e-09
-2.35314e-09
6.26754e-08
1.85062e-10
-6.35036e-09
4.91204e-08
-4.246e-09
2.36913e-08
2.0336e-08
6.60818e-09
6.02026e-08
1.31757e-08
5.85162e-10
6.20505e-08
1.88299e-08
2.84496e-09
1.86552e-08
2.09604e-09
5.85924e-08
-4.3696e-09
4.88994e-08
9.20819e-10
3.07821e-08
4.48927e-09
3.38854e-08
2.1559e-08
1.10826e-08
-4.96035e-10
7.71844e-08
-4.4832e-09
-6.45869e-09
9.18898e-08
1.00877e-09
-1.61598e-09
2.59472e-08
-3.54487e-09
5.59275e-08
-3.35772e-09
-6.12653e-09
4.86913e-08
1.67798e-10
-3.37838e-09
5.60695e-08
-2.97493e-10
9.31357e-10
4.70384e-08
-1.26674e-09
2.10262e-08
1.00095e-08
-1.79959e-10
4.48082e-08
6.16918e-09
-1.50541e-09
6.40179e-08
-2.33632e-09
-8.83169e-10
2.89752e-08
5.16855e-09
4.41355e-08
5.42361e-09
4.11e-08
9.10162e-09