/*--------------------------------*- C++ -*----------------------------------*\
| =========                 |                                                 |
| \\      /  F ield         | OpenFOAM: The Open Source CFD Toolbox           |
|  \\    /   O peration     | Version:  2506                                  |
|   \\  /    A nd           | Website:  www.openfoam.com                      |
|    \\/     M anipulation  |                                                 |
\*---------------------------------------------------------------------------*/
FoamFile
{
    version     2.0;
    format      ascii;
    arch        "LSB;label=32;scalar=64";
    class       volScalarField;
    location    "0.07";
    object      voidfraction;
}
// * * * * * * * * * * * * * * * * * * * * * * * * * * * * * * * * * * * * * //

dimensions      [0 0 0 0 0 0 0];

internalField   nonuniform List<scalar> 
1152
(
0.42593
0.381163
0.407496
0.357463
0.478597
0.428563
0.415396
0.339029
0.423296
0.45753
0.44963
0.525997
0.444363
0.43383
0.444363
0.44963
0.415396
0.420663
0.42593
0.320596
0.407496
0.439097
0.423296
0.436463
0.431196
0.41013
0.360096
0.431196
0.428563
0.44963
0.41803
0.39433
0.47333
0.333763
0.407496
0.48123
0.475963
0.41803
0.383796
0.475963
0.365363
0.412763
0.46543
0.40223
0.478597
0.373263
0.407496
0.352196
0.399596
0.391696
0.370629
0.44963
0.41013
0.41013
0.333763
0.420663
0.333763
0.389063
0.375896
0.423296
0.381163
0.375896
0.39433
0.357463
0.352196
0.375896
0.41013
0.44963
0.404863
0.389063
0.39433
0.365363
0.365363
0.381163
0.383796
0.468063
0.436463
0.407496
0.436463
0.315329
0.478597
0.399596
0.383796
0.310062
0.399596
0.428563
0.370629
0.42593
0.407496
0.41013
0.470697
0.389063
0.499664
0.454897
0.41013
0.325862
0.618164
0.599731
0.599731
0.615531
0.697165
0.583931
0.533897
0.547064
0.689265
0.626064
0.541797
0.602364
0.705065
0.597097
0.533897
0.591831
1
1
1
1
1
1
1
1
1
1
1
1
1
1
1
1
1
1
1
1
1
1
1
1
1
1
1
1
1
1
1
1
1
1
1
1
1
1
1
1
1
1
1
1
1
1
1
1
1
1
1
1
1
1
1
1
1
1
1
1
1
1
1
1
1
1
1
1
1
1
1
1
1
1
1
1
1
1
1
1
1
1
1
1
1
1
1
1
1
1
1
1
1
1
1
1
1
1
1
1
1
1
1
1
1
1
1
1
1
1
1
1
1
1
1
1
1
1
1
1
1
1
1
1
1
1
1
1
1
1
1
1
1
1
1
1
1
1
1
1
1
1
1
1
1
1
1
1
1
1
1
1
1
1
1
1
1
1
1
1
1
1
1
1
1
1
1
1
1
1
1
1
1
1
1
1
1
1
1
1
1
1
1
1
1
1
1
1
1
1
1
1
1
1
1
1
1
1
1
1
1
1
1
1
1
1
1
1
1
1
1
1
1
1
1
1
1
1
1
1
1
1
1
1
1
1
1
1
1
1
1
1
1
1
1
1
1
1
1
1
1
1
1
1
1
1
1
1
1
1
1
1
1
1
1
1
1
1
1
1
1
1
1
1
1
1
1
1
1
1
1
1
0.496182
0.422277
0.534414
0.406111
0.455987
0.421093
0.442066
0.434
0.427599
0.461609
0.452394
0.459973
0.506302
0.436883
0.483552
0.445203
0.496182
0.444744
0.426138
0.361005
0.463241
0.349076
0.380338
0.391992
0.415223
0.481099
0.439708
0.414476
0.457741
0.436883
0.447343
0.400461
0.369133
0.415858
0.396362
0.46124
0.401586
0.404474
0.375589
0.478219
0.412129
0.400705
0.441822
0.384804
0.430763
0.423838
0.432097
0.396882
0.351609
0.390182
0.358465
0.443699
0.401586
0.470951
0.377963
0.383149
0.427599
0.437248
0.469308
0.382826
0.455043
0.38905
0.424475
0.432675
0.474277
0.380553
0.428845
0.401099
0.350811
0.379545
0.389834
0.378727
0.353342
0.425067
0.450279
0.422388
0.436159
0.478192
0.348246
0.40404
0.347228
0.374134
0.393655
0.371029
0.448733
0.418323
0.396957
0.469375
0.378095
0.427503
0.435479
0.327438
0.438857
0.406444
0.380643
0.493524
0.710852
0.672624
0.629155
0.70932
0.640951
0.631605
0.726969
0.64625
0.67203
0.6833
0.670168
0.788341
0.66817
0.747793
0.708426
0.833561
1
1
1
1
1
1
1
1
1
1
1
1
1
1
1
1
1
1
1
1
1
1
1
1
1
1
1
1
1
1
1
1
1
1
1
1
1
1
1
1
1
1
1
1
1
1
1
1
1
1
1
1
1
1
1
1
1
1
1
1
1
1
1
1
1
1
1
1
1
1
1
1
1
1
1
1
1
1
1
1
1
1
1
1
1
1
1
1
1
1
1
1
1
1
1
1
1
1
1
1
1
1
1
1
1
1
1
1
1
1
1
1
1
1
1
1
1
1
1
1
1
1
1
1
1
1
1
1
1
1
1
1
1
1
1
1
1
1
1
1
1
1
1
1
1
1
1
1
1
1
1
1
1
1
1
1
1
1
1
1
1
1
1
1
1
1
1
1
1
1
1
1
1
1
1
1
1
1
1
1
1
1
1
1
1
1
1
1
1
1
1
1
1
1
1
1
1
1
1
1
1
1
1
1
1
1
1
1
1
1
1
1
1
1
1
1
1
1
1
1
1
1
1
1
1
1
1
1
1
1
1
1
1
1
1
1
1
1
1
1
1
1
1
1
1
1
1
1
1
1
1
1
1
1
1
1
1
1
1
1
1
1
1
1
1
1
1
1
1
1
1
1
0.45773
0.456016
0.378727
0.458734
0.416852
0.437593
0.401705
0.472155
0.491238
0.468918
0.432173
0.524984
0.44695
0.387377
0.499508
0.421705
0.375406
0.380848
0.341141
0.358499
0.4664
0.391079
0.43257
0.41531
0.493412
0.415322
0.407244
0.47684
0.42267
0.464728
0.405212
0.430467
0.454151
0.465907
0.425157
0.446204
0.384455
0.460851
0.401705
0.366586
0.49776
0.369035
0.396164
0.342038
0.406483
0.436882
0.44148
0.3998
0.452361
0.442169
0.398625
0.441193
0.367303
0.441822
0.408828
0.355758
0.449928
0.444556
0.365696
0.47684
0.455043
0.424505
0.426973
0.404181
0.438044
0.396673
0.365461
0.408616
0.411135
0.418565
0.423073
0.385534
0.397747
0.427503
0.354616
0.419068
0.444252
0.405941
0.405212
0.412943
0.441623
0.491623
0.378727
0.446204
0.424475
0.437593
0.404079
0.361172
0.406444
0.459173
0.429403
0.444744
0.392994
0.34406
0.383452
0.369133
0.751236
0.855597
0.798805
0.794519
0.756069
0.663825
0.703227
0.648103
0.686915
0.675991
0.681463
0.666205
0.622307
0.622525
0.677219
0.745901
1
1
1
1
1
1
1
1
1
1
1
1
1
1
1
1
1
1
1
1
1
1
1
1
1
1
1
1
1
1
1
1
1
1
1
1
1
1
1
1
1
1
1
1
1
1
1
1
1
1
1
1
1
1
1
1
1
1
1
1
1
1
1
1
1
1
1
1
1
1
1
1
1
1
1
1
1
1
1
1
1
1
1
1
1
1
1
1
1
1
1
1
1
1
1
1
1
1
1
1
1
1
1
1
1
1
1
1
1
1
1
1
1
1
1
1
1
1
1
1
1
1
1
1
1
1
1
1
1
1
1
1
1
1
1
1
1
1
1
1
1
1
1
1
1
1
1
1
1
1
1
1
1
1
1
1
1
1
1
1
1
1
1
1
1
1
1
1
1
1
1
1
1
1
1
1
1
1
1
1
1
1
1
1
1
1
1
1
1
1
1
1
1
1
1
1
1
1
1
1
1
1
1
1
1
1
1
1
1
1
1
1
1
1
1
1
1
1
1
1
1
1
1
1
1
1
1
1
1
1
1
1
1
1
1
1
1
1
1
1
1
1
1
1
1
1
1
1
1
1
1
1
1
1
1
1
1
1
1
1
1
1
1
1
1
1
1
1
1
1
1
1
)
;

boundaryField
{
    inlet
    {
        type            fixedValue;
        value           uniform 1;
    }
    outlet
    {
        type            fixedValue;
        value           uniform 1;
    }
    wall
    {
        type            zeroGradient;
    }
    procBoundary2to0
    {
        type            processor;
        value           nonuniform List<scalar> 
192
(
0.41013
0.568131
0.475963
0.42593
0.42593
0.391696
0.41803
0.365363
0.381163
0.48913
0.352196
0.373263
0.38643
0.486497
0.431196
0.494397
0.44963
0.341663
0.331129
0.367996
0.462797
0.431196
0.41013
0.352196
0.718232
0.599731
0.557597
0.581297
1
1
1
1
1
1
1
1
1
1
1
1
1
1
1
1
1
1
1
1
1
1
1
1
1
1
1
1
1
1
1
1
1
1
1
1
1
1
1
1
1
1
1
1
1
1
1
1
1
1
1
1
1
1
1
1
1
1
1
1
1
1
1
1
1
1
1
1
0.418358
0.410519
0.476008
0.466251
0.398671
0.45206
0.473797
0.428663
0.386144
0.416454
0.325664
0.426158
0.40762
0.355132
0.365461
0.416134
0.416568
0.38876
0.414102
0.378546
0.434465
0.414476
0.453899
0.46124
0.668911
0.756691
0.83418
0.734379
1
1
1
1
1
1
1
1
1
1
1
1
1
1
1
1
1
1
1
1
1
1
1
1
1
1
1
1
1
1
1
1
1
1
1
1
1
1
1
1
1
1
1
1
1
1
1
1
1
1
1
1
1
1
1
1
1
1
1
1
1
1
1
1
1
1
1
1
)
;
    }
    procBoundary2to3
    {
        type            processor;
        value           nonuniform List<scalar> 
192
(
0.570764
0.547064
0.341663
0.44963
0.51283
0.475963
0.349563
0.444363
0.354829
0.323229
0.428563
0.39433
0.267929
0.439097
0.381163
0.436463
0.331129
0.357463
0.38643
0.42593
0.48913
0.483863
0.352196
0.460163
0.486497
0.583931
0.589197
0.47333
1
1
1
1
1
1
1
1
1
1
1
1
1
1
1
1
1
1
1
1
1
1
1
1
1
1
1
1
1
1
1
1
1
1
1
1
1
1
1
1
1
1
1
1
1
1
1
1
1
1
1
1
1
1
1
1
1
1
1
1
1
1
1
1
1
1
1
1
0.463745
0.403047
0.489644
0.382564
0.428663
0.429578
0.422388
0.497103
0.358499
0.365461
0.396673
0.387933
0.378546
0.378727
0.426344
0.400461
0.411122
0.469375
0.343263
0.368247
0.501333
0.361039
0.418432
0.402251
0.53391
0.717
0.71515
0.774502
1
1
1
1
1
1
1
1
1
1
1
1
1
1
1
1
1
1
1
1
1
1
1
1
1
1
1
1
1
1
1
1
1
1
1
1
1
1
1
1
1
1
1
1
1
1
1
1
1
1
1
1
1
1
1
1
1
1
1
1
1
1
1
1
1
1
1
1
)
;
    }
}


// ************************************************************************* //
