/*--------------------------------*- C++ -*----------------------------------*\
| =========                 |                                                 |
| \\      /  F ield         | OpenFOAM: The Open Source CFD Toolbox           |
|  \\    /   O peration     | Version:  2506                                  |
|   \\  /    A nd           | Website:  www.openfoam.com                      |
|    \\/     M anipulation  |                                                 |
\*---------------------------------------------------------------------------*/
FoamFile
{
    version     2.0;
    format      ascii;
    arch        "LSB;label=32;scalar=64";
    class       surfaceScalarField;
    location    "0.09";
    object      phi;
}
// * * * * * * * * * * * * * * * * * * * * * * * * * * * * * * * * * * * * * //

dimensions      [0 3 -1 0 0 0 0];

oriented        oriented;

internalField   nonuniform List<scalar> 
3120
(
9.19938e-09
3.6608e-10
4.59707e-08
2.09227e-09
-9.79262e-09
-6.52586e-09
8.73621e-08
-7.0934e-09
1.51657e-09
1.46837e-10
4.38008e-08
-1.75318e-10
-8.39397e-10
4.92622e-08
3.12629e-09
4.33363e-09
5.43573e-10
-4.9063e-09
6.27472e-08
-9.64874e-10
-3.23878e-09
5.20117e-08
-2.21426e-10
-4.25935e-10
5.30636e-08
2.14864e-09
4.58317e-08
1.03625e-09
7.89214e-10
2.44383e-09
4.85488e-08
1.96236e-09
-4.61252e-10
4.94217e-08
1.45157e-09
1.12126e-09
5.18467e-08
-5.00895e-10
6.16935e-08
-4.57114e-09
-2.58816e-09
5.58752e-08
1.22117e-09
4.29651e-08
1.61347e-09
4.20455e-08
5.20066e-08
4.04634e-09
3.21385e-10
-9.87788e-10
3.97684e-08
2.76501e-09
7.29454e-09
8.09323e-09
6.58567e-08
6.43904e-09
4.78268e-09
1.25252e-09
4.16648e-08
3.39535e-09
1.15562e-09
4.8238e-08
1.01421e-09
3.63708e-09
8.49145e-09
3.20347e-09
4.83478e-08
1.74904e-09
2.4665e-09
6.43808e-08
4.844e-09
4.07759e-09
4.71436e-08
-1.70453e-09
5.06501e-08
2.88578e-09
4.94801e-09
1.3707e-09
4.40993e-08
6.15262e-09
1.44504e-09
4.92386e-08
2.48501e-10
1.54343e-09
6.0285e-08
5.59058e-09
5.0252e-08
4.39489e-09
7.70378e-09
5.00488e-08
9.35036e-09
4.5421e-08
2.26098e-09
6.01864e-08
5.60404e-08
6.26897e-11
-6.56963e-09
2.33552e-09
4.92118e-08
-8.42852e-09
3.89636e-09
6.5652e-09
4.70455e-08
1.77995e-09
-1.33502e-09
2.21573e-09
4.57033e-08
-1.02292e-09
2.89007e-09
4.96113e-08
-2.49239e-09
-3.10603e-09
-1.31917e-09
1.29719e-09
5.26161e-08
4.4572e-09
3.44423e-09
6.17254e-08
-2.45934e-10
-3.662e-09
5.77245e-08
1.08752e-09
4.99287e-08
2.27805e-09
1.07303e-09
1.68974e-10
4.61828e-08
-1.65864e-09
6.11857e-10
5.48026e-08
3.25006e-09
3.69108e-09
4.80232e-08
1.31744e-09
4.79987e-08
5.27346e-09
1.40855e-09
5.96436e-08
-1.8369e-10
5.33365e-08
-1.4199e-09
6.63812e-08
4.67431e-08
9.52407e-10
-7.43356e-10
2.14174e-09
4.36672e-08
1.79888e-10
2.18001e-09
4.3494e-10
4.05321e-08
3.15511e-09
9.9464e-10
2.31584e-09
4.73675e-08
-2.7946e-09
6.21776e-09
4.75807e-08
-3.31005e-09
1.17537e-10
-4.03424e-09
4.86233e-09
4.48891e-08
5.51966e-09
4.08427e-09
4.85222e-08
4.48731e-09
3.89946e-10
6.06827e-08
1.14416e-09
6.38283e-08
-4.3388e-09
-2.26751e-09
9.51736e-11
5.71796e-08
4.70273e-10
9.11074e-09
4.70384e-08
3.043e-09
3.79811e-10
4.54606e-08
5.55177e-09
4.98602e-08
-3.22616e-09
6.64205e-09
5.37989e-08
-1.01843e-08
8.33264e-08
8.8026e-09
4.61897e-08
8.16903e-08
-7.41828e-09
9.99779e-10
-1.0175e-09
4.27339e-08
3.98263e-09
-3.25988e-09
-5.77194e-09
5.48888e-08
-4.32513e-09
1.4085e-09
-1.55181e-09
4.50824e-08
-8.31521e-10
2.57385e-09
4.56338e-08
-3.11411e-09
3.89564e-09
-2.38121e-09
-4.22067e-10
4.6677e-08
8.88325e-10
5.3434e-09
3.41373e-08
6.48403e-09
4.01267e-09
4.95225e-08
-1.30038e-09
6.04892e-08
1.36974e-08
3.31314e-09
-1.41662e-10
5.05571e-08
-1.89747e-09
-2.74875e-09
6.03411e-08
-9.89392e-10
-2.57082e-10
4.88223e-08
1.93364e-09
4.62972e-08
-6.60381e-10
2.16238e-09
3.46327e-08
-1.12917e-09
6.9835e-08
1.95397e-09
3.73618e-08
8.91231e-08
9.90172e-10
-7.43682e-09
-1.18289e-08
7.02742e-08
-9.9931e-10
1.67288e-09
-4.44357e-09
4.58187e-08
4.40403e-09
3.29776e-09
-6.551e-09
4.23428e-08
7.66571e-09
-4.81033e-09
5.85394e-08
2.36366e-09
-7.16113e-09
3.47472e-10
-2.27958e-09
4.09237e-08
-1.27273e-09
-4.13065e-09
3.54445e-08
5.13685e-09
-2.94428e-09
3.95062e-08
5.89584e-10
5.38082e-08
6.41788e-09
-1.64657e-09
2.02423e-10
4.70715e-08
-9.07206e-10
-2.53302e-09
5.80041e-08
5.46619e-09
3.00715e-09
3.64975e-08
-1.85624e-10
4.76528e-08
4.88578e-09
-1.61291e-09
2.47556e-08
3.83675e-09
5.28013e-08
3.6131e-09
3.7432e-08
7.82819e-08
3.35463e-09
2.15422e-09
1.71273e-09
6.24066e-08
2.36637e-09
-1.02377e-09
-2.0829e-09
4.73058e-08
3.77372e-09
-6.5636e-09
1.32352e-09
4.77066e-08
-1.14762e-09
1.78893e-10
5.5381e-08
-6.01762e-10
-2.98252e-09
-9.30829e-10
-8.92366e-10
4.44251e-08
4.96227e-10
-3.30539e-09
3.52397e-08
-4.36147e-09
-2.49289e-10
4.59368e-08
1.08477e-09
5.23331e-08
-3.79237e-09
-1.91603e-09
2.36392e-09
4.45087e-08
3.04491e-09
-2.10412e-09
5.18421e-08
-5.71046e-09
-1.78231e-09
4.67855e-08
-1.12926e-09
4.80835e-08
-3.9268e-09
-4.50567e-09
3.96379e-08
3.43397e-09
4.09636e-08
-8.86621e-09
5.22368e-08
6.02309e-08
3.44977e-09
-3.43441e-09
-2.24203e-08
6.00423e-08
1.98466e-08
3.85706e-10
-2.15417e-08
4.37785e-08
2.12496e-08
1.44567e-08
-3.61004e-08
4.45327e-08
2.52043e-08
-1.74953e-08
5.92727e-08
1.46992e-08
1.33622e-08
-7.23724e-09
-1.40037e-08
2.93181e-08
-7.265e-09
2.8186e-09
1.09075e-08
2.8858e-08
-1.97151e-08
-6.57172e-09
-9.32788e-09
5.39179e-08
1.9106e-08
-1.50977e-08
-7.67225e-09
3.51429e-08
-9.38936e-09
1.13198e-08
3.76297e-08
3.38173e-08
7.24373e-09
-2.3381e-08
6.66011e-09
4.22987e-08
2.36128e-08
1.25143e-08
-3.52039e-09
-1.59978e-08
8.18476e-08
1.1362e-08
6.30664e-09
5.27234e-08
1.56242e-08
6.29987e-09
1.45146e-08
5.39362e-08
-9.41472e-09
2.13384e-09
1.02548e-08
4.73562e-08
-9.66617e-09
-7.78246e-09
2.13804e-08
4.61901e-08
-1.31211e-08
6.25862e-09
5.37407e-08
-4.25014e-09
-4.26016e-09
7.20371e-09
5.60761e-09
4.08219e-08
2.33098e-09
-1.03109e-08
3.63472e-08
-2.15752e-08
6.1636e-09
3.25515e-08
1.30494e-09
4.97555e-08
-1.24588e-08
6.46447e-09
1.96915e-09
3.95995e-08
1.09872e-08
-1.84735e-08
4.12723e-08
-2.10294e-08
-1.25756e-08
2.73752e-08
-8.61551e-09
4.59609e-08
-1.47712e-08
-1.14791e-08
3.22007e-08
1.15773e-08
4.39926e-08
-6.40804e-09
3.25549e-08
5.23675e-08
-6.74177e-09
3.3673e-09
8.32767e-09
5.26088e-08
-6.92601e-09
6.64923e-10
6.37705e-09
5.04372e-08
-6.75554e-09
-3.60666e-09
8.04045e-09
4.99723e-08
-7.55148e-09
3.05675e-09
5.27074e-08
-2.94116e-09
-2.68859e-09
2.59946e-09
3.95875e-09
4.75667e-08
-7.29356e-10
-1.87454e-10
4.62396e-08
-8.23565e-09
2.85268e-09
4.52455e-08
3.80358e-10
5.08447e-08
-6.64914e-09
2.27495e-09
5.92847e-11
4.60924e-08
1.74467e-10
-3.43562e-09
4.6621e-08
-9.37222e-09
-3.38456e-09
4.31596e-08
-4.03685e-09
4.96689e-08
-8.66212e-09
-5.99958e-10
4.54487e-08
-1.74084e-09
4.81951e-08
-8.56862e-09
4.52792e-08
5.16665e-08
-6.31662e-09
1.45386e-09
4.04142e-09
5.30057e-08
-3.91263e-09
6.55112e-11
3.41387e-09
5.22539e-08
-3.84185e-09
-1.69748e-09
3.46361e-09
5.21342e-08
-3.86179e-09
1.67178e-09
5.31391e-08
-2.06127e-09
-1.73905e-09
1.05562e-09
1.97017e-09
5.09608e-08
-6.08102e-10
8.66246e-10
5.04514e-08
-3.33959e-09
1.17281e-09
5.02677e-08
9.92723e-11
5.22666e-08
-3.18834e-09
6.34023e-10
-4.58512e-10
5.01456e-08
-7.59823e-10
-1.32663e-09
5.02079e-08
-4.09833e-09
-1.7982e-09
4.94697e-08
-2.01933e-09
5.19002e-08
-4.21089e-09
-2.7514e-10
5.02071e-08
-1.43788e-09
5.09044e-08
-4.19795e-09
5.03307e-08
5.26144e-08
-3.82586e-09
6.72517e-10
2.02118e-09
5.35593e-08
-2.1653e-09
-2.66328e-11
1.7633e-09
5.32693e-08
-2.07849e-09
-7.77942e-10
1.55145e-09
5.32567e-08
-1.92193e-09
7.91906e-10
5.36454e-08
-1.14267e-09
-9.33002e-10
4.53948e-10
1.00232e-09
5.26723e-08
-3.70909e-10
5.7252e-10
5.24683e-08
-1.47921e-09
4.22833e-10
5.25056e-08
-9.58204e-11
5.32446e-08
-1.56835e-09
1.79082e-10
-2.857e-10
5.22684e-08
-5.99537e-10
-6.84557e-10
5.22452e-08
-1.92817e-09
-9.92911e-10
5.22151e-08
-1.16309e-09
5.31359e-08
-2.09569e-09
-2.672e-10
5.23159e-08
-9.17041e-10
5.25126e-08
-2.08366e-09
5.255e-08
5.34638e-08
-2.14408e-09
3.14578e-10
1.01212e-09
5.39545e-08
-1.157e-09
-3.88724e-11
8.66584e-10
5.38325e-08
-1.07591e-09
-3.76461e-10
6.87656e-10
5.38427e-08
-9.35737e-10
3.3324e-10
5.40004e-08
-5.73075e-10
-4.91206e-10
1.73665e-10
4.94938e-10
5.35518e-08
-2.52094e-10
2.90847e-10
5.34704e-08
-7.06991e-10
1.20701e-10
5.35278e-08
-1.5149e-10
5.3819e-08
-7.96186e-10
-1.15053e-11
-1.53961e-10
5.3354e-08
-4.37315e-10
-3.7648e-10
5.33393e-08
-9.61674e-10
-5.59503e-10
5.34204e-08
-7.02567e-10
5.37961e-08
-1.07033e-09
-2.3667e-10
5.33765e-08
-6.24096e-10
5.34391e-08
-1.10014e-09
5.3569e-08
5.39683e-08
-1.16748e-09
1.46076e-10
4.98358e-10
5.41988e-08
-6.01279e-10
-3.45449e-11
4.07617e-10
5.4144e-08
-5.38541e-10
-1.92266e-10
2.89792e-10
5.4153e-08
-4.42462e-10
1.13262e-10
5.42208e-08
-2.63755e-10
-2.62155e-10
5.4611e-11
2.31269e-10
5.40088e-08
-1.61667e-10
1.17644e-10
5.39766e-08
-3.59307e-10
-1.59848e-12
5.40166e-08
-1.50262e-10
5.41415e-08
-4.18427e-10
-5.70189e-11
-1.02538e-10
5.39117e-08
-2.84301e-10
-2.25849e-10
5.39107e-08
-5.02939e-10
-3.40258e-10
5.39779e-08
-4.39552e-10
5.41461e-08
-5.63623e-10
-1.79873e-10
5.39237e-08
-3.98949e-10
5.39578e-08
-5.99346e-10
5.40546e-08
5.42443e-08
-6.38807e-10
6.53695e-11
2.38895e-10
5.43426e-08
-3.05239e-10
-2.74274e-11
1.81714e-10
5.43167e-08
-2.61722e-10
-1.05306e-10
1.09495e-10
5.43222e-08
-2.00927e-10
1.67117e-11
5.43534e-08
-1.08749e-10
-1.46003e-10
7.15699e-12
9.70236e-11
5.42508e-08
-1.02599e-10
2.93968e-11
5.42386e-08
-1.94697e-10
-4.47605e-11
5.42626e-08
-1.27904e-10
5.43211e-08
-2.29881e-10
-6.01761e-11
-7.9163e-11
5.42041e-08
-1.77766e-10
-1.507e-10
5.4209e-08
-2.75922e-10
-2.20071e-10
5.42514e-08
-2.8265e-10
5.4333e-08
-3.08207e-10
-1.31366e-10
5.42125e-08
-2.4693e-10
5.4236e-08
-3.36716e-10
5.42959e-08
5.43924e-08
-3.56697e-10
2.58665e-11
1.08399e-10
5.4426e-08
-1.49714e-10
-2.23274e-11
7.26177e-11
5.44136e-08
-1.21274e-10
-6.25405e-11
2.98974e-11
5.44168e-08
-8.42481e-11
-2.13554e-11
5.44321e-08
-3.40285e-11
-8.60172e-11
-1.04078e-11
3.09056e-11
5.43815e-08
-6.6773e-11
-9.92773e-12
5.43776e-08
-1.1185e-10
-5.43802e-11
5.43918e-08
-1.01463e-10
5.44213e-08
-1.32019e-10
-5.13402e-11
-6.36938e-11
5.43601e-08
-1.11534e-10
-1.06187e-10
5.43661e-08
-1.58023e-10
-1.47765e-10
5.43915e-08
-1.85539e-10
5.44338e-08
-1.74648e-10
-9.36369e-11
5.4367e-08
-1.52895e-10
5.43837e-08
-1.94724e-10
5.44195e-08
5.4471e-08
-2.0366e-10
6.66478e-12
4.37944e-11
5.44747e-08
-6.93565e-11
-1.88944e-11
2.1711e-11
5.44689e-08
-5.13154e-11
-4.03651e-11
-3.92921e-12
5.4471e-08
-2.87506e-11
-3.20835e-11
5.44794e-08
-2.24458e-12
-5.33123e-11
-1.5724e-11
5.03537e-13
5.44535e-08
-4.49661e-11
-2.42598e-11
5.44529e-08
-6.79628e-11
-5.06564e-11
5.44616e-08
-7.73531e-11
5.44775e-08
-7.8991e-11
-4.0537e-11
-5.12311e-11
5.44445e-08
-7.14314e-11
-7.667e-11
5.445e-08
-9.41257e-11
-1.01418e-10
5.44653e-08
-1.23682e-10
5.44884e-08
-1.02307e-10
-6.58741e-11
5.44504e-08
-9.60255e-11
5.44622e-08
-1.15748e-10
5.44837e-08
5.45125e-08
-1.1899e-10
-2.19586e-12
1.29253e-11
5.45033e-08
-2.88654e-11
-1.60258e-11
-6.28632e-13
5.45009e-08
-1.74319e-11
-2.76105e-11
-1.57685e-11
5.45026e-08
-4.11227e-12
-3.15945e-11
5.45076e-08
1.04873e-11
-3.46776e-11
-1.59107e-11
-1.1829e-11
5.44937e-08
-3.13082e-11
-2.67782e-11
5.44945e-08
-4.31987e-11
-4.23489e-11
5.45001e-08
-5.75336e-11
5.45094e-08
-4.90569e-11
-3.08818e-11
-4.06545e-11
5.44908e-08
-4.6859e-11
-5.58647e-11
5.44953e-08
-5.80449e-11
-7.04743e-11
5.45048e-08
-8.33921e-11
5.45181e-08
-6.1799e-11
-4.6035e-11
5.44958e-08
-6.13626e-11
5.45042e-08
-7.0579e-11
5.45174e-08
5.45341e-08
-7.11422e-11
-5.75122e-12
-8.3681e-13
5.45204e-08
-9.13037e-12
-1.32613e-11
-9.0645e-12
5.45197e-08
-2.20717e-12
-1.95359e-11
-1.79929e-11
5.45212e-08
5.70982e-12
-2.69615e-11
5.45245e-08
1.38694e-11
-2.33215e-11
-1.40334e-11
-1.52984e-11
5.45165e-08
-2.22066e-11
-2.42585e-11
5.45179e-08
-2.83733e-11
-3.33915e-11
5.45217e-08
-4.20134e-11
5.45275e-08
-3.13695e-11
-2.29926e-11
-3.16862e-11
5.45165e-08
-3.1293e-11
-4.07081e-11
5.45201e-08
-3.67743e-11
-4.92333e-11
5.45263e-08
-5.66119e-11
5.45344e-08
-3.82891e-11
-3.19797e-11
5.45208e-08
-3.97441e-11
5.45267e-08
-4.39207e-11
5.45351e-08
5.45452e-08
-4.33884e-11
-6.42639e-12
-6.05063e-12
5.45309e-08
-3.53909e-13
-1.05469e-11
-1.10106e-11
5.45311e-08
3.9125e-12
-1.39607e-11
-1.62426e-11
5.45324e-08
8.60234e-12
-2.1309e-11
5.45347e-08
1.31221e-11
-1.59159e-11
-1.13912e-11
-1.46561e-11
5.45298e-08
-1.57464e-11
-1.99713e-11
5.45313e-08
-1.89387e-11
-2.527e-11
5.45341e-08
-3.01167e-11
5.45378e-08
-2.03875e-11
-1.66966e-11
-2.41243e-11
5.4531e-08
-2.09964e-11
-2.93977e-11
5.45339e-08
-2.36352e-11
-3.42915e-11
5.45381e-08
-3.84188e-11
5.45433e-08
-2.40924e-11
-2.19466e-11
5.45347e-08
-2.58379e-11
5.4539e-08
-2.76187e-11
5.45445e-08
5.45509e-08
-2.67832e-11
-5.71289e-12
-7.10799e-12
5.45374e-08
3.00185e-12
-7.98319e-12
-1.00384e-11
5.4538e-08
5.56413e-12
-9.82936e-12
-1.30494e-11
5.45392e-08
8.29212e-12
-1.58748e-11
5.45409e-08
1.07706e-11
-1.07884e-11
-8.62874e-12
-1.22414e-11
5.45378e-08
-1.09477e-11
-1.53393e-11
5.45392e-08
-1.25875e-11
-1.8349e-11
5.45412e-08
-2.10159e-11
5.45438e-08
-1.32297e-11
-1.17132e-11
-1.77187e-11
5.45395e-08
-1.3915e-11
-2.07364e-11
5.45417e-08
-1.51508e-11
-2.34843e-11
5.45447e-08
-2.57256e-11
5.45482e-08
-1.51656e-11
-1.47147e-11
5.45427e-08
-1.66261e-11
5.45458e-08
-1.73012e-11
5.45496e-08
5.45537e-08
-1.65203e-11
-4.47036e-12
-6.1693e-12
5.45415e-08
3.59773e-12
-5.70421e-12
-7.84125e-12
5.45422e-08
5.08783e-12
-6.67336e-12
-9.52044e-12
5.45432e-08
6.6334e-12
-1.10548e-11
5.45446e-08
7.9681e-12
-7.10156e-12
-6.12311e-12
-9.16349e-12
5.45425e-08
-7.33952e-12
-1.09143e-11
5.45437e-08
-8.15792e-12
-1.25659e-11
5.45453e-08
-1.3983e-11
5.45473e-08
-8.39415e-12
-7.86033e-12
-1.22477e-11
5.45444e-08
-8.9577e-12
-1.39271e-11
5.45462e-08
-9.50492e-12
-1.5423e-11
5.45484e-08
-1.65927e-11
5.45508e-08
-9.36888e-12
-9.52767e-12
5.45472e-08
-1.04285e-11
5.45496e-08
-1.06163e-11
5.45523e-08
5.45551e-08
-1.00107e-11
-3.2789e-12
-4.40305e-12
5.45438e-08
2.91515e-12
-3.89893e-12
-5.31062e-12
5.45446e-08
3.74234e-12
-4.35647e-12
-6.20382e-12
5.45454e-08
4.58434e-12
-6.99805e-12
5.45466e-08
5.28816e-12
-4.48798e-12
-4.16907e-12
-6.03897e-12
5.45451e-08
-4.75803e-12
-6.98232e-12
5.45462e-08
-5.11611e-12
-7.84757e-12
5.45475e-08
-8.56687e-12
5.4549e-08
-5.14219e-12
-5.10052e-12
-7.65307e-12
5.45471e-08
-5.59819e-12
-8.54987e-12
5.45486e-08
-5.78883e-12
-9.32896e-12
5.45503e-08
-9.91384e-12
5.45521e-08
-5.60682e-12
-5.98854e-12
5.45497e-08
-6.35997e-12
5.45515e-08
-6.33416e-12
5.45536e-08
5.45557e-08
-5.89119e-12
-2.66855e-12
-2.78552e-12
2.00437e-12
-2.92728e-12
-3.28859e-12
2.47459e-12
-3.07652e-12
-3.76679e-12
2.93664e-12
-4.17257e-12
3.31549e-12
-3.03472e-12
-3.1571e-12
-3.61731e-12
-3.37981e-12
-4.1303e-12
-3.4575e-12
-4.5893e-12
-4.96053e-12
-3.34643e-12
-3.66072e-12
-4.3967e-12
-3.8198e-12
-4.88082e-12
-3.79488e-12
-5.28969e-12
-5.59161e-12
-3.56198e-12
-4.138e-12
-4.21478e-12
-4.06526e-12
-3.68833e-12
3.32493e-09
-1.05584e-09
6.83859e-08
7.33723e-09
3.0043e-09
6.87222e-08
-4.41736e-09
-1.54041e-08
9.2747e-08
8.70025e-09
3.70078e-08
2.46897e-09
3.31222e-09
1.02935e-08
4.41182e-08
-1.2234e-10
-1.31944e-09
7.61002e-08
1.85777e-09
9.06217e-10
4.04052e-08
1.66111e-08
4.03368e-08
-1.1055e-09
1.58463e-09
4.45271e-09
6.75782e-08
1.56979e-09
-9.58163e-10
6.03976e-08
7.10377e-09
-6.04397e-09
5.21173e-08
-1.47713e-08
8.19212e-08
-5.00254e-09
-6.25268e-10
6.87162e-08
-7.09574e-10
4.41146e-08
2.01809e-09
3.50673e-08
2.3086e-08
6.37526e-11
2.89298e-10
5.4601e-09
5.97232e-08
-4.94299e-09
2.21282e-09
7.23193e-08
6.51152e-09
6.489e-09
7.77234e-08
-1.10725e-08
5.53143e-08
-3.16551e-09
-7.15725e-09
-1.04059e-08
7.27345e-08
-5.67212e-09
-4.11544e-09
8.09434e-08
3.36697e-10
3.84351e-09
3.70419e-08
-6.43831e-09
3.63389e-08
-2.99568e-10
1.46514e-09
-6.2639e-09
6.11048e-08
-7.92988e-10
-5.80264e-09
6.43429e-08
-3.58634e-09
-2.51593e-09
6.12701e-08
-3.7961e-10
7.35229e-08
-1.24677e-09
2.50765e-09
5.68756e-08
3.87093e-09
4.33877e-08
2.09324e-09
3.77245e-08
2.51392e-08
6.74739e-10
-3.0162e-10
-2.42599e-09
7.43751e-08
2.38147e-10
-1.86503e-09
7.31637e-08
4.48295e-09
4.66408e-09
6.86073e-08
-1.69307e-08
8.03505e-08
-4.0906e-09
-4.23142e-09
-3.04961e-09
8.04786e-08
2.02685e-09
9.61487e-09
6.32052e-08
-1.00512e-09
-2.88225e-09
4.76202e-08
-1.62272e-08
3.49173e-08
-2.87072e-10
2.39253e-09
-3.70376e-09
6.31585e-08
-5.63554e-09
-2.5104e-09
8.44963e-08
-8.49052e-09
2.15396e-09
5.90889e-08
9.11378e-09
3.73506e-08
2.34082e-09
2.63585e-09
3.90849e-08
5.50501e-10
4.47426e-08
-1.42191e-09
4.08279e-08
3.0607e-08
-2.68397e-10
1.61601e-09
-4.3996e-09
8.56163e-08
3.98246e-10
-3.65833e-09
7.86926e-08
-3.55867e-09
1.9803e-09
7.14924e-08
5.39977e-09
6.81167e-08
5.2647e-09
1.63548e-09
1.01007e-08
6.6459e-08
3.20849e-09
5.84239e-09
5.21315e-08
-1.34957e-09
-9.27544e-09
6.3434e-08
-2.07756e-09
3.89807e-08
2.06433e-09
-3.62894e-09
1.22837e-09
8.24762e-08
-3.05023e-09
4.43647e-09
8.53235e-08
1.48524e-09
-5.5067e-10
4.58286e-08
3.49682e-09
3.10649e-08
2.19657e-09
-6.46534e-10
4.5598e-08
-3.41392e-09
5.51015e-08
2.42342e-09
3.16453e-08
3.16806e-08
1.53662e-09
-1.3581e-09
5.77846e-09
8.12315e-08
-2.32927e-09
-3.82569e-09
8.33401e-08
-2.4659e-09
1.23442e-09
7.01963e-08
7.26319e-09
5.37692e-08
3.04788e-09
-2.81034e-09
2.91731e-09
8.01172e-08
1.08155e-09
-9.968e-10
4.54107e-08
-1.50901e-09
6.99662e-10
6.65593e-08
-3.36507e-10
4.3343e-08
1.72836e-09
-8.15443e-09
1.338e-08
8.41199e-08
2.20045e-09
8.48868e-09
6.54831e-08
-3.86977e-10
4.69777e-09
4.4418e-08
6.39733e-09
2.25109e-08
1.43314e-09
-6.6268e-09
7.64698e-08
8.39844e-10
5.17984e-08
5.19128e-10
3.58322e-08
3.26601e-08
2.82276e-09
-8.05816e-10
3.72094e-09
7.80801e-08
-1.09151e-09
1.06244e-08
7.48982e-08
-5.78127e-09
-4.07368e-09
7.89603e-08
7.69269e-09
4.09114e-08
-8.16651e-10
1.71207e-09
-1.9538e-09
8.09005e-08
-3.87487e-09
2.9618e-09
5.86603e-08
-1.22759e-09
1.51862e-08
4.46521e-08
1.11787e-08
4.01195e-08
-1.49021e-09
4.18832e-09
5.76307e-10
7.45796e-08
1.0369e-09
-6.47507e-09
7.80714e-08
-1.12211e-09
5.56766e-10
6.12064e-08
4.0309e-09
2.97524e-08
-1.2157e-09
-5.87128e-09
7.26896e-08
5.1588e-09
3.86973e-08
-2.79308e-09
5.20066e-08
4.11973e-08
-4.93563e-09
-1.01042e-10
2.66062e-09
7.86447e-08
-2.98147e-10
1.59552e-09
7.19118e-08
2.40677e-09
-7.50366e-10
7.21324e-08
-6.64629e-10
3.88176e-08
1.03664e-09
5.20545e-09
-6.23399e-10
8.18923e-08
1.92297e-09
-6.42473e-09
6.99631e-08
-3.10342e-10
-9.04295e-09
5.5178e-08
3.53699e-10
3.84595e-08
3.3127e-10
1.62085e-09
-4.99624e-09
7.78336e-08
2.31648e-09
-9.45685e-10
7.18967e-08
1.76256e-09
-2.08765e-09
5.4805e-08
-4.21875e-09
3.612e-08
-3.26882e-11
9.88363e-10
6.84924e-08
-4.44142e-09
4.69552e-08
-9.51669e-10
4.52816e-08
3.36094e-08
1.8156e-09
-1.06413e-09
-7.95303e-09
8.50258e-08
-4.47941e-10
-9.49424e-09
8.079e-08
6.77594e-10
-8.04687e-09
7.90538e-08
-7.74805e-09
4.69231e-08
3.20057e-10
-1.18469e-10
-1.12671e-08
8.27484e-08
6.3987e-10
-1.37111e-08
7.34219e-08
3.7066e-10
-1.43603e-08
6.17607e-08
-9.91696e-09
4.09288e-08
7.02655e-11
-1.75855e-09
-1.53268e-08
7.87633e-08
1.74615e-10
-1.6859e-08
7.31119e-08
5.28535e-10
-1.85829e-08
5.86732e-08
-1.19692e-08
3.88597e-08
-1.58409e-10
-4.29357e-09
7.1998e-08
-3.41382e-09
5.04658e-08
-1.68345e-10
4.86583e-08
3.64733e-08
-3.01717e-10
-4.79619e-11
-1.476e-09
8.54503e-08
1.08182e-09
-4.75228e-10
8.01357e-08
3.34141e-09
3.43638e-09
7.33578e-08
-1.09688e-09
5.05381e-08
8.22654e-10
1.86603e-09
2.01496e-10
7.90685e-08
2.05769e-09
1.25545e-09
7.14998e-08
2.85813e-09
3.0893e-09
6.13071e-08
-1.91779e-09
4.42394e-08
3.67381e-10
2.09274e-09
4.00967e-09
7.18702e-08
2.75198e-09
7.7995e-09
6.59087e-08
2.33704e-09
7.38518e-09
5.47918e-08
2.29908e-10
3.86923e-08
3.56136e-10
5.65238e-09
6.27634e-08
2.7736e-09
5.14771e-08
7.62298e-10
4.49328e-08
3.31811e-08
3.46528e-11
8.78727e-10
7.08285e-10
8.37805e-08
1.5651e-09
1.27877e-09
7.81711e-08
2.58277e-09
2.88173e-09
6.94588e-08
9.44112e-11
5.23761e-08
6.50385e-10
1.76023e-09
2.26243e-09
7.6095e-08
1.99375e-09
2.52191e-09
7.00234e-08
2.24828e-09
3.31161e-09
6.06228e-08
4.08002e-10
4.57576e-08
4.16184e-10
2.02648e-09
4.61392e-09
6.78604e-08
2.22861e-09
6.01799e-09
6.22109e-08
1.90523e-09
5.62053e-09
5.28065e-08
1.43139e-09
3.92576e-08
3.16378e-10
3.56752e-09
5.85916e-08
2.13719e-09
5.21705e-08
1.01836e-09
4.41211e-08
3.25472e-08
1.42873e-10
7.6242e-10
8.75148e-10
8.24656e-08
9.59993e-10
1.04455e-09
7.69291e-08
1.27144e-09
1.53371e-09
6.76137e-08
3.92198e-10
5.2838e-08
4.17384e-10
1.07609e-09
1.98857e-09
7.44507e-08
1.07429e-09
2.06465e-09
6.90052e-08
1.1233e-09
2.32264e-09
5.97851e-08
8.76326e-10
4.60717e-08
3.25203e-10
1.26886e-09
3.1601e-09
6.61373e-08
1.12489e-09
3.44244e-09
6.09773e-08
9.07661e-10
3.29333e-09
5.20532e-08
1.5131e-09
3.92842e-08
2.44428e-10
1.75574e-09
5.73998e-08
1.12292e-09
5.24051e-08
5.51715e-10
4.4125e-08
3.23883e-08
1.63659e-10
6.33259e-10
7.31314e-10
8.15127e-08
6.55093e-10
7.50091e-10
7.61574e-08
7.16968e-10
8.54713e-10
6.66974e-08
3.39568e-10
5.29939e-08
2.21727e-10
7.36963e-10
1.42565e-09
7.35423e-08
6.76817e-10
1.40224e-09
6.84135e-08
6.47683e-10
1.41096e-09
5.92584e-08
6.85267e-10
4.61871e-08
1.86899e-10
8.19875e-10
1.97226e-09
6.54166e-08
6.6927e-10
1.95406e-09
6.05763e-08
5.2153e-10
1.81e-09
5.18021e-08
9.92063e-10
3.93555e-08
1.43686e-10
9.39125e-10
5.71367e-08
6.33906e-10
5.25862e-08
3.42732e-10
4.43051e-08
3.24823e-08
9.92913e-11
4.49339e-10
4.88903e-10
8.0925e-08
4.10867e-10
4.60968e-10
7.5735e-08
3.71129e-10
4.53549e-10
6.62839e-08
2.03562e-10
5.30651e-08
9.67099e-11
4.78545e-10
8.86078e-10
7.30654e-08
4.05579e-10
8.24329e-10
6.81233e-08
3.35452e-10
7.58336e-10
5.9024e-08
3.9233e-10
4.62503e-08
8.35653e-11
4.96215e-10
1.1352e-09
6.5124e-08
3.79769e-10
1.06158e-09
6.04557e-08
2.66624e-10
9.29725e-10
5.17439e-08
5.31191e-10
3.94208e-08
6.26606e-11
5.05022e-10
5.71298e-08
3.33393e-10
5.27435e-08
1.75006e-10
4.44578e-08
3.25769e-08
3.91714e-11
2.87441e-10
2.90243e-10
8.0595e-08
2.41897e-10
2.58211e-10
7.55225e-08
1.84521e-10
2.29682e-10
6.61118e-08
1.05985e-10
5.31113e-08
3.25395e-11
2.92336e-10
5.07589e-10
7.28222e-08
2.32586e-10
4.50278e-10
6.79911e-08
1.65963e-10
3.83812e-10
5.89366e-08
1.98837e-10
4.62968e-08
2.65182e-11
2.86973e-10
6.20748e-10
6.5007e-08
2.08536e-10
5.54229e-10
6.04301e-08
1.28928e-10
4.57866e-10
5.17494e-08
2.57688e-10
3.94751e-08
1.58858e-11
2.6841e-10
5.71752e-08
1.70364e-10
5.2857e-08
8.03745e-11
4.45632e-08
3.26487e-08
2.88738e-12
1.71692e-10
1.62594e-10
8.04179e-08
1.35258e-10
1.37713e-10
7.54212e-08
8.66583e-11
1.12123e-10
6.60483e-08
4.95992e-11
5.3148e-08
4.17031e-13
1.69787e-10
2.77635e-10
7.27008e-08
1.27521e-10
2.35585e-10
6.79355e-08
7.6735e-11
1.86337e-10
5.89132e-08
9.11935e-11
4.63342e-08
-2.35106e-12
1.59677e-10
3.28352e-10
6.49622e-08
1.09733e-10
2.80503e-10
6.04351e-08
5.62999e-11
2.17073e-10
5.1772e-08
1.13696e-10
3.95169e-08
-8.07416e-12
1.39371e-10
5.72192e-08
8.28903e-11
5.29321e-08
2.98454e-11
4.46324e-08
3.26982e-08
-1.44008e-11
9.67791e-11
8.72449e-11
8.03266e-08
7.1082e-11
7.03266e-11
7.53767e-08
3.62239e-11
5.21402e-11
6.60312e-08
2.00867e-11
5.31766e-08
-1.25109e-11
9.37478e-11
1.46033e-10
7.26425e-08
6.56385e-11
1.18137e-10
6.79159e-08
3.07437e-11
8.56909e-11
5.89146e-08
3.5994e-11
4.63626e-08
-1.36902e-11
8.47774e-11
1.67784e-10
6.49476e-08
5.35737e-11
1.36406e-10
6.04481e-08
1.91408e-11
9.67873e-11
5.17952e-08
4.18969e-11
3.95471e-08
-1.68583e-11
6.90137e-11
5.7252e-08
3.6017e-11
5.29801e-08
4.07781e-12
4.46769e-08
3.2731e-08
-2.04758e-11
5.12423e-11
4.47694e-11
8.0282e-08
3.40785e-11
3.40347e-11
7.536e-08
1.10681e-11
2.2342e-11
6.6032e-08
5.76869e-12
5.31979e-08
-1.59202e-11
4.86807e-11
7.35205e-11
7.26164e-08
3.0502e-11
5.60483e-11
6.79123e-08
7.86211e-12
3.59465e-11
5.89238e-08
9.75298e-12
4.63831e-08
-1.66363e-11
4.20762e-11
8.18983e-11
6.49454e-08
2.2936e-11
6.21644e-11
6.04612e-08
1.44543e-12
3.8312e-11
5.18143e-08
9.44079e-12
3.95676e-08
-1.87209e-11
3.10841e-11
5.72748e-08
1.13765e-11
5.30107e-08
-7.46968e-12
4.47055e-08
3.27521e-08
-2.09461e-11
2.498e-11
2.17384e-11
8.0262e-08
1.3902e-11
1.51598e-11
7.5356e-08
-4.91759e-13
8.15035e-12
6.60384e-08
-4.86722e-13
5.32133e-08
-1.52948e-11
2.31179e-11
3.48702e-11
7.26063e-08
1.15809e-11
2.41976e-11
6.7915e-08
-2.30284e-12
1.22825e-11
5.89337e-08
-1.54829e-12
4.63976e-08
-1.57459e-11
1.85388e-11
3.72437e-11
6.4948e-08
6.53399e-12
2.51793e-11
6.04723e-08
-6.42506e-12
1.10615e-11
5.18284e-08
-4.71604e-12
3.95816e-08
-1.71457e-11
1.12816e-11
5.72903e-08
-5.18743e-13
5.30303e-08
-1.1535e-11
4.47236e-08
3.27656e-08
-1.87493e-11
1.05341e-11
9.70696e-12
8.02543e-08
3.4227e-12
5.77838e-12
7.53575e-08
-5.2312e-12
1.63918e-12
6.60456e-08
-2.78286e-12
5.3224e-08
-1.3109e-11
9.28551e-12
1.49823e-11
7.26038e-08
1.99694e-12
8.59444e-12
6.79196e-08
-6.3579e-12
1.70965e-12
5.89421e-08
-5.61549e-12
4.64075e-08
-1.34259e-11
6.27033e-12
1.47767e-11
6.4952e-08
-1.17604e-12
7.46466e-12
6.0481e-08
-8.91027e-12
-6.44658e-13
5.18385e-08
-9.25981e-12
3.95908e-08
-1.4397e-11
1.67904e-12
5.73008e-08
-5.57455e-12
5.30428e-08
-1.19512e-11
4.47351e-08
3.27741e-08
-1.54814e-11
3.14441e-12
3.67499e-12
8.02525e-08
-1.34985e-12
1.35334e-12
7.53607e-08
-6.45494e-12
-9.32049e-13
6.60518e-08
-3.24036e-12
5.32314e-08
-1.04765e-11
2.35016e-12
5.17584e-12
7.26046e-08
-2.25516e-12
1.46279e-12
6.79242e-08
-7.13488e-12
-2.43946e-12
5.89487e-08
-6.31227e-12
4.64141e-08
-1.07052e-11
4.12296e-13
4.01807e-12
6.4956e-08
-4.24922e-12
-2.38408e-13
6.04874e-08
-8.7366e-12
-4.95097e-12
5.18455e-08
-9.63221e-12
3.95969e-08
-1.13785e-11
-2.50518e-12
5.73079e-08
-6.94475e-12
5.3051e-08
-1.05775e-11
4.47426e-08
3.27795e-08
-1.20983e-11
-1.98423e-13
8.41599e-13
8.02532e-08
-3.03359e-12
-4.37007e-13
7.53641e-08
-5.95054e-12
-1.72614e-12
6.60565e-08
-2.88025e-12
5.32363e-08
-7.89155e-12
-7.29881e-13
7.17571e-13
7.26064e-08
-3.59081e-12
-1.37391e-12
6.79281e-08
-6.36304e-12
-3.53651e-12
5.89534e-08
-5.54804e-12
4.64185e-08
-8.05472e-12
-1.95284e-12
-6.24036e-13
6.49595e-08
-4.83057e-12
-3.07046e-12
6.04921e-08
-7.36451e-12
-5.7151e-12
5.18503e-08
-8.23568e-12
3.96008e-08
-8.51435e-12
-3.73513e-12
5.73129e-08
-6.46079e-12
5.30563e-08
-8.4766e-12
4.47473e-08
3.27829e-08
-8.98494e-12
-1.42195e-12
-2.65306e-13
8.02546e-08
-3.12747e-12
-9.69905e-13
7.53668e-08
-4.71337e-12
-1.64991e-12
6.60598e-08
-2.1974e-12
5.32394e-08
-5.5634e-12
-1.74778e-12
-9.27847e-13
7.26084e-08
-3.46148e-12
-2.06973e-12
6.7931e-08
-4.95994e-12
-3.22122e-12
5.89566e-08
-4.22858e-12
4.64213e-08
-5.67765e-12
-2.48977e-12
-2.09704e-12
6.49621e-08
-4.20905e-12
-3.44736e-12
6.04953e-08
-5.56957e-12
-4.88068e-12
5.18534e-08
-6.20462e-12
3.96032e-08
-5.9798e-12
-3.53777e-12
5.73162e-08
-5.16515e-12
5.30597e-08
-6.22838e-12
4.47503e-08
3.27851e-08
-6.28087e-12
-1.63455e-12
-5.30326e-13
8.02559e-08
-2.56789e-12
-8.90089e-13
7.53687e-08
-3.33837e-12
-1.22079e-12
6.60619e-08
-1.45782e-12
5.32412e-08
-3.61957e-12
-1.83099e-12
-1.18471e-12
7.26098e-08
-2.76695e-12
-1.77335e-12
6.79329e-08
-3.48792e-12
-2.34761e-12
5.89585e-08
-2.81739e-12
4.64229e-08
-3.70105e-12
-2.26624e-12
-2.01475e-12
6.49638e-08
-3.19918e-12
-2.72396e-12
6.04972e-08
-3.83983e-12
-3.45857e-12
5.18552e-08
-4.11647e-12
3.96046e-08
-3.88797e-12
-2.86092e-12
5.73181e-08
-3.73724e-12
5.30617e-08
-4.21469e-12
4.47519e-08
3.27862e-08
-4.07522e-12
-1.66505e-12
-4.96486e-13
-2.10569e-12
-6.65382e-13
-2.38055e-12
-8.09808e-13
-8.95831e-13
-2.33482e-12
-1.81183e-12
-9.81875e-13
-2.25468e-12
-1.2747e-12
-2.50321e-12
-1.54396e-12
-1.73727e-12
-2.41206e-12
-2.08902e-12
-1.49417e-12
-2.51818e-12
-1.872e-12
-2.71066e-12
-2.24053e-12
-2.5421e-12
-2.52896e-12
-2.45074e-12
-2.83337e-12
-2.92856e-12
-2.6482e-12
-9.52154e-10
-3.10526e-09
4.08687e-08
-2.31757e-09
-5.58614e-09
4.09663e-08
1.13252e-08
-3.94548e-09
3.48507e-08
-4.60088e-09
7.07388e-08
-7.87034e-09
-3.69986e-09
5.47826e-08
1.82985e-09
1.65096e-09
3.44173e-08
1.1992e-08
3.44137e-10
4.61574e-08
-3.23413e-09
7.69144e-08
5.69066e-10
2.75452e-09
4.11969e-08
5.15795e-10
2.88876e-09
5.87573e-08
4.84615e-09
6.1788e-09
5.84482e-08
4.51309e-09
7.18905e-08
1.76338e-09
6.57316e-08
2.20183e-09
6.92978e-08
1.76017e-09
7.69739e-08
9.42926e-08
3.2976e-09
1.75475e-09
4.01282e-08
2.2551e-09
2.20327e-10
4.05417e-08
5.97772e-09
7.1038e-10
3.01181e-08
-7.50239e-09
7.81648e-08
1.4948e-09
2.59658e-09
5.53318e-08
2.33987e-09
1.35092e-09
3.24417e-08
-7.68645e-09
-1.90391e-09
5.8798e-08
-6.32659e-09
6.93853e-08
-1.00426e-10
1.79676e-09
4.64921e-08
-1.99973e-09
3.52629e-09
5.84813e-08
-4.69716e-09
2.00049e-09
5.72412e-08
2.09153e-09
6.07782e-08
1.94611e-09
6.48773e-08
-7.51339e-09
8.15046e-08
-9.84407e-09
7.10135e-08
7.75246e-08
-1.10811e-09
6.58907e-09
3.12728e-08
5.54665e-09
6.70141e-09
2.95263e-08
-1.9169e-09
4.82999e-09
3.24646e-08
4.06037e-09
6.62932e-08
9.5314e-09
7.76798e-09
4.68996e-08
4.53947e-09
1.94657e-09
4.21884e-08
-5.13153e-09
1.35507e-09
7.1944e-08
3.92629e-09
6.58366e-08
4.78473e-09
-3.38736e-10
5.50875e-08
6.14401e-09
-4.78888e-09
6.38574e-08
5.85214e-09
-2.74353e-09
6.16317e-08
-4.57608e-09
7.44045e-08
-3.01375e-09
6.54239e-08
9.69998e-09
6.14224e-08
-8.34722e-09
9.10594e-08
5.60111e-08
-2.61569e-10
1.03338e-09
3.21552e-08
4.63003e-09
1.91738e-09
2.49139e-08
3.95312e-11
-1.03009e-09
4.01495e-08
7.9842e-10
7.08988e-08
3.12082e-09
2.73446e-09
3.77388e-08
1.59944e-09
1.28327e-09
4.43439e-08
5.19933e-09
1.64378e-09
6.56702e-08
3.95747e-09
6.80238e-08
1.60917e-09
3.22296e-09
4.97637e-08
4.08842e-09
2.64679e-09
6.00147e-08
5.91147e-09
-4.19751e-10
6.18722e-08
6.03016e-11
8.24612e-08
3.10063e-10
5.77945e-08
-3.6979e-11
5.90121e-08
-3.45561e-10
8.94538e-08
5.56361e-08
-3.49427e-09
7.5955e-09
3.47723e-08
-4.22763e-09
2.24042e-09
2.484e-08
-5.59907e-09
4.50905e-09
3.87403e-08
3.07574e-09
6.60423e-08
-1.01837e-08
-6.15357e-09
7.5369e-08
-7.98847e-09
-1.8072e-09
4.61963e-08
-8.11079e-09
2.8537e-09
6.74478e-08
4.36681e-09
5.95527e-08
-3.61864e-09
1.5069e-09
4.50615e-08
-2.59652e-10
4.63054e-09
5.02179e-08
-3.54252e-09
1.0504e-09
6.69583e-08
3.82499e-09
8.057e-08
1.1596e-09
5.04649e-08
-8.34203e-09
6.63772e-08
1.09896e-09