/*--------------------------------*- C++ -*----------------------------------*\
| =========                 |                                                 |
| \\      /  F ield         | OpenFOAM: The Open Source CFD Toolbox           |
|  \\    /   O peration     | Version:  2506                                  |
|   \\  /    A nd           | Website:  www.openfoam.com                      |
|    \\/     M anipulation  |                                                 |
\*---------------------------------------------------------------------------*/
FoamFile
{
    version     2.0;
    format      ascii;
    arch        "LSB;label=32;scalar=64";
    class       volVectorField;
    location    "0.09";
    object      U;
}
// * * * * * * * * * * * * * * * * * * * * * * * * * * * * * * * * * * * * * //

dimensions      [0 1 -1 0 0 0 0];

internalField   nonuniform List<vector> 
1152
(
(0.00266465 -0.000608397 0.0224753)
(-0.000574003 0.000308297 0.0310727)
(-0.00105799 9.84083e-05 0.0158453)
(0.00190804 -0.0016142 0.0146449)
(0.00192113 -0.00151359 0.0247226)
(-0.000233664 -0.00165362 0.0136942)
(-0.000386957 -0.000601991 0.0182724)
(0.000273756 -7.08251e-05 0.00868592)
(0.000886311 -0.000227935 0.0162792)
(0.000937498 -0.00131394 0.0189854)
(0.000933614 0.000646312 0.00862557)
(-0.00112614 0.000705363 0.0216353)
(-0.00198329 0.000186189 0.0194917)
(-0.0001462 0.00158496 0.0100853)
(0.00100208 0.00170576 0.00855287)
(0.00163259 -0.00011083 0.0092646)
(-0.000584115 -0.000157642 0.0182048)
(0.00257379 0.00016709 0.0524228)
(0.00290881 -0.00102711 0.0343048)
(0.00186346 -0.000117649 0.0425466)
(0.00187984 0.000449148 0.038113)
(0.00303455 0.00310168 0.0482047)
(0.00160267 0.0016799 0.0413235)
(0.00223922 -0.000233807 0.0476109)
(0.000700251 0.00130243 0.0407257)
(0.00330967 0.00102041 0.0345511)
(0.00173798 0.00172698 0.0547602)
(0.00163674 0.000719371 0.0431129)
(0.00231971 0.00124942 0.0424207)
(0.005573 0.000216734 0.0453093)
(0.0033955 -0.00274173 0.0462669)
(-9.51963e-05 0.00367064 0.0545387)
(-0.00339931 0.00412559 0.0464647)
(-0.000541949 0.00100813 0.0424485)
(0.000917378 0.00110914 0.0354997)
(-0.00172566 0.00215264 0.0369678)
(0.000418825 0.00120593 0.0379164)
(0.000846068 0.00310337 0.0484957)
(0.000998717 -0.000646944 0.0343441)
(0.000532919 0.00126304 0.0322641)
(0.000747165 0.000552771 0.0298634)
(-0.000245835 0.0011567 0.0473749)
(0.000508837 -0.000387307 0.038752)
(0.00264205 0.000505677 0.0388028)
(0.00196497 -0.00109039 0.0376863)
(0.000874345 -0.00173358 0.0252002)
(-0.00112113 0.0012827 0.051042)
(-2.56052e-05 0.0021188 0.0314287)
(-0.000406506 0.000845229 0.0298615)
(7.79297e-05 -0.000235327 0.0317776)
(0.00139945 0.00172825 0.0398476)
(0.000348808 0.00315503 0.0423151)
(-0.00495572 0.00219165 0.0480222)
(0.000152754 0.00142736 0.0433584)
(0.0034183 0.000705419 0.0540986)
(-0.00110584 0.00217857 0.0475477)
(0.000353255 0.00145887 0.0451259)
(-0.000311195 0.00331272 0.0373515)
(0.00105739 0.000528617 0.0376088)
(9.18415e-05 0.00202784 0.0370629)
(0.00596244 0.00308226 0.0528002)
(-0.00146613 0.00185449 0.0543983)
(0.000158689 0.000542033 0.0453134)
(0.000196766 -0.00072236 0.0428215)
(0.00131474 -0.00239804 0.0449923)
(-0.000740983 -0.000658151 0.0383185)
(-0.000652461 -0.000196455 0.0397722)
(0.00143015 0.00183405 0.0389409)
(-0.000474698 -2.18831e-05 0.0251897)
(-0.00100887 -0.000318798 0.0370823)
(0.00202218 0.000846454 0.0402469)
(0.00768971 0.000422968 0.0521349)
(-0.000112047 -0.000442128 0.046655)
(0.000364149 0.00129342 0.0400926)
(-0.000915585 0.00107917 0.0386047)
(-0.000479653 -0.000100812 0.0467095)
(-0.00231899 0.0012778 0.0343421)
(0.000369832 0.00558001 0.0662816)
(1.32302e-05 0.000761972 0.0327296)
(0.0010963 -0.00145881 0.0775583)
(-2.50998e-05 -0.00218027 0.0227082)
(-0.00300748 -0.00369298 0.0384144)
(0.00176318 -0.00438437 0.0297396)
(-0.000338437 -0.00171046 0.0291779)
(0.00195876 -0.00607306 0.0394024)
(-0.000287489 -0.00112565 0.0235915)
(0.000971267 -0.00333731 0.0343593)
(0.00235451 -0.00141586 0.0334175)
(-0.00100742 -0.000308816 0.0315089)
(-0.000788703 -0.0028109 0.0440256)
(0.00217814 0.000223401 0.0366532)
(0.0021122 -4.09479e-05 0.0258507)
(-0.001507 0.000887455 0.026628)
(0.000752289 0.000962235 0.0318642)
(0.00200067 0.00165491 0.0304957)
(0.00280615 0.00414772 0.0354746)
(3.92273e-05 0.000304528 0.0271429)
(1.38834e-05 -0.000951681 0.0246893)
(-0.000538558 0.0004595 0.0235907)
(-0.00337218 -0.000734511 0.0246515)
(-0.000388554 -0.000240865 0.0233478)
(-0.000179134 -0.00144612 0.0229572)
(-0.000523184 0.000104995 0.0231939)
(-0.00171776 0.000671951 0.028598)
(-0.000708355 0.00071026 0.0273783)
(0.000689931 -0.00125003 0.0297421)
(-0.000535253 -0.000668643 0.0213601)
(-0.00251561 -9.27223e-05 0.0259507)
(-0.000509899 0.000189473 0.0190023)
(-0.000474872 -6.41561e-05 0.0303426)
(-0.000457916 -0.00111512 0.0234671)
(-0.00187493 0.000446888 0.0377444)
(-0.00145211 -0.00549472 0.0251198)
(-0.000818194 -0.00585845 0.00431201)
(0.00173188 -0.00827327 0.00531161)
(0.00397397 -0.00450349 0.0254044)
(-0.00234576 -0.00510059 -0.00654676)
(-0.00277595 -0.00495116 -0.0151787)
(0.00221096 -0.00792576 -0.036844)
(0.00726524 -0.00384209 0.0150253)
(-0.00276146 -0.00236935 -0.00292918)
(-0.00383564 0.00570573 0.0032073)
(0.00185515 -0.000587928 -0.0579194)
(0.00931857 -0.000135065 0.00432289)
(0.00489072 0.00166541 -0.0431624)
(0.000128348 0.000107334 0.016998)
(-0.00307327 0.00442558 -0.0352744)
(0.0067331 0.00247074 0.0229487)
(0.0015836 0.00347421 0.0188124)
(0.00141206 0.00329584 0.0162408)
(-0.000906139 0.00476885 0.0166376)
(-0.00194208 0.00165613 0.0180657)
(0.00218116 0.00258673 0.0157072)
(0.00210188 0.000603743 0.014255)
(-0.00219967 0.00410953 0.0150511)
(-0.00524065 0.00125727 0.0179169)
(0.000461771 0.000877926 0.0163948)
(0.00284709 -0.00600937 0.0160053)
(-0.00035377 -0.00110803 0.0141863)
(-0.00618452 -0.000905331 0.0168743)
(-0.0036085 -0.00226933 0.0145102)
(0.000290402 -0.00235035 0.0115286)
(0.0030123 -0.00495649 0.0145082)
(-0.00415623 -0.00246497 0.0182157)
(0.000932805 0.00217185 0.0178834)
(0.000656928 0.00195185 0.0167509)
(-0.000462349 0.00220274 0.0164491)
(-0.0010194 0.000928458 0.0179608)
(0.000991142 0.00163723 0.015221)
(0.000537397 0.00091805 0.0142903)
(-0.00108636 0.0015879 0.013316)
(-0.00232749 0.000563385 0.0168961)
(0.000555176 0.000501149 0.0146644)
(0.000596811 -0.000895023 0.0151348)
(-0.000841526 -0.000137724 0.0119473)
(-0.00285549 -0.000443458 0.0161863)
(-1.21952e-05 -0.00109478 0.0140133)
(-8.25042e-05 -0.00114119 0.0184719)
(-0.000668893 -0.00185907 0.013775)
(-0.00249425 -0.00139045 0.0173892)
(0.000464649 0.0011049 0.0176805)
(0.000242675 0.00102334 0.017272)
(-0.00024192 0.00102621 0.0171754)
(-0.000539111 0.000560962 0.0177124)
(0.000461337 0.000818608 0.0166094)
(0.000141294 0.000583118 0.0163504)
(-0.000510629 0.000660647 0.0161699)
(-0.000990869 0.000273576 0.0173073)
(0.000304737 0.000192887 0.0162297)
(7.41837e-05 -0.00013726 0.0163425)
(-0.000550329 -9.13393e-05 0.0157233)
(-0.00123551 -0.000239824 0.0171086)
(0.000122861 -0.000495822 0.0160817)
(-0.000146341 -0.000594192 0.0168563)
(-0.000613703 -0.000831646 0.0161362)
(-0.0011788 -0.000741301 0.0174985)
(0.000234453 0.000571071 0.0179183)
(9.6733e-05 0.000529746 0.0177734)
(-0.000116285 0.000483781 0.0177592)
(-0.000261826 0.000286067 0.0179611)
(0.000216395 0.000411103 0.0174862)
(2.81648e-05 0.000320096 0.0173934)
(-0.000250307 0.000276897 0.017386)
(-0.000447473 0.000106803 0.0177714)
(0.000145303 9.25413e-05 0.0172992)
(-4.05825e-05 -2.38742e-05 0.0173145)
(-0.000325229 -7.45405e-05 0.017233)
(-0.000571755 -0.000160567 0.0177077)
(5.14895e-05 -0.000237976 0.017299)
(-0.000141594 -0.000319468 0.0174363)
(-0.00038539 -0.000414649 0.0173825)
(-0.000588328 -0.000418058 0.0178596)
(0.000116503 0.000292791 0.0180806)
(3.79747e-05 0.000265175 0.0180218)
(-6.01433e-05 0.000225726 0.0180227)
(-0.000129779 0.000134705 0.0181006)
(9.60281e-05 0.000204023 0.01789)
(-6.22452e-06 0.000158558 0.0178509)
(-0.000129983 0.00011358 0.0178693)
(-0.000214693 3.14829e-05 0.0180143)
(5.61332e-05 4.47062e-05 0.0177979)
(-5.36555e-05 -1.13026e-05 0.0177945)
(-0.00018468 -5.60832e-05 0.0178138)
(-0.000280436 -0.000109007 0.0179984)
(3.73298e-06 -0.000122155 0.0178079)
(-0.00010793 -0.000174121 0.0178394)
(-0.000226306 -0.000221878 0.0178822)
(-0.000306975 -0.00024289 0.0180742)
(5.71429e-05 0.000147693 0.0181824)
(1.46404e-05 0.000128735 0.0181565)
(-3.21684e-05 0.000102288 0.0181599)
(-6.64947e-05 5.75488e-05 0.0181926)
(4.05225e-05 9.8514e-05 0.0180936)
(-1.30547e-05 7.21455e-05 0.0180777)
(-7.0012e-05 4.14863e-05 0.0180937)
(-0.000108694 -7.59932e-07 0.0181539)
(1.61922e-05 1.73597e-05 0.0180486)
(-4.29485e-05 -1.33106e-05 0.0180473)
(-0.000103934 -4.3292e-05 0.018073)
(-0.000144387 -7.51397e-05 0.0181528)
(-1.33806e-05 -6.9156e-05 0.0180538)
(-7.38574e-05 -9.95377e-05 0.0180687)
(-0.000130985 -0.000126998 0.0181069)
(-0.000165021 -0.000145541 0.0181947)
(2.73754e-05 7.30064e-05 0.018244)
(4.78668e-06 6.04598e-05 0.0182319)
(-1.83988e-05 4.39952e-05 0.0182342)
(-3.60144e-05 2.08296e-05 0.0182488)
(1.56268e-05 4.54371e-05 0.0182015)
(-1.22184e-05 2.9396e-05 0.0181953)
(-3.95253e-05 1.04799e-05 0.0182054)
(-5.83074e-05 -1.22608e-05 0.0182325)
(5.08742e-07 2.90861e-06 0.0181797)
(-3.04629e-05 -1.50046e-05 0.018181)
(-5.95725e-05 -3.34767e-05 0.0181986)
(-7.80158e-05 -5.22261e-05 0.0182359)
(-1.67336e-05 -4.29676e-05 0.0181829)
(-4.85941e-05 -6.0708e-05 0.0181923)
(-7.62622e-05 -7.70054e-05 0.0182173)
(-9.14802e-05 -8.98109e-05 0.0182607)
(1.23511e-05 3.47405e-05 0.0182799)
(3.81043e-07 2.66964e-05 0.0182741)
(-1.14985e-05 1.67432e-05 0.0182754)
(-2.08639e-05 4.35314e-06 0.0182824)
(4.55993e-06 1.90594e-05 0.0182593)
(-9.9614e-06 9.21686e-06 0.0182571)
(-2.35004e-05 -2.11301e-06 0.0182631)
(-3.30168e-05 -1.4681e-05 0.0182763)
(-4.82076e-06 -3.77776e-06 0.0182491)
(-2.09415e-05 -1.44878e-05 0.0182511)
(-3.51773e-05 -2.55594e-05 0.0182618)
(-4.39963e-05 -3.64785e-05 0.0182806)
(-1.5039e-05 -2.85859e-05 0.0182516)
(-3.1713e-05 -3.90148e-05 0.0182582)
(-4.52174e-05 -4.87355e-05 0.0182732)
(-5.2184e-05 -5.6806e-05 0.018296)
(4.79648e-06 1.5383e-05 0.0183007)
(-1.60405e-06 1.03362e-05 0.0182979)
(-7.86486e-06 4.39966e-06 0.0182987)
(-1.28937e-05 -2.45034e-06 0.0183024)
(-1.9676e-07 6.31609e-06 0.0182908)
(-7.81791e-06 3.00041e-07 0.0182902)
(-1.47237e-05 -6.40305e-06 0.0182938)
(-1.9657e-05 -1.34425e-05 0.0183008)
(-6.00351e-06 -6.22302e-06 0.0182863)
(-1.43926e-05 -1.2665e-05 0.0182883)
(-2.14859e-05 -1.92405e-05 0.0182947)
(-2.5783e-05 -2.55372e-05 0.0183047)
(-1.21322e-05 -1.98129e-05 0.0182884)
(-2.08103e-05 -2.60147e-05 0.0182931)
(-2.74356e-05 -3.17997e-05 0.0183021)
(-3.05845e-05 -3.66643e-05 0.0183146)
(1.1192e-06 5.84333e-06 0.0183129)
(-2.34437e-06 2.71648e-06 0.0183116)
(-5.70259e-06 -8.37164e-07 0.0183122)
(-8.42209e-06 -4.68253e-06 0.0183144)
(-2.02891e-06 4.99257e-07 0.0183083)
(-6.06205e-06 -3.15915e-06 0.0183084)
(-9.64435e-06 -7.11055e-06 0.0183106)
(-1.22146e-05 -1.10905e-05 0.0183146)
(-5.60992e-06 -6.54102e-06 0.0183066)
(-9.9778e-06 -1.04062e-05 0.0183082)
(-1.35518e-05 -1.42835e-05 0.0183122)
(-1.56338e-05 -1.78965e-05 0.0183178)
(-9.33986e-06 -1.40158e-05 0.0183084)
(-1.37847e-05 -1.77517e-05 0.0183117)
(-1.70356e-05 -2.11841e-05 0.0183172)
(-1.83864e-05 -2.40463e-05 0.0183243)
(-5.30723e-07 1.35445e-06 0.0183201)
(-2.42892e-06 -5.75637e-07 0.0183197)
(-4.24431e-06 -2.69001e-06 0.0183202)
(-5.71178e-06 -4.85124e-06 0.0183215)
(-2.48769e-06 -1.85738e-06 0.0183181)
(-4.63985e-06 -4.06376e-06 0.0183185)
(-6.5124e-06 -6.38565e-06 0.01832)
(-7.84234e-06 -8.64284e-06 0.0183224)
(-4.68558e-06 -5.8975e-06 0.0183178)
(-6.95644e-06 -8.19814e-06 0.0183191)
(-8.76115e-06 -1.0466e-05 0.0183216)
(-9.74194e-06 -1.25234e-05 0.018325)
(-6.97554e-06 -1.00039e-05 0.0183193)
(-9.19168e-06 -1.22639e-05 0.0183216)
(-1.0773e-05 -1.42897e-05 0.0183251)
(-1.12873e-05 -1.59444e-05 0.0183293)
(-1.11716e-06 -5.68789e-07 0.0183245)
(-2.163e-06 -1.74432e-06 0.0183244)
(-3.15267e-06 -2.99276e-06 0.0183249)
(-3.9379e-06 -4.20447e-06 0.0183258)
(-2.31475e-06 -2.52623e-06 0.0183238)
(-3.46763e-06 -3.84533e-06 0.0183243)
(-4.44946e-06 -5.19851e-06 0.0183254)
(-5.12648e-06 -6.471e-06 0.0183269)
(-3.6472e-06 -4.88665e-06 0.0183241)
(-4.82338e-06 -6.23962e-06 0.0183251)
(-5.72892e-06 -7.54854e-06 0.0183268)
(-6.1683e-06 -8.7027e-06 0.0183289)
(-5.03922e-06 -7.14577e-06 0.0183254)
(-6.11525e-06 -8.49146e-06 0.018327)
(-6.86867e-06 -9.671e-06 0.0183293)
(-7.01313e-06 -1.06084e-05 0.0183319)
(-1.16813e-06 -1.20092e-06 0.0183272)
(-1.74324e-06 -1.90425e-06 0.0183274)
(-2.28326e-06 -2.62925e-06 0.0183278)
(-2.6954e-06 -3.30157e-06 0.0183284)
(-1.88557e-06 -2.40137e-06 0.0183271)
(-2.49804e-06 -3.17544e-06 0.0183276)
(-3.01174e-06 -3.94904e-06 0.0183284)
(-3.3474e-06 -4.65452e-06 0.0183294)
(-2.67457e-06 -3.78372e-06 0.0183277)
(-3.27559e-06 -4.56501e-06 0.0183285)
(-3.72359e-06 -5.30434e-06 0.0183297)
(-3.90533e-06 -5.93586e-06 0.018331)
(-3.49128e-06 -5.03407e-06 0.0183288)
(-4.00678e-06 -5.80574e-06 0.01833)
(-4.35234e-06 -6.47459e-06 0.0183315)
(-4.35053e-06 -6.9898e-06 0.0183332)
(-9.86008e-07 -1.19653e-06 0.0183289)
(-1.29423e-06 -1.6034e-06 0.0183291)
(-1.58306e-06 -2.01246e-06 0.0183295)
(-1.78981e-06 -2.37727e-06 0.01833)
(-1.40222e-06 -1.91762e-06 0.0183292)
(-1.71625e-06 -2.35705e-06 0.0183296)
(-1.97989e-06 -2.78517e-06 0.0183302)
(-2.13731e-06 -3.16465e-06 0.0183309)
(-1.85308e-06 -2.70723e-06 0.0183298)
(-2.14748e-06 -3.14624e-06 0.0183304)
(-2.36195e-06 -3.55039e-06 0.0183313)
(-2.42523e-06 -3.88352e-06 0.0183322)
(-2.307e-06 -3.3965e-06 0.0183308)
(-2.55002e-06 -3.81785e-06 0.0183317)
(-2.69631e-06 -4.18175e-06 0.0183327)
(-2.64873e-06 -4.45244e-06 0.0183338)
(-7.59517e-07 -9.06921e-07 0.0183299)
(-9.12527e-07 -1.13066e-06 0.0183302)
(-1.05407e-06 -1.35125e-06 0.0183305)
(-1.14304e-06 -1.54177e-06 0.0183309)
(-9.90191e-07 -1.31117e-06 0.0183303)
(-1.13712e-06 -1.5487e-06 0.0183307)
(-1.25978e-06 -1.7748e-06 0.0183312)
(-1.32019e-06 -1.96956e-06 0.0183317)
(-1.23596e-06 -1.73219e-06 0.018331)
(-1.36489e-06 -1.96834e-06 0.0183315)
(-1.45495e-06 -2.17956e-06 0.0183321)
(-1.46128e-06 -2.34772e-06 0.0183328)
(-1.47367e-06 -2.09479e-06 0.0183319)
(-1.57727e-06 -2.31424e-06 0.0183326)
(-1.62428e-06 -2.5017e-06 0.0183333)
(-1.5672e-06 -2.63629e-06 0.0183341)
(-6.41147e-07 -5.95923e-07 0.0183305)
(-7.10601e-07 -7.1975e-07 0.0183308)
(-7.65121e-07 -8.38111e-07 0.018331)
(-7.83979e-07 -9.36715e-07 0.0183314)
(-7.70453e-07 -8.054e-07 0.018331)
(-8.31394e-07 -9.35727e-07 0.0183313)
(-8.70829e-07 -1.05614e-06 0.0183317)
(-8.72001e-07 -1.15626e-06 0.0183322)
(-9.05406e-07 -1.01412e-06 0.0183316)
(-9.52743e-07 -1.14217e-06 0.0183321)
(-9.71034e-07 -1.2539e-06 0.0183326)
(-9.41099e-07 -1.34094e-06 0.0183331)
(-1.0327e-06 -1.19388e-06 0.0183325)
(-1.06517e-06 -1.31028e-06 0.018333)
(-1.05723e-06 -1.40606e-06 0.0183336)
(-9.91511e-07 -1.47309e-06 0.0183342)
(-0.00168444 -6.74e-05 0.0174545)
(0.00193444 0.00139472 0.0118539)
(0.00215088 -0.00329355 0.0237676)
(-0.00053662 0.00154552 0.0119089)
(-0.000803038 0.00126735 0.0099533)
(0.00101633 0.000653565 0.0112722)
(0.00128252 -0.00152517 0.0144894)
(-0.0022997 0.00461033 0.0157781)
(4.34896e-05 0.00435451 0.0192527)
(0.000967784 -0.000606937 0.0170458)
(0.00247962 -0.000262825 0.0148257)
(0.000531636 -0.00123269 0.0173468)
(0.0017104 0.000440412 0.0187667)
(-0.000190366 0.000686008 0.0131613)
(0.00156395 -0.00108229 0.0154937)
(0.00158036 -0.00304887 0.00958895)
(-0.000269249 0.00132222 0.0356047)
(-0.00150733 3.99545e-05 0.0487961)
(5.92211e-06 0.0026222 0.0549294)
(0.00301426 -0.00133401 0.035023)
(-0.000542956 -0.000868759 0.0339761)
(-0.00457159 -0.00171098 0.0597262)
(-0.00180121 0.000981395 0.0292359)
(0.00242596 -0.00292214 0.0376948)
(0.000805886 -0.00383552 0.0438823)
(0.000126028 -0.00166043 0.0457256)
(-0.000674547 0.000488722 0.0485151)
(-0.00168039 -0.00245017 0.0923975)
(-0.00125176 -0.00319304 0.0528133)
(0.00314411 -0.0031805 0.0428882)
(0.00284637 -0.00150915 0.0343245)
(0.00142063 -4.08496e-05 0.0389049)
(0.00234423 -0.000337073 0.0337097)
(7.28676e-05 -0.000477174 0.0346481)
(0.000725625 0.00155593 0.0357095)
(0.00205956 -0.00440762 0.0541011)
(-0.000466718 -0.0015536 0.0548761)
(-0.000591176 0.00150216 0.0371088)
(0.000246793 0.00077338 0.0325348)
(0.00312346 -0.00741388 0.0341597)
(0.00248753 -0.00232407 0.0384345)
(-0.00152777 0.00132491 0.0431625)
(-0.00571238 -0.00269999 0.0510249)
(-0.000457003 -0.00079776 0.0292665)
(0.000296642 0.00138476 0.0257659)
(0.00150906 -0.000816151 0.0268492)
(-0.00118813 0.000885689 0.0429864)
(-0.00244296 0.00340237 0.030017)
(0.00440486 -0.00171075 0.0463379)
(0.00100625 -0.000798143 0.0458127)
(-0.00150625 2.39802e-05 0.047278)
(-0.000566538 0.00267134 0.0597622)
(0.00102416 0.00177639 0.0288958)
(0.00155571 0.00116694 0.0404733)
(0.000899091 -0.0018174 0.0382151)
(0.000249841 0.000765944 0.0310828)
(0.00136696 0.00331294 0.0440802)
(-0.00323452 0.0019712 0.0644235)
(0.000693518 -0.00275463 0.0385193)
(0.0024263 0.000742591 0.0481044)
(0.00110616 4.85375e-05 0.0395308)
(-0.00185147 -0.000697407 0.0464537)
(-0.000371947 0.000782309 0.0357835)
(0.000593656 0.0024211 0.0487441)
(-0.000316133 0.00101043 0.0436251)
(-0.00150616 -0.00165539 0.0448113)
(-0.00129928 -0.0005511 0.0477233)
(-0.000479912 0.00138142 0.0439897)
(0.00192969 0.00178832 0.0490222)
(2.21713e-05 -0.00069732 0.0331275)
(-0.000443192 0.000189609 0.0542973)
(-0.000926148 0.00123952 0.044133)
(-0.00137281 0.00459664 0.0616601)
(-0.00161904 0.00214338 0.0526086)
(-0.000367188 0.00169861 0.0443836)
(2.55837e-05 0.0018911 0.0287091)
(0.000503296 0.00129768 0.0347091)
(-0.00277849 0.00337353 0.0441009)
(-0.000655109 0.00153962 0.0337478)
(-0.000218435 0.00388028 0.038205)
(9.60356e-05 0.00134481 0.0296073)
(-0.00163062 0.00303511 0.0335703)
(-0.00161581 -0.00197394 0.029481)
(-0.00393925 -0.000394716 0.032076)
(-0.00133767 -0.000118228 0.0327389)
(-0.000553985 0.00201382 0.0242186)
(-0.00323015 0.00305586 0.0295552)
(-0.00420681 0.00362709 0.0284741)
(0.000559374 0.000178046 0.0313643)
(0.00146938 -7.51755e-05 0.0277031)
(-0.00153368 0.00294111 0.0248494)
(-0.00273923 0.00278312 0.0227963)
(-0.00643844 0.00070401 0.0479475)
(0.00147813 -0.00299403 0.0317607)
(0.00128358 -0.0018826 0.0298784)
(-0.00315916 -0.000165241 0.0342201)
(0.000432013 0.000453132 0.026103)
(-0.000583491 -0.000287822 0.0258733)
(0.000859081 -0.000152286 0.0321531)
(0.00161429 -0.000390325 0.0216997)
(0.00106619 0.00131916 0.0284872)
(0.00205311 0.000405789 0.0211513)
(5.1627e-05 -0.00139136 0.0230607)
(-2.32671e-05 0.000694682 0.0261539)
(0.000908195 -0.00180123 0.0285901)
(0.00113998 -0.000595129 0.026285)
(0.00127941 -0.00172794 0.0234622)
(0.0014033 -0.000141797 0.0215091)
(0.00069365 -0.00107909 0.0323044)
(-0.00090434 -0.0020258 0.0207742)
(-0.0010232 1.6341e-05 0.024784)
(0.000896443 -0.00047094 0.0299653)
(-0.000316098 -0.000723522 0.0266272)
(-5.25732e-05 -0.00088314 0.0258064)
(0.000316743 -0.000609601 0.0317496)
(0.000610852 -0.000424437 0.014577)
(-0.000265984 -0.00180312 0.0297111)
(0.000719363 -0.00212913 0.0205248)
(0.000903946 -0.00201734 0.0146785)
(0.0011429 -0.00132845 0.0139928)
(-0.000710146 -0.0028702 0.0303171)
(0.000595448 -0.00310706 0.0322846)
(0.00143938 -0.00331111 0.0266445)
(0.00166498 -0.00201023 0.016802)
(-0.000917952 -0.00426476 0.032601)
(-9.68941e-05 -0.00467946 0.0100437)
(0.00131348 -0.00507465 0.023885)
(0.00234888 -0.00297117 0.0278606)
(-0.000187711 -0.0001791 0.0168136)
(1.91501e-05 -4.61034e-05 0.0172621)
(0.000633892 0.000783563 0.0185504)
(0.000646434 0.000274677 0.0152929)
(2.37841e-05 -0.000219229 0.0177957)
(0.000616551 -2.81386e-05 0.0173482)
(0.00058682 0.000848981 0.0169691)
(0.000706509 -3.50891e-05 0.0155675)
(-0.00012005 0.00033885 0.0187237)
(0.000649415 0.000940796 0.0190099)
(0.000531491 0.0011006 0.018279)
(0.000660504 -0.000119807 0.0163662)
(0.000874768 0.00162742 0.0195031)
(0.000846143 0.00223473 0.0168497)
(-0.000382898 0.00239948 0.018128)
(-0.000200423 0.000456762 0.0177695)
(2.03218e-05 5.34999e-05 0.0196935)
(0.000238663 0.000166292 0.0196434)
(0.000627443 0.000623003 0.0201318)
(0.000484616 0.000338364 0.018399)
(0.000138814 0.000254163 0.0198684)
(0.000451572 0.000390124 0.0195193)
(0.000495547 0.000814137 0.019533)
(0.000430045 0.000254493 0.0184523)
(0.000138301 0.000701266 0.0198735)
(0.000464255 0.000946002 0.0195326)
(0.000357908 0.00103372 0.0192966)
(0.000302961 0.000263667 0.0186084)
(0.000594339 0.00141909 0.0193805)
(0.000522802 0.00160886 0.0183293)
(-8.58364e-05 0.00158728 0.0184212)
(-0.000150593 0.000538177 0.0186479)
(0.000102005 8.15648e-05 0.0190337)
(0.000176369 0.000132354 0.0188582)
(0.000330876 0.000319312 0.0189369)
(0.000241467 0.000202539 0.0180649)
(0.000154725 0.00027057 0.0189987)
(0.000222615 0.00032734 0.018728)
(0.000225901 0.00048326 0.018663)
(0.000178516 0.000219172 0.0180708)
(0.000188873 0.000544563 0.0188489)
(0.000218347 0.000614287 0.0185772)
(0.000109071 0.000644784 0.0184364)
(5.95901e-05 0.000285609 0.0180904)
(0.000344578 0.000873512 0.0184522)
(0.000226304 0.000915497 0.0180278)
(-6.99944e-05 0.000874122 0.0179888)
(-0.000152548 0.000442382 0.018036)
(0.000120027 7.25328e-05 0.0186936)
(0.000141905 0.000100871 0.0185742)
(0.000196272 0.000179543 0.0185854)
(0.000132326 0.000124454 0.0182322)
(0.000138443 0.000212732 0.0186408)
(0.000139653 0.000234803 0.0185003)
(0.000130518 0.000286332 0.0184714)
(8.74291e-05 0.000153908 0.0182266)
(0.000158015 0.000367816 0.018517)
(0.000127045 0.000379624 0.0183795)
(5.89942e-05 0.000375574 0.0183327)
(1.50702e-05 0.00019842 0.0182065)
(0.000202712 0.0005109 0.018284)
(0.000114881 0.000505398 0.018128)
(-2.34333e-05 0.000461714 0.0181127)
(-8.38883e-05 0.00026799 0.0181408)
(9.81865e-05 5.02696e-05 0.0185357)
(9.99568e-05 6.59243e-05 0.0184551)
(0.000109553 9.64787e-05 0.0184298)
(6.42134e-05 6.44758e-05 0.0182607)
(0.000102209 0.000138683 0.0184907)
(8.89248e-05 0.00014426 0.0184079)
(7.23561e-05 0.00015478 0.0183737)
(3.85616e-05 8.46898e-05 0.0182522)
(0.000107097 0.000221667 0.0184035)
(7.48009e-05 0.00021583 0.018327)
(3.21297e-05 0.000198847 0.0182946)
(6.35437e-07 0.000108388 0.0182319)
(0.000115456 0.000283603 0.0182663)
(5.94322e-05 0.000268055 0.018197)
(-9.89921e-06 0.000232364 0.0181841)
(-4.54211e-05 0.000139637 0.0181907)
(6.77374e-05 3.07494e-05 0.0184375)
(6.38261e-05 3.9182e-05 0.0183861)
(5.89901e-05 5.00113e-05 0.0183592)
(2.92218e-05 3.05438e-05 0.0182787)
(6.71025e-05 8.1737e-05 0.0184072)
(5.45613e-05 8.15687e-05 0.0183579)
(3.92524e-05 7.95301e-05 0.0183311)
(1.58108e-05 4.16749e-05 0.0182725)
(6.59646e-05 0.000124811 0.0183536)
(4.35408e-05 0.000116211 0.0183109)
(1.76233e-05 0.000100051 0.0182899)
(-3.15023e-06 5.28425e-05 0.0182596)
(6.38449e-05 0.000151525 0.0182771)
(3.1244e-05 0.000137488 0.0182434)
(-4.57076e-06 0.000112985 0.0182355)
(-2.50686e-05 6.66094e-05 0.0182372)
(4.23666e-05 1.76422e-05 0.0183823)
(3.80228e-05 2.19788e-05 0.018351)
(3.05383e-05 2.49724e-05 0.0183311)
(1.17333e-05 1.27312e-05 0.0182925)
(4.07769e-05 4.5645e-05 0.0183641)
(3.18817e-05 4.39524e-05 0.0183352)
(2.03587e-05 3.92331e-05 0.0183172)
(5.0727e-06 1.8158e-05 0.0182889)
(3.8246e-05 6.74769e-05 0.0183335)
(2.44652e-05 6.03021e-05 0.0183096)
(8.87798e-06 4.82526e-05 0.0182965)
(-4.28926e-06 2.28911e-05 0.0182817)
(3.42287e-05 7.87698e-05 0.0182922)
(1.60249e-05 6.85795e-05 0.0182748)
(-3.04778e-06 5.29156e-05 0.01827)
(-1.49793e-05 2.88337e-05 0.0182703)
(2.4703e-05 9.64962e-06 0.0183538)
(2.12369e-05 1.16828e-05 0.0183354)
(1.4816e-05 1.17412e-05 0.0183224)
(3.20665e-06 3.85e-06 0.0183039)
(2.3303e-05 2.44365e-05 0.0183434)
(1.75432e-05 2.263e-05 0.0183268)
(9.67491e-06 1.827e-05 0.0183155)
(3.9935e-08 6.16639e-06 0.0183019)
(2.10164e-05 3.5154e-05 0.0183265)
(1.29059e-05 3.00079e-05 0.0183131)
(3.60018e-06 2.18381e-05 0.0183053)
(-4.5509e-06 7.76063e-06 0.0182982)
(1.7548e-05 3.96251e-05 0.0183045)
(7.50705e-06 3.28417e-05 0.0182953)
(-2.9211e-06 2.31797e-05 0.0182924)
(-9.88053e-06 1.02607e-05 0.0182926)
(1.35202e-05 5.02792e-06 0.0183396)
(1.0997e-05 5.80864e-06 0.018329)
(6.34838e-06 4.91799e-06 0.0183211)
(-6.98749e-07 -2.5557e-07 0.0183124)
(1.25326e-05 1.25125e-05 0.0183338)
(8.89693e-06 1.09937e-05 0.0183244)
(3.80661e-06 7.66636e-06 0.0183178)
(-2.13045e-06 5.49159e-07 0.0183114)
(1.08552e-05 1.75221e-05 0.0183247)
(6.11684e-06 1.40416e-05 0.0183173)
(6.02546e-07 8.7655e-06 0.0183128)
(-4.36329e-06 7.55158e-07 0.0183096)
(8.34862e-06 1.89958e-05 0.0183132)
(2.79067e-06 1.46488e-05 0.0183083)
(-2.99181e-06 8.80801e-06 0.0183067)
(-7.05108e-06 1.66173e-06 0.018307)
(6.884e-06 2.46814e-06 0.0183329)
(5.11323e-06 2.60719e-06 0.018327)
(1.96585e-06 1.53662e-06 0.0183225)
(-2.23783e-06 -1.91671e-06 0.0183186)
(6.24798e-06 6.05058e-06 0.0183298)
(3.97016e-06 4.86555e-06 0.0183246)
(7.36353e-07 2.5057e-06 0.018321)
(-2.83477e-06 -1.79658e-06 0.0183181)
(5.11143e-06 8.19718e-06 0.018325)
(2.34266e-06 5.9037e-06 0.018321)
(-9.51788e-07 2.56326e-06 0.0183187)
(-3.93969e-06 -2.03427e-06 0.0183174)
(3.43345e-06 8.40079e-06 0.0183191)
(3.41315e-07 5.67992e-06 0.0183166)
(-2.90748e-06 2.16201e-06 0.0183158)
(-5.30754e-06 -1.80561e-06 0.0183162)
(3.14796e-06 1.10649e-06 0.0183302)
(1.92534e-06 9.52963e-07 0.0183269)
(-1.20916e-07 -2.05742e-08 0.0183246)
(-2.59709e-06 -2.34085e-06 0.018323)
(2.75995e-06 2.67496e-06 0.0183285)
(1.32462e-06 1.78784e-06 0.0183258)
(-6.92164e-07 1.6298e-07 0.0183239)
(-2.80696e-06 -2.4862e-06 0.0183228)
(2.02471e-06 3.43104e-06 0.0183261)
(3.85737e-07 1.94203e-06 0.018324)
(-1.57779e-06 -1.65177e-07 0.0183229)
(-3.34483e-06 -2.86517e-06 0.0183225)
(9.48173e-07 3.14166e-06 0.0183231)
(-8.03296e-07 1.44844e-06 0.0183219)
(-2.65696e-06 -6.67991e-07 0.0183216)
(-4.04716e-06 -2.89385e-06 0.0183221)
(1.16925e-06 4.15198e-07 0.0183293)
(3.33385e-07 1.58977e-07 0.0183276)
(-9.60597e-07 -6.37554e-07 0.0183265)
(-2.39732e-06 -2.19086e-06 0.018326)
(9.42102e-07 9.86357e-07 0.0183285)
(2.6163e-08 3.4118e-07 0.0183271)
(-1.20825e-06 -7.63259e-07 0.0183262)
(-2.43566e-06 -2.40798e-06 0.018326)
(4.83504e-07 1.10382e-06 0.0183272)
(-5.05325e-07 1.4123e-07 0.0183263)
(-1.67075e-06 -1.17503e-06 0.0183258)
(-2.69157e-06 -2.78157e-06 0.0183259)
(-1.92165e-07 6.68145e-07 0.0183258)
(-1.19853e-06 -3.74147e-07 0.0183253)
(-2.26041e-06 -1.6322e-06 0.0183254)
(-3.05348e-06 -2.88771e-06 0.0183258)
(2.14057e-07 8.90913e-08 0.0183293)
(-3.50576e-07 -1.72034e-07 0.0183285)
(-1.14678e-06 -7.73631e-07 0.018328)
(-1.9606e-06 -1.79923e-06 0.018328)
(8.33836e-08 2.00565e-07 0.0183289)
(-4.98522e-07 -2.53592e-07 0.0183282)
(-1.23868e-06 -9.85462e-07 0.0183279)
(-1.93454e-06 -2.00553e-06 0.0183281)
(-1.93967e-07 6.24353e-08 0.0183283)
(-7.91448e-07 -5.45772e-07 0.0183279)
(-1.47414e-06 -1.35875e-06 0.0183278)
(-2.05079e-06 -2.31601e-06 0.0183281)
(-6.06142e-07 -3.56604e-07 0.0183277)
(-1.18354e-06 -9.84516e-07 0.0183276)
(-1.79089e-06 -1.72277e-06 0.0183277)
(-2.2359e-06 -2.4284e-06 0.0183282)
(-1.79727e-07 -4.20127e-08 0.0183296)
(-5.44681e-07 -2.58947e-07 0.0183292)
(-1.0148e-06 -6.8143e-07 0.0183291)
(-1.45732e-06 -1.33546e-06 0.0183293)
(-2.5213e-07 -1.06733e-07 0.0183294)
(-6.09989e-07 -4.11808e-07 0.0183292)
(-1.03872e-06 -8.78798e-07 0.0183291)
(-1.41791e-06 -1.4974e-06 0.0183294)
(-4.14694e-07 -3.04807e-07 0.0183292)
(-7.66487e-07 -6.77842e-07 0.0183291)
(-1.15409e-06 -1.16624e-06 0.0183292)
(-1.4672e-06 -1.72621e-06 0.0183295)
(-6.57406e-07 -6.40896e-07 0.018329)
(-9.80167e-07 -1.00698e-06 0.018329)
(-1.31896e-06 -1.42869e-06 0.0183292)
(-1.56084e-06 -1.81933e-06 0.0183296)
(-3.04075e-07 -7.47978e-08 0.0183299)
(-5.18095e-07 -2.33999e-07 0.0183298)
(-7.72341e-07 -5.07599e-07 0.0183298)
(-9.89861e-07 -8.98401e-07 0.0183302)
(-3.43635e-07 -1.74853e-07 0.0183298)
(-5.46678e-07 -3.69472e-07 0.0183298)
(-7.75186e-07 -6.51255e-07 0.0183299)
(-9.62207e-07 -1.00627e-06 0.0183302)
(-4.37104e-07 -3.4035e-07 0.0183298)
(-6.29313e-07 -5.60246e-07 0.0183298)
(-8.31839e-07 -8.39767e-07 0.01833)
(-9.84502e-07 -1.15088e-06 0.0183304)
(-5.75382e-07 -5.70873e-07 0.0183298)
(-7.43232e-07 -7.76267e-07 0.0183299)
(-9.16213e-07 -1.00756e-06 0.0183302)
(-1.03357e-06 -1.2178e-06 0.0183305)
(-3.59488e-07 -7.51744e-08 0.0183302)
(-4.75063e-07 -1.93375e-07 0.0183302)
(-5.95643e-07 -3.70128e-07 0.0183303)
(-6.75796e-07 -5.96123e-07 0.0183306)
(-3.88782e-07 -1.61947e-07 0.0183302)
(-4.95695e-07 -2.92445e-07 0.0183302)
(-6.03135e-07 -4.64902e-07 0.0183304)
(-6.72613e-07 -6.62782e-07 0.0183307)
(-4.49224e-07 -2.73484e-07 0.0183302)
(-5.47238e-07 -4.09596e-07 0.0183303)
(-6.39397e-07 -5.71568e-07 0.0183305)
(-6.92476e-07 -7.38351e-07 0.0183309)
(-5.33793e-07 -4.13308e-07 0.0183303)
(-6.15853e-07 -5.35847e-07 0.0183305)
(-6.89398e-07 -6.66981e-07 0.0183307)
(-7.25116e-07 -7.81457e-07 0.018331)
(0.000909438 -0.000863088 0.0134828)
(-0.00221909 -0.00288421 0.0101179)
(0.0010764 -0.00333742 0.0142246)
(0.00179047 -0.00147043 0.0098393)
(-0.00242019 -0.0016897 0.019024)
(-0.00188437 -0.00117098 0.0146481)
(0.0016355 -0.00198675 0.0152539)
(0.00122627 -0.00355378 0.0193507)
(-0.00102888 -0.000378402 0.013424)
(0.00051658 0.00196537 0.0183282)
(0.00115996 0.00123912 0.0180472)
(0.000823168 5.37522e-05 0.0207699)
(0.00212439 -0.000895175 0.0196247)
(4.77827e-05 -0.000133311 0.00795058)
(0.00148723 0.00251234 0.0227868)
(0.000391027 -0.000871688 0.0202614)
(0.00199855 -0.000140104 0.0627641)
(0.000900233 -0.000969671 0.0548427)
(0.000685058 -0.000355796 0.0328778)
(-0.000959879 -0.00484132 0.0725907)
(0.00133545 0.000963501 0.0535692)
(0.00105863 0.000453169 0.0278739)
(-0.000670898 5.86653e-05 0.035047)
(-0.00402087 -0.00394706 0.0504931)
(0.00103427 0.00131536 0.0384641)
(-0.000133598 0.00144554 0.0409928)
(-0.00182172 -7.42912e-05 0.0348508)
(-0.00178985 -0.00132862 0.034979)
(0.00103007 0.000745618 0.0475851)
(-0.00143071 0.00104952 0.0603416)
(-0.0027865 0.00310547 0.0357204)
(-0.00256158 0.00630667 0.0474379)
(-0.00126593 0.00236189 0.0342354)
(0.00279796 0.003401 0.0301395)