/*--------------------------------*- C++ -*----------------------------------*\
| =========                 |                                                 |
| \\      /  F ield         | OpenFOAM: The Open Source CFD Toolbox           |
|  \\    /   O peration     | Version:  2506                                  |
|   \\  /    A nd           | Website:  www.openfoam.com                      |
|    \\/     M anipulation  |                                                 |
\*---------------------------------------------------------------------------*/
FoamFile
{
    version     2.0;
    format      ascii;
    arch        "LSB;label=32;scalar=64";
    class       volScalarField;
    location    "0.09";
    object      voidfraction;
}
// * * * * * * * * * * * * * * * * * * * * * * * * * * * * * * * * * * * * * //

dimensions      [0 0 0 0 0 0 0];

internalField   nonuniform List<scalar> 
1152
(
0.518097
0.562864
0.47333
0.460163
0.53653
0.45753
0.483863
0.41803
0.478597
0.486497
0.40223
0.49703
0.499664
0.41803
0.38643
0.396963
0.339029
0.486497
0.43383
0.454897
0.43383
0.475963
0.44173
0.478597
0.436463
0.412763
0.486497
0.45753
0.444363
0.452263
0.452263
0.483863
0.439097
0.436463
0.389063
0.399596
0.39433
0.452263
0.389063
0.367996
0.357463
0.436463
0.41013
0.40223
0.396963
0.310062
0.454897
0.362729
0.344296
0.344296
0.40223
0.399596
0.41803
0.412763
0.446997
0.415396
0.415396
0.373263
0.381163
0.38643
0.43383
0.439097
0.41013
0.396963
0.396963
0.383796
0.38643
0.381163
0.294262
0.373263
0.396963
0.439097
0.415396
0.396963
0.391696
0.41013
0.373263
0.483863
0.346929
0.494397
0.349563
0.444363
0.38643
0.396963
0.431196
0.320596
0.40223
0.412763
0.396963
0.46543
0.420663
0.352196
0.349563
0.396963
0.378529
0.415396
0.652398
0.547064
0.552331
0.665565
0.47333
0.486497
0.494397
0.570764
0.515464
0.52863
0.431196
0.541797
0.38643
0.523364
0.48123
0.626064
1
1
1
1
1
1
0.997367
1
1
1
0.973667
1
1
0.973667
0.978933
1
1
1
1
1
1
1
1
1
1
1
1
1
1
1
1
1
1
1
1
1
1
1
1
1
1
1
1
1
1
1
1
1
1
1
1
1
1
1
1
1
1
1
1
1
1
1
1
1
1
1
1
1
1
1
1
1
1
1
1
1
1
1
1
1
1
1
1
1
1
1
1
1
1
1
1
1
1
1
1
1
1
1
1
1
1
1
1
1
1
1
1
1
1
1
1
1
1
1
1
1
1
1
1
1
1
1
1
1
1
1
1
1
1
1
1
1
1
1
1
1
1
1
1
1
1
1
1
1
1
1
1
1
1
1
1
1
1
1
1
1
1
1
1
1
1
1
1
1
1
1
1
1
1
1
1
1
1
1
1
1
1
1
1
1
1
1
1
1
1
1
1
1
1
1
1
1
1
1
1
1
1
1
1
1
1
1
1
1
1
1
1
1
1
1
1
1
1
1
1
1
1
1
1
1
1
1
1
1
1
1
1
1
1
1
1
1
1
1
1
1
1
1
1
1
1
1
1
1
1
1
1
1
1
1
1
1
1
1
1
1
1
1
1
1
1
1
1
1
1
1
1
1
1
1
1
1
0.464889
0.42638
0.534722
0.42267
0.38876
0.427022
0.464045
0.47401
0.487063
0.472931
0.462642
0.492255
0.496322
0.4505
0.457583
0.412943
0.414778
0.468306
0.506457
0.428065
0.404585
0.507366
0.395833
0.44307
0.449477
0.46106
0.473721
0.593804
0.481286
0.445086
0.415858
0.456753
0.391513
0.401606
0.412967
0.479324
0.471841
0.420679
0.383652
0.402847
0.405258
0.43257
0.457102
0.372572
0.338452
0.350345
0.428697
0.382276
0.436254
0.428286
0.432534
0.460439
0.365023
0.405879
0.403142
0.378095
0.414102
0.482428
0.401704
0.412466
0.381052
0.428845
0.380553
0.426086
0.430885
0.42638
0.434709
0.430763
0.428323
0.365707
0.454301
0.430693
0.462742
0.425447
0.393394
0.339931
0.37604
0.41531
0.351667
0.386657
0.418358
0.441626
0.421663
0.42267
0.422388
0.359364
0.405578
0.399753
0.416313
0.373215
0.362926
0.347184
0.488804
0.404483
0.393391
0.417324
0.629539
0.628386
0.623864
0.530582
0.65185
0.651139
0.544439
0.554456
0.661727
0.710349
0.734091
0.579297
0.654191
0.575017
0.762492
0.684566
1
1
1
1
1
1
1
1
1
1
1
1
1
1
1
1
1
1
1
1
1
1
1
1
1
1
1
1
1
1
1
1
1
1
1
1
1
1
1
1
1
1
1
1
1
1
1
1
1
1
1
1
1
1
1
1
1
1
1
1
1
1
1
1
1
1
1
1
1
1
1
1
1
1
1
1
1
1
1
1
1
1
1
1
1
1
1
1
1
1
1
1
1
1
1
1
1
1
1
1
1
1
1
1
1
1
1
1
1
1
1
1
1
1
1
1
1
1
1
1
1
1
1
1
1
1
1
1
1
1
1
1
1
1
1
1
1
1
1
1
1
1
1
1
1
1
1
1
1
1
1
1
1
1
1
1
1
1
1
1
1
1
1
1
1
1
1
1
1
1
1
1
1
1
1
1
1
1
1
1
1
1
1
1
1
1
1
1
1
1
1
1
1
1
1
1
1
1
1
1
1
1
1
1
1
1
1
1
1
1
1
1
1
1
1
1
1
1
1
1
1
1
1
1
1
1
1
1
1
1
1
1
1
1
1
1
1
1
1
1
1
1
1
1
1
1
1
1
1
1
1
1
1
1
1
1
1
1
1
1
1
1
1
1
1
1
1
1
1
1
1
1
0.452372
0.423346
0.455446
0.425368
0.489678
0.451562
0.459173
0.49776
0.442379
0.480053
0.481994
0.508326
0.488804
0.400836
0.519316
0.525738
0.513706
0.506762
0.433788
0.541373
0.486469
0.379545
0.417758
0.482541
0.426138
0.442066
0.418565
0.422569
0.471263
0.518016
0.436235
0.488155
0.3998
0.376198
0.371906
0.409181
0.444744
0.387855
0.456737
0.412967
0.428845
0.430195
0.418565
0.3997
0.446204
0.422946
0.45206
0.384354
0.412943
0.379825
0.375
0.449648
0.370924
0.396164
0.422631
0.432534
0.41531
0.423073
0.399536
0.43972
0.401099
0.38536
0.438213
0.368247
0.395419
0.354438
0.430693
0.465835
0.380553
0.374005
0.432375
0.421663
0.363879
0.392208
0.399536
0.416852
0.411122
0.403047
0.434257
0.386144
0.430467
0.405212
0.365718
0.433461
0.531403
0.432173
0.449429
0.417315
0.399069
0.377963
0.41645
0.458777
0.358499
0.420735
0.384804
0.371826
0.583803
0.535776
0.551362
0.568351
0.62769
0.642684
0.5688
0.534722
0.745552
0.684233
0.691311
0.47974
0.574003
0.701524
0.588551
0.606273
1
1
1
1
1
1
1
1
1
1
1
0.979037
1
1
1
1
1
1
1
1
1
1
1
1
1
1
1
1
1
1
1
1
1
1
1
1
1
1
1
1
1
1
1
1
1
1
1
1
1
1
1
1
1
1
1
1
1
1
1
1
1
1
1
1
1
1
1
1
1
1
1
1
1
1
1
1
1
1
1
1
1
1
1
1
1
1
1
1
1
1
1
1
1
1
1
1
1
1
1
1
1
1
1
1
1
1
1
1
1
1
1
1
1
1
1
1
1
1
1
1
1
1
1
1
1
1
1
1
1
1
1
1
1
1
1
1
1
1
1
1
1
1
1
1
1
1
1
1
1
1
1
1
1
1
1
1
1
1
1
1
1
1
1
1
1
1
1
1
1
1
1
1
1
1
1
1
1
1
1
1
1
1
1
1
1
1
1
1
1
1
1
1
1
1
1
1
1
1
1
1
1
1
1
1
1
1
1
1
1
1
1
1
1
1
1
1
1
1
1
1
1
1
1
1
1
1
1
1
1
1
1
1
1
1
1
1
1
1
1
1
1
1
1
1
1
1
1
1
1
1
1
1
1
1
1
1
1
1
1
1
1
1
1
1
1
1
1
1
1
1
1
1
)
;

boundaryField
{
    inlet
    {
        type            fixedValue;
        value           uniform 1;
    }
    outlet
    {
        type            fixedValue;
        value           uniform 1;
    }
    wall
    {
        type            zeroGradient;
    }
    procBoundary1to0
    {
        type            processor;
        value           nonuniform List<scalar> 
192
(
0.44963
0.46543
0.444363
0.539164
0.460163
0.439097
0.436463
0.491764
0.375896
0.389063
0.415396
0.46543
0.483863
0.367996
0.41013
0.315329
0.396963
0.518097
0.370629
0.360096
0.47333
0.370629
0.454897
0.478597
0.620798
0.525997
0.507564
0.578664
1
1
1
1
1
1
1
1
1
1
1
1
1
1
1
1
1
1
1
1
1
1
1
1
1
1
1
1
1
1
1
1
1
1
1
1
1
1
1
1
1
1
1
1
1
1
1
1
1
1
1
1
1
1
1
1
1
1
1
1
1
1
1
1
1
1
1
1
0.438044
0.541076
0.418524
0.363511
0.520369
0.444148
0.471586
0.453722
0.493524
0.416454
0.378727
0.443699
0.375406
0.475798
0.414102
0.41864
0.396882
0.351176
0.327875
0.361005
0.423727
0.341285
0.396414
0.335946
0.652804
0.752735
0.688258
0.686767
1
1
1
1
1
1
1
1
1
1
1
1
1
1
1
1
1
1
1
1
1
1
1
1
1
1
1
1
1
1
1
1
1
1
1
1
1
1
1
1
1
1
1
1
1
1
1
1
1
1
1
1
1
1
1
1
1
1
1
1
1
1
1
1
1
1
1
1
)
;
    }
    procBoundary1to3
    {
        type            processor;
        value           nonuniform List<scalar> 
192
(
0.428563
0.436463
0.578664
0.41013
0.462797
0.53653
0.42593
0.40223
0.381163
0.346929
0.44963
0.486497
0.383796
0.370629
0.360096
0.46543
0.491764
0.296896
0.452263
0.317962
0.415396
0.48123
0.407496
0.365363
0.607631
0.523364
0.578664
0.739298
1
1
1
1
1
1
1
1
1
1
1
1
1
1
1
1
1
1
1
1
1
1
1
1
1
1
1
1
1
1
1
1
1
1
1
1
1
1
1
1
1
1
1
1
1
1
1
1
1
1
1
1
1
1
1
1
1
1
1
1
1
1
1
1
1
1
1
1
0.433675
0.469375
0.430301
0.411199
0.416134
0.449477
0.543054
0.441623
0.393581
0.372094
0.368979
0.445203
0.366017
0.394203
0.410519
0.421937
0.393581
0.422946
0.396673
0.436254
0.463745
0.467164
0.424366
0.46131
0.704308
0.683836
0.638004
0.670701
1
1
1
1
1
1
1
1
1
1
1
1
1
1
1
1
1
1
1
1
1
1
1
1
1
1
1
1
1
1
1
1
1
1
1
1
1
1
1
1
1
1
1
1
1
1
1
1
1
1
1
1
1
1
1
1
1
1
1
1
1
1
1
1
1
1
1
1
)
;
    }
}


// ************************************************************************* //
