FoamFile
{version 2.0; format ascii;class vectorField; location 0;object  v;}
2496
(
( -0.00117184 0.00246315 0.0158301 )  
( 0.00111437 0.00343256 0.012234 )  
( 0.000134164 0.000384911 0.00920449 )  
( 0.000333798 -0.000243225 0.0110903 )  
( -0.000593253 0.00351623 0.0131155 )  
( -0.000161052 0.00023602 6.21892e-05 )  
( -0.00125679 -0.000401675 -0.000366457 )  
( -0.00161627 0.00125414 0.0129217 )  
( -0.00172866 -0.000416624 0.0125498 )  
( 0.000261818 0.000693819 0.0122987 )  
( 0.00078269 -0.000471754 0.00932061 )  
( -0.000700149 0.00323232 0.00922784 )  
( 0.000138624 -2.42245e-05 5.86121e-05 )  
( -0.00126225 0.00192899 0.0103008 )  
( -0.000543696 -0.0012052 0.00752448 )  
( -0.000982086 -0.000492449 5.95553e-05 )  
( -0.000113905 -0.000313019 0.0128178 )  
( -0.000573218 0.00160187 0.0107363 )  
( -0.00271242 -0.000374347 -0.00193708 )  
( -0.00131036 0.000529221 -4.09754e-05 )  
( -0.000108712 -0.000467327 3.05078e-05 )  
( -0.000589458 0.00146972 0.0107633 )  
( -0.00263774 0.00123452 -0.00124171 )  
( -0.00143809 0.00152493 0.0123212 )  
( -0.000181502 0.00171544 0.00047 )  
( -0.00437483 0.000769121 0.00988806 )  
( 0.000335357 0.000355449 0.0116984 )  
( 0.000121929 0.0013523 0.0118423 )  
( -0.00336162 -0.000471019 -0.00131068 )  
( -0.000200227 -0.000291155 0.00011274 )  
( -0.00130308 0.00233385 0.012789 )  
( -0.00105572 0.000915957 0.00806837 )  
( -0.000143678 9.88482e-05 0.0085936 )  
( 0.000484926 -0.000878482 0.00990542 )  
( -0.00076897 -0.000394234 8.03613e-05 )  
( -0.000418941 4.38197e-05 8.54004e-05 )  
( 8.66083e-05 0.000138621 -9.54493e-05 )  
( -0.000440728 0.00127632 0.00930848 )  
( -0.000104883 0.000833808 0.0146952 )  
( -0.00103332 0.00157667 0.0126005 )  
( -0.000793888 -0.000440968 0.00925946 )  
( -0.000314933 -0.00140831 -0.000364248 )  
( 6.81904e-05 0.0013118 0.00965502 )  
( -0.00079772 0.00119411 -7.75771e-05 )  
( -0.00123264 0.00092613 -1.35383e-05 )  
( 0.000372702 0.000667934 0.0114895 )  
( 0.00693289 -0.00285068 0.0141714 )  
( -0.00221587 0.0012042 0.0118702 )  
( -0.000647197 0.00352371 -0.00314028 )  
( -0.000273086 -0.000273148 0.00885704 )  
( -0.00148123 -0.000252486 0.0120587 )  
( 0.000809211 0.00173538 0.0123459 )  
( -0.0039456 0.000760468 3.57985e-05 )  
( 0.000183952 0.000279442 -8.09391e-05 )  
( -5.7781e-06 2.40059e-05 -1.82469e-05 )  
( 0.000323445 0.000283073 -0.00122535 )  
( -0.00141603 -0.000146774 0.013457 )  
( -0.000987739 0.00048924 0.0132826 )  
( -0.000736685 -1.18291e-05 0.00034629 )  
( 7.48916e-05 0.00112782 0.0119666 )  
( 0.00168707 0.00168735 0.0113643 )  
( -0.000388482 0.00059041 0.0101914 )  
( -0.00206824 0.0021128 0.00825595 )  
( -0.00107564 0.00245062 0.0139909 )  
( -0.00144221 0.000938461 0.0105664 )  
( 0.000456314 0.00167903 0.00960066 )  
( -0.000475159 0.00264189 0.0083252 )  
( -0.00103118 -0.00117831 -0.00110827 )  
( -0.000903969 7.18855e-05 -3.03133e-05 )  
( 0.0052998 -0.00183968 4.23204e-07 )  
( -0.00191239 -0.000987112 0.00895792 )  
( -0.000856566 0.00219603 0.0123401 )  
( 0.00233647 0.000407172 -0.00236691 )  
( -0.00128959 0.000663831 0.0146324 )  
( 0.000603184 0.00176349 0.00852095 )  
( -0.00244114 0.00187214 0.0104234 )  
( -0.00020655 0.00105136 0.00985427 )  
( -0.00248919 0.00440906 0.0108513 )  
( 0.0013908 0.0025232 0.00958746 )  
( -0.000239508 -8.65707e-05 -5.06972e-05 )  
( -7.90053e-05 0.000908102 0.000120573 )  
( 5.13231e-05 0.00264873 0.0101869 )  
( -0.000344123 0.00077126 0.010176 )  
( 0.0027995 -0.000528499 7.45749e-07 )  
( -7.47262e-05 0.00460014 0.00936811 )  
( 0.000440689 -0.00024199 -0.000327198 )  
( -0.000578694 0.0011702 0.0125344 )  
( -0.000100515 0.000348033 4.25245e-07 )  
( -0.000797528 0.000338731 0.0073876 )  
( -0.00043696 0.00301657 0.00963348 )  
( -0.0014641 0.00105689 0.00942399 )  
( -0.00137005 0.000812476 0.000420928 )  
( -5.31122e-06 1.78679e-05 -8.0569e-05 )  
( 0.000179431 0.00244272 0.0115705 )  
( 0.000358417 -0.000442484 -0.000245764 )  
( 0.00200273 0.000704525 0.00955413 )  
( 7.77566e-05 -0.000273109 -0.000801661 )  
( -0.000344124 0.00146436 0.0131353 )  
( -9.18756e-05 -4.50232e-05 8.77065e-06 )  
( -0.00131349 0.00198923 0.0146622 )  
( -0.000146007 9.51223e-06 -0.000102649 )  
( -0.00735581 0.00231092 0.00653612 )  
( -0.00134638 0.000905344 0.0157025 )  
( 0.000148798 0.000752252 0.0139613 )  
( -5.19848e-05 0.000371194 -2.28462e-05 )  
( -0.000102624 -0.000139713 0.000156247 )  
( 7.19157e-05 0.000680638 0.0114486 )  
( -4.4983e-05 -1.13158e-05 2.07495e-05 )  
( 1.07528e-05 0.000198693 -4.93703e-06 )  
( -0.00187551 0.00179742 0.0136995 )  
( 0.000393599 0.00214573 0.0134053 )  
( 0.000622018 0.000137229 -0.000357941 )  
( -0.00182117 0.00226908 0.0113685 )  
( 0.00063205 -0.00025839 -0.000974407 )  
( -0.000840415 0.00100389 0.0117009 )  
( 0.000517849 0.00219925 0.0135003 )  
( -0.000113487 0.000291551 3.81012e-06 )  
( -0.00118701 0.00145803 0.0107533 )  
( -0.00214809 0.00137758 0.0128447 )  
( 0.000345553 0.000628025 0.00807172 )  
( 0.00043921 0.000599373 -8.9047e-05 )  
( -0.00174023 0.00407478 0.0119176 )  
( -0.00216099 0.000101818 0.0111074 )  
( -0.000377601 0.00221205 0.0113156 )  
( -0.000610221 0.00293779 -0.00390118 )  
( 7.87509e-05 0.000426417 0.000404639 )  
( -0.000844882 0.00206934 0.00803311 )  
( -6.12048e-05 -4.07535e-05 -6.53171e-05 )  
( -0.00132351 -0.001135 0.0112156 )  
( 0.000996719 0.00485307 0.0093449 )  
( -0.00128219 0.000597731 0.000126879 )  
( -0.00281714 0.00094342 0.0112273 )  
( 0.000348554 0.000316847 0.0102206 )  
( 0.00011333 0.000772648 0.00834718 )  
( -0.000384008 0.00188023 0.011196 )  
( -0.00171975 0.00288063 0.0099366 )  
( -0.000127461 0.000283771 0.0117907 )  
( -0.00119854 0.000904273 0.00134619 )  
( -0.000212523 -6.62295e-05 0.000215786 )  
( 0.00148325 -0.00082144 -1.76172e-05 )  
( 0.000210861 -0.000135805 -0.00032728 )  
( -0.00325626 0.00190931 0.0137165 )  
( 0.000510548 -0.000389324 0.00585995 )  
( 5.56362e-05 -0.000141912 0.00856036 )  
( -0.00362716 0.000390106 0.00826528 )  
( 0.000607138 0.000133038 0.0115232 )  
( -0.00106281 0.0021012 0.0108265 )  
( 0.000280074 -0.000680941 -0.000864562 )  
( 0.000154157 0.000735038 -0.000907401 )  
( 0.00176102 0.00517979 0.0144555 )  
( -0.00300085 -0.00108487 -0.00139616 )  
( -0.00052687 -4.8166e-05 -0.000209283 )  
( 0.000300525 0.000881802 0.00875071 )  
( 0.00161466 -0.000697318 0.00474626 )  
( -0.000649529 -0.000685537 0.000294285 )  
( 0.000510878 0.00164134 0.014735 )  
( 0.00103964 -0.000244611 0.0101904 )  
( -0.00125138 0.000881637 0.00358197 )  
( -0.000540546 -9.24491e-05 0.00816544 )  
( -0.00218352 0.0013996 0.000484327 )  
( -0.001729 0.00307034 0.0150981 )  
( -0.000136414 -8.62088e-06 3.96288e-06 )  
( -0.00014598 0.00261808 0.00931333 )  
( -7.87112e-05 3.68488e-05 0.00795535 )  
( -0.000817808 0.00245614 0.0132548 )  
( -0.00023651 1.17514e-05 0.0016712 )  
( 0.00018777 0.000253734 3.30218e-05 )  
( -0.000455557 0.00105624 0.0129558 )  
( -0.000343113 -0.00115821 0.00709324 )  
( 0.00017232 0.00140805 0.000135164 )  
( 0.00113114 0.00342246 0.0126625 )  
( 0.00157087 0.000279258 0.00853716 )  
( -0.00439209 -0.000589756 0.00943947 )  
( 0.00258538 -0.000187037 0.00377411 )  
( -0.0014239 -0.00109928 0.000906388 )  
( -0.000862777 -0.000308178 -0.000852099 )  
( -0.000296419 0.000862301 0.0145712 )  
( -0.000320083 -0.000418721 -0.000133408 )  
( 0.00181744 0.00135511 0.0111865 )  
( 0.00129521 -0.000884918 0.00468864 )  
( -0.000203746 0.00202287 0.0155283 )  
( -0.00108898 -0.000522208 -4.64698e-05 )  
( -0.00325846 0.00630746 0.00561471 )  
( -0.000845779 0.00338271 0.0120173 )  
( -0.000920965 0.000978857 0.0148455 )  
( -0.000450007 8.30703e-05 0.0134836 )  
( -0.00193259 0.00131359 0.0126081 )  
( -7.012e-05 -0.000436173 0.000500474 )  
( 0.000169428 0.000298065 1.78151e-05 )  
( -0.000481392 0.000238437 -0.00212303 )  
( -4.78682e-05 0.000129718 -8.38142e-05 )  
( -0.000489366 -0.00105569 -9.18258e-07 )  
( -7.03423e-05 -7.02775e-05 -0.000110716 )  
( 0.00215055 0.0011065 0.0108727 )  
( -0.00208852 0.00164587 0.0135367 )  
( -4.622e-05 -0.000731607 0.0100982 )  
( -0.00159057 0.00175132 0.0112777 )  
( -0.000218184 -0.000955656 -0.000689091 )  
( -0.00103154 0.00090217 0.0106677 )  
( 0.00300678 -0.000280565 0.00729695 )  
( -0.000612727 0.00182579 0.0105794 )  
( 3.41023e-05 0.000785435 -2.66959e-05 )  
( -0.00120441 -0.000587663 0.0110503 )  
( -0.000488779 -0.000570408 -0.000383567 )  
( -0.000369619 -0.00101623 -0.000583426 )  
( 0.000543318 0.00223972 0.00954185 )  
( 4.3129e-05 8.24881e-06 -8.57027e-06 )  
( -0.00355977 0.00628128 0.0125837 )  
( -0.00213769 0.000466237 0.010563 )  
( -0.00393649 0.00206904 0.0125049 )  
( -0.000918332 0.00104176 0.000927574 )  
( 0.00139139 -0.000522175 0.0129871 )  
( 0.00026806 0.00112227 -0.00100372 )  
( 7.35189e-05 -0.00166467 -0.000295448 )  
( 0.00065699 0.00133309 0.00808218 )  
( -0.00300601 0.0037672 0.00790874 )  
( -0.00227776 7.89737e-05 0.0118669 )  
( 0.000975678 8.37099e-05 0.00891778 )  
( 0.000537347 0.00118995 0.00988903 )  
( -0.000209393 0.00126036 0.0112474 )  
( 0.00169455 -0.00078289 0.00954259 )  
( -0.00121612 -0.000934927 0.00702513 )  
( -0.000225258 0.000417734 -0.000980876 )  
( -0.000338127 0.00101754 0.0121798 )  
( 9.50257e-05 0.00138879 0.011794 )  
( -0.000694216 -0.000631203 -0.000384092 )  
( -0.00162295 5.30097e-05 0.000868917 )  
( -0.00216267 0.00202887 0.0106378 )  
( 5.43732e-05 -2.68275e-06 4.53928e-05 )  
( -0.0010754 0.000444535 0.000209545 )  
( -0.000381059 0.00220875 0.00806077 )  
( 6.64986e-07 0.000627496 0.010382 )  
( -0.00115987 0.00103319 0.0079359 )  
( -0.00791171 -0.00136016 0.0132838 )  
( -0.00109624 -0.000648116 -0.000229759 )  
( -0.00077894 0.00203726 0.00740191 )  
( -0.00217234 0.00292058 0.0117278 )  
( -0.00110251 0.000236169 0.0101432 )  
( 5.41168e-05 -0.00119933 0.010057 )  
( -0.0016014 0.0027841 0.00911979 )  
( 0.000596962 -0.00110886 0.00724595 )  
( 0.00110817 -0.00161821 0.00936704 )  
( 0.000224307 0.00208534 0.010252 )  
( -0.00302202 0.000493318 -0.0033101 )  
( -0.00132672 0.00136525 0.0144012 )  
( -0.00144792 0.00422292 0.00771908 )  
( 0.000279145 0.00123553 0.0132085 )  
( -0.00340483 -8.93235e-05 0.00264212 )  
( -0.000851264 -0.000420676 -0.000160668 )  
( -0.00170593 0.00160553 0.0116736 )  
( -0.000759603 -0.000234436 -0.000242156 )  
( -0.00105391 -0.000195327 -3.0093e-07 )  
( -0.00307717 -0.000297128 0.00144162 )  
( -0.000727645 0.00134115 0.0102247 )  
( 0.000296997 2.07874e-05 0.00835095 )  
( -0.000368086 0.00046522 0.000742415 )  
( 0.00193541 -0.000664467 -0.000200458 )  
( -0.000818505 0.00306087 0.0118379 )  
( -0.00190046 0.00149472 0.00069361 )  
( -0.00184828 0.00205832 0.00914649 )  
( 0.00144672 0.00115941 0.00367069 )  
( -0.000284337 0.00253168 0.0107159 )  
( -0.00122165 0.000402696 0.00999205 )  
( -8.42883e-06 -0.000107091 -0.000230004 )  
( -0.00288167 0.00522207 0.0109652 )  
( -0.000757597 0.00239739 0.0121754 )  
( -0.000834452 0.00153049 0.0125927 )  
( -0.000504929 -0.000513541 0.0131247 )  
( -2.2195e-06 8.01152e-05 0.00250495 )  
( -0.0011155 0.00143465 0.0133498 )  
( -2.61046e-05 7.75315e-06 7.05096e-06 )  
( -0.000526232 0.000852975 0.0124595 )  
( -0.00165961 0.00196562 0.0101532 )  
( -0.00112407 0.000766981 0.01004 )  
( -8.54156e-05 -5.25429e-05 -2.03804e-05 )  
( 0.00574627 0.00194497 0.00936008 )  
( -0.000108335 0.00192635 0.00919389 )  
( -0.0024488 0.00106562 0.0162255 )  
( -0.000921721 0.00117199 0.0137617 )  
( -0.000146097 0.0014255 0.0134117 )  
( 0.000711558 0.00137195 0.00304347 )  
( 6.52087e-05 -4.55638e-05 -8.78024e-05 )  
( -0.000286968 0.00305968 0.000985656 )  
( 0.00205902 -0.000450837 0.00636291 )  
( 0.00373928 -0.00192846 0.000172592 )  
( -0.000494926 0.000791933 0.00875675 )  
( 0.000238625 0.000346246 -0.000779784 )  
( 0.0010093 0.00414329 0.0111277 )  
( -0.00126807 0.000420245 0.0112309 )  
( -0.000250135 0.000480709 0.00860277 )  
( -0.00116244 0.00029045 2.5628e-05 )  
( -0.000845193 0.00090241 0.0101075 )  
( 0.00323345 0.00121139 0.00799519 )  
( 0.000539116 -0.000925465 -0.000350099 )  
( 0.000453108 8.53803e-05 -3.43455e-05 )  
( -0.00109275 0.0013319 0.0131259 )  
( -0.000536866 0.00105132 0.000383557 )  
( 0.000793212 -0.00112606 -0.00189269 )  
( -0.00358188 -0.000395648 0.0156448 )  
( 0.000392931 0.00266697 0.00899031 )  
( -0.000309847 6.38485e-05 -0.000758958 )  
( -0.000557582 0.00151859 0.00861054 )  
( -0.00105495 0.00327976 0.0136659 )  
( -0.00264936 0.00561369 0.00449361 )  
( -0.00182615 -0.000574535 0.00976179 )  
( -0.00118038 0.00228747 0.0148519 )  
( 8.27062e-05 0.00229605 0.00978844 )  
( -0.00203562 0.00325992 0.0141078 )  
( -0.000351139 -0.000311067 5.13523e-05 )  
( -0.00515215 0.00155907 0.0132437 )  
( -0.00218973 -0.000127131 0.0106652 )  
( -0.000809734 0.00266068 0.011741 )  
( -0.00188379 0.00133223 0.0136072 )  
( -0.0011841 0.00252989 0.012942 )  
( 0.00278962 -0.00159846 0.00408627 )  
( -0.0049204 0.000287473 0.0128917 )  
( -0.000193532 0.00071745 -6.74875e-05 )  
( -0.00364926 -0.00222183 0.00747166 )  
( -1.8734e-05 0.00105377 0.00988258 )  
( -0.00185823 0.0021348 0.00905659 )  
( -0.000197542 0.000649602 0.0112353 )  
( -0.000699617 0.00449211 0.0116133 )  
( -0.000831954 0.000864829 0.00942664 )  
( -0.00622333 0.00175907 0.00219884 )  
( 0.000133384 0.000117745 0.0102929 )  
( -8.00629e-05 7.57149e-06 6.16039e-05 )  
( 0.000492007 -7.32937e-05 -0.000169892 )  
( -0.003252 0.00327455 0.0139227 )  
( -0.00629974 0.00218353 0.0118081 )  
( -0.00101423 0.00317204 0.00638709 )  
( 0.00109246 0.000685 0.0102643 )  
( -0.000109257 0.00399338 0.0106672 )  
( -0.00203308 0.000780482 -0.000308493 )  
( 0.00101863 0.00123466 0.00698659 )  
( -0.00159445 0.00138898 0.0104444 )  
( -0.00286733 0.000118572 0.00488957 )  
( -0.00105548 0.000752878 0.00823557 )  
( -0.00199597 0.00239484 0.0109741 )  
( 0.00178928 -0.00190315 0.00681061 )  
( 0.000426292 0.00107208 0.00969576 )  
( -0.000186109 0.000221507 -5.10783e-05 )  
( -1.64146e-05 8.73964e-05 0.000219644 )  
( -0.000303123 0.000628528 0.0122865 )  
( -0.000142311 -0.000728187 -0.000116664 )  
( -0.000685292 0.00038955 -2.63412e-05 )  
( 0.000960881 0.00130012 0.0101729 )  
( -0.00070103 0.00277834 0.016112 )  
( 0.000882789 0.00192319 0.00974325 )  
( -0.000665526 0.000488199 0.0116364 )  
( -0.000366488 -0.000226655 -0.000409937 )  
( -0.000837384 0.00161879 0.00945699 )  
( 0.000282238 -0.000137588 -5.44581e-05 )  
( -0.00129898 0.00135007 0.0123432 )  
( -0.000575503 0.00119116 0.00775949 )  
( 0.000486713 0.00460652 0.0115257 )  
( 0.0018405 0.00157544 0.0123501 )  
( 0.000689591 0.00129399 0.0102452 )  
( 6.96223e-05 0.000315601 -6.83018e-05 )  
( -9.01401e-05 0.000692858 0.000662729 )  
( -0.00148203 0.000675544 0.010648 )  
( 0.00151795 0.00107122 0.00766409 )  
( -0.000583363 -0.00059603 0.0107915 )  
( 0.00121082 -0.000389172 0.000678769 )  
( -0.000920015 -0.00161571 0.00876536 )  
( 0.000169361 4.30802e-05 1.57542e-05 )  
( -9.41437e-05 0.000599191 0.0101871 )  
( -0.00104335 0.000866147 0.0127394 )  
( -0.00129663 0.00198589 0.0155684 )  
( -0.00120939 0.000121403 5.58212e-05 )  
( 0.000276881 0.0013526 3.53322e-05 )  
( 0.00162842 0.000551227 0.0117029 )  
( 0.000261471 0.000195767 8.70373e-05 )  
( 0.00235071 0.000441865 0.00966222 )  
( 2.74196e-05 7.9551e-05 3.178e-05 )  
( -0.00065373 0.000366736 -0.00027268 )  
( -0.00247693 0.00193473 0.0103828 )  
( -0.000759517 0.00380497 0.015316 )  
( -0.000108425 -5.73041e-05 -6.14957e-05 )  
( -0.00168695 0.000494762 0.00948017 )  
( -0.000987105 -6.75056e-05 -0.000812753 )  
( -0.00143874 0.000442765 0.0117087 )  
( 0.000364073 0.000289211 0.000131626 )  
( -9.70421e-05 0.00266433 0.0124598 )  
( 0.00100334 0.000209762 0.00232176 )  
( 0.000153842 0.00273293 0.0103422 )  
( -0.00118264 0.00133561 0.0128358 )  
( -0.0032508 0.00301752 0.0132501 )  
( 8.59647e-05 -5.9729e-05 -0.000168101 )  
( -0.000554058 0.00115833 0.00684828 )  
( -0.00129821 -0.000450815 0.00885745 )  
( -0.00392876 0.00494075 0.011625 )  
( 0.00124075 0.00143576 0.0102816 )  
( -7.39601e-05 0.00341729 0.0119457 )  
( 0.00202205 0.00455552 0.0143289 )  
( 0.000155408 0.000421243 0.000273108 )  
( -0.000377807 0.000764173 -0.00115917 )  
( 0.000232589 0.00180377 0.0121681 )  
( -0.0025716 -0.0027928 0.0149682 )  
( -0.000130087 0.00228793 0.00905955 )  
( 0.000108077 -0.00164814 -0.000493796 )  
( -0.00206466 0.00105605 0.00582715 )  
( 3.68611e-05 0.000604856 0.000483363 )  
( 0.000553834 0.000360779 6.31149e-06 )  
( -0.000167469 0.00237373 0.0127109 )  
( -0.000552766 0.00130749 0.0145448 )  
( 0.000128709 0.00138021 0.0108612 )  
( -0.00184244 0.00269823 0.0154611 )  
( 0.00239825 -0.000348016 -0.00198278 )  
( -0.000516651 0.00185676 0.0111839 )  
( -0.000492214 0.000164884 -6.75435e-06 )  
( 3.07839e-05 -0.000414268 -0.000600279 )  
( -0.00127878 0.00097899 0.0128038 )  
( -0.00373375 0.00188409 0.0108565 )  
( -0.00171265 0.00100566 0.0110834 )  
( -4.03241e-05 0.000408486 -0.000119774 )  
( -0.00180708 0.00174371 0.013619 )  
( -9.45876e-05 -0.000377112 0.00359515 )  
( 0.00186129 6.63318e-06 0.00175414 )  
( -0.00148469 0.00330353 0.00884231 )  
( 0.000471409 -0.00054992 0.000787972 )  
( -8.07202e-05 6.27135e-05 1.64906e-05 )  
( 0.000793852 0.000827499 0.0133845 )  
( -0.000258859 6.65117e-05 -0.000137587 )  
( -0.000755628 -0.000787108 0.0140945 )  
( 0.000400716 0.00054542 -4.30127e-06 )  
( 2.31457e-05 0.000109183 8.04619e-06 )  
( -0.000728492 0.0012522 -0.00143488 )  
( -0.00108002 0.00225634 0.0105429 )  
( 0.0011984 -0.000772253 9.73744e-05 )  
( 0.00218609 0.00324743 0.0118472 )  
( 0.000520601 0.000922948 0.00933809 )  
( -0.000152017 0.000975409 0.00986197 )  
( -0.000343997 0.000393426 0.000193988 )  
( 0.00222138 0.000919615 0.00748363 )  
( -0.000950184 0.000557062 0.0118729 )  
( -0.000933876 0.00309681 0.0132646 )  
( -0.00110779 0.00142289 0.0118735 )  
( -0.00210477 0.00233878 0.000602731 )  
( -0.00297272 -0.000225471 0.00779661 )  
( -0.00132433 0.00110211 0.0109551 )  
( -0.00230663 -6.01864e-05 0.0126179 )  
( 0.000339291 -0.000120319 0.00212771 )  
( 0.00390667 -0.000765125 0.00741707 )  
( -0.00131551 0.000413402 0.000293192 )  
( -0.00073144 0.00172232 -0.000676376 )  
( 0.000844991 9.294e-06 0.00969862 )  
( -0.0030002 0.00168365 0.00145176 )  
( 0.000503283 0.00310432 0.0149148 )  
( -0.00121365 0.000592796 0.0136425 )  
( -0.000370855 -0.000136885 -3.54101e-05 )  
( 0.00103556 0.00085436 0.00872381 )  
( 0.00301224 0.000906578 0.0138676 )  
( -0.000471047 0.000803215 -6.17224e-05 )  
( -0.00195885 -0.000787481 0.000598826 )  
( 0.000839682 0.00120456 0.0108865 )  
( -0.00122572 0.000472827 0.0127584 )  
( 0.00357438 -0.00153237 0.00840084 )  
( 0.000394832 0.00021956 -0.000241542 )  
( -0.000459986 0.00396949 0.00800566 )  
( -0.00198285 0.000426989 0.0099944 )  
( -0.00114564 0.00121672 -0.000411804 )  
( 0.00220712 0.00236984 0.0122715 )  
( -0.00255132 0.00214036 0.0124527 )  
( 0.000521032 0.00170552 0.00828571 )  
( -0.00323992 0.000611624 0.00464355 )  
( -0.00153283 0.001463 -0.00117407 )  
( -0.00187041 0.00226039 0.00571722 )  
( -0.00043297 -0.000177356 -0.000398215 )  
( 0.000303738 0.00113989 0.00962979 )  
( 0.000437016 -0.000634553 0.0102992 )  
( -0.000657125 0.000940118 0.0164103 )  
( 8.04266e-05 0.000180717 1.55211e-05 )  
( -0.00363547 0.00436337 0.0104652 )  
( -0.000226522 0.00308859 0.00752576 )  
( -0.00271762 0.000586124 0.00761916 )  
( -0.00125341 0.000573137 0.0103218 )  
( -0.00272471 0.00471471 0.00773554 )  
( 0.00159051 0.00444468 0.0140319 )  
( -0.00139019 -0.000100924 0.014285 )  
( -0.00112153 0.000370639 -0.000199734 )  
( -0.000216522 0.000525873 -0.000106409 )  
( -0.00246689 0.00203967 0.0128476 )  
( 0.00169897 -0.000433941 0.0103636 )  
( -0.00298533 0.000695631 -0.00199346 )  
( 0.000332348 0.00319394 0.00787323 )  
( 0.00139438 -0.000356817 0.000347538 )  
( 3.97314e-05 0.000233196 3.81223e-05 )  
( -0.000398128 0.00202788 0.0134837 )  
( -0.00053614 0.000274082 -0.000176123 )  
( -0.000490893 0.00295713 0.0132886 )  
( -0.000715218 0.00168818 0.0102406 )  
( 0.000345109 -0.000389046 0.00712712 )  
( 0.000472512 -0.00109172 -1.63361e-06 )  
( 0.000924369 0.00251679 0.0105352 )  
( 9.3464e-06 0.000142506 -5.55597e-06 )  
( 0.00125631 -0.00112689 -0.000310882 )  
( -0.000768978 0.002163 0.00924507 )  
( -0.000316985 0.00504092 0.014046 )  
( -0.000949786 0.00103221 0.00849049 )  
( 0.000840697 9.79829e-05 -0.000422658 )  
( -0.000259734 1.28999e-05 0.000150405 )  
( -3.77196e-05 2.64201e-05 -1.64705e-05 )  
( -0.000844637 0.00187307 0.00956411 )  
( 0.00111928 0.00190446 0.0108338 )  
( 1.28084e-05 0.00029536 0.000389295 )  
( -0.000955924 0.000561473 0.000121105 )  
( -0.00162254 -0.000102299 0.0145358 )  
( -0.000400926 0.00573534 0.012036 )  
( 0.000524802 -2.40156e-05 0.0124854 )  
( -0.000601366 0.00412227 0.0185217 )  
( -0.0001076 1.45439e-05 -5.90417e-05 )  
( -0.000768367 -0.00116407 -7.81664e-07 )  
( -0.00106938 0.000252702 0.00383403 )  
( -0.00200734 0.00209482 0.00921982 )  
( -0.000199013 0.00135529 0.0104384 )  
( 0.00113787 -0.000409218 0.000142443 )  
( 0.000325376 0.00199327 0.0123374 )  
( -0.000691853 -0.0031975 0.00822606 )  
( 0.000426919 0.00235935 0.0119886 )  
( -0.00160888 -0.000876145 -0.00086511 )  
( -0.00388417 0.00190934 0.0026414 )  
( -0.00166126 -0.0008085 -0.000542345 )  
( -0.00109098 0.000643827 0.000985535 )  
( 0.00175931 0.000731254 0.0080204 )  
( -0.00256319 0.00157216 -0.000106833 )  
( 0.00061555 0.000513618 0.0122805 )  
( -0.000202432 0.000834791 0.0105456 )  
( 0.00061046 0.00119925 0.0099691 )  
( -0.000259305 0.000222211 0.0115712 )  
( -0.000896102 0.001925 0.0139767 )  
( -0.00116636 -0.00014933 0.000546645 )  
( 0.000192084 0.00194837 0.0113353 )  
( -0.00126649 0.00121992 0.0136842 )  
( -0.00016904 0.000277094 0.0131848 )  
( -0.000309863 0.000273742 0.0122763 )  
( -0.00131004 0.00157918 0.0103181 )  
( -0.00130676 0.000691147 0.0117744 )  
( -0.000446901 7.35333e-05 0.000127808 )  
( -0.000591159 0.000428883 0.0163037 )  
( -0.00128656 0.000796362 7.66545e-05 )  
( -0.00193185 0.00253697 0.0042631 )  
( -0.00182529 0.0010902 0.0114748 )  
( 0.00020379 0.000152038 -2.05678e-05 )  
( -0.00275013 0.00321982 0.0122381 )  
( 0.00064381 0.000425631 0.00588373 )  
( -0.000331783 0.002573 0.0119086 )  
( -0.0017917 -0.000659305 -0.000119803 )  
( -0.00119097 0.000877971 0.0128586 )  
( -0.00204193 0.000773655 0.0103345 )  
( -0.00218944 0.000766212 -0.00171192 )  
( -0.00221226 0.00294638 0.00220187 )  
( -0.00116815 0.0020565 0.0123522 )  
( -0.000732591 0.0025131 0.00960981 )  
( 0.00041249 -2.45723e-05 0.000408817 )  
( -0.000660739 0.00298136 -0.00220746 )  
( 0.000580365 -0.00049758 0.00626599 )  
( -0.000577126 0.000845318 0.0120246 )  
( -0.00011807 0.000185211 -2.15911e-05 )  
( -0.000683043 0.00083035 0.0119786 )  
( -0.00242413 -0.0027618 0.00585405 )  
( -7.63713e-05 -0.000310027 -5.68135e-05 )  
( -0.00290896 0.00131833 -0.000996583 )  
( 0.00274781 0.00463344 0.0116174 )  
( -0.000714313 0.00113893 0.0116482 )  
( -0.00467699 -0.00159129 0.00409547 )  
( 0.000606483 0.00216456 0.0137896 )  
( -0.000270223 0.00649487 0.0115668 )  
( -0.00133222 0.00274106 0.0137747 )  
( 0.000160887 -0.000326107 -0.0019513 )  
( 0.000556829 0.00194098 0.0107395 )  
( 0.000251471 0.000379035 -0.000742285 )  
( -0.00137087 0.000529404 0.000159645 )  
( -0.00130612 0.000722994 0.00982917 )  
( 6.02757e-05 0.00203389 0.0118113 )  
( 3.94186e-05 -0.000112041 -7.56953e-05 )  
( -8.12724e-06 -0.000119898 0.0003448 )  
( -6.96523e-05 0.00195223 0.0092905 )  
( -0.00127558 -0.000117757 0.000627278 )  
( -0.00159332 -0.000489503 0.0135574 )  
( 0.00153575 0.00152185 0.0106522 )  
( -0.000846039 9.46276e-05 0.0113295 )  
( -0.000811236 0.000681259 0.011751 )  
( 0.00192043 0.00171652 0.000711225 )  
( 0.000538777 0.00207578 0.00967815 )  
( -0.000383881 -0.000273578 -0.000123008 )  
( -0.000638369 0.00167993 0.00913383 )  
( -0.000785892 0.000266184 9.97917e-05 )  
( -0.000598813 -0.000120247 5.84909e-05 )  
( -0.00140355 0.000655171 0.0110757 )  
( 0.000203393 3.40175e-05 8.46292e-05 )  
( -0.000594946 0.00110612 0.011464 )  
( -0.00312791 -0.00060388 0.00934857 )  
( -5.94199e-05 -0.000750307 1.24116e-05 )  
( 0.000388193 -0.000275819 0.000128957 )  
( 0.000131841 -8.42789e-05 -0.00091212 )  
( -0.000746827 -0.000521626 0.000497391 )  
( -0.000317757 0.00231495 0.0138902 )  
( -0.000525356 0.000188028 -0.000242623 )  
( 0.000462603 0.000364432 0.0118357 )  
( 0.000400953 0.00260313 -0.00225477 )  
( -0.00295091 0.00179376 0.00036168 )  
( 0.00167205 0.000732053 -0.0022547 )  
( 0.00063523 -0.000735714 0.00742656 )  
( -0.0017317 0.0034749 0.0126844 )  
( -3.10887e-05 -0.00262529 -0.000939527 )  
( -0.000250278 -0.00026326 -0.00014588 )  
( -0.00340822 0.00153344 -0.0028338 )  
( -0.000273081 -0.000173745 -0.000142741 )  
( -8.07577e-05 -0.000700754 0.00802518 )  
( -0.0028047 0.000351194 -0.000257049 )  
( -0.00297548 0.00527735 0.0113784 )  
( -0.00300779 0.00215381 0.0112745 )  
( -0.00153535 0.0015864 0.011676 )  
( -0.000539968 0.00103446 -2.38587e-05 )  
( 0.000867567 0.00114499 0.0103374 )  
( 0.00151524 0.000726888 0.0121751 )  
( -0.000347215 0.000890287 0.0101512 )  
( 0.00311251 0.00134887 0.00964218 )  
( -0.003378 0.00251288 0.0124421 )  
( -0.00528896 -0.000731824 0.00470735 )  
( -0.00117129 0.000308384 0.0120358 )  
( -0.00203057 0.00224255 0.0118354 )  
( -0.00279392 0.00258937 0.0132464 )  
( 0.000247797 0.00112226 0.0138417 )  
( -0.00200686 0.00320941 0.01322 )  
( 0.000964344 0.00157727 0.0105497 )  
( -0.00379167 0.000725394 -0.00440959 )  
( 0.000233482 0.000424903 0.0143345 )  
( -0.00111248 0.000467162 0.0145061 )  
( 1.90159e-05 0.00301448 0.00888054 )  
( -0.000263927 0.00213685 0.0107165 )  
( -0.00122773 0.00156488 0.00982438 )  
( -0.00088517 0.00389957 0.00911939 )  
( -0.00166241 0.0022331 0.0145169 )  
( -0.000158325 0.00125819 0.0104666 )  
( 0.000678656 0.00178321 -0.00169892 )  
( -0.00087334 -0.000902905 1.1719e-06 )  
( -0.000789073 0.00206791 0.00939193 )  
( -0.000331629 0.00225139 0.0118376 )  
( -0.00284113 0.00325855 0.00145524 )  
( 0.00364215 -0.00185148 0.00952092 )  
( -1.25383e-05 0.00179649 0.0107499 )  
( -0.000797103 0.00240109 0.00966496 )  
( -0.00120299 0.00292629 0.0139922 )  
( -0.00053403 -0.000117719 0.0145228 )  
( 0.000549465 0.00122214 -0.000687227 )  
( -0.000498025 0.000839619 0.0100638 )  
( 0.00429983 -0.00365161 0.015648 )  
( 0.00202004 6.22848e-05 0.00745738 )  
( -0.00205456 0.00169583 0.0157422 )  
( -0.00090894 0.00177524 0.013835 )  
( -0.000471686 -0.00017476 -0.00251073 )  
( 4.54008e-05 0.00246932 0.00943261 )  
( -7.65866e-05 1.28758e-05 -4.40875e-06 )  
( 0.00189023 -0.000102393 0.00851848 )  
( 0.000315137 -0.000428353 -0.000185089 )  
( 0.000175233 -0.0016135 -0.000376698 )  
( 0.000118891 -0.00154827 -0.000289855 )  
( 0.000475674 0.000726869 5.42301e-05 )  
( -0.00040871 0.0015566 0.0137688 )  
( -0.00130788 0.000912368 1.86425e-06 )  
( 5.7376e-05 -3.84191e-05 -0.00245956 )  
( -0.000312606 0.00263556 0.00252603 )  
( -0.00193407 0.0013352 0.0104706 )  
( 0.0005043 0.000461729 0.000130963 )  
( 0.001569 0.00515923 0.00926334 )  
( -0.000288003 0.000148628 9.10006e-05 )  
( 0.000113029 -0.000108742 1.08768e-05 )  
( 0.000443124 0.000489499 0.0101559 )  
( 0.000307949 0.000823197 0.0145771 )  
( -0.00230662 -0.000258517 0.000366915 )  
( -0.000316997 -0.000150441 -0.000572185 )  
( 0.00118787 0.000946839 0.00578557 )  
( -0.00107701 0.0015836 0.0142434 )  
( 0.00312324 0.000570096 0.00238623 )  
( 1.27309e-05 0.000917899 2.38603e-05 )  
( 0.000411177 -0.000325942 0.0145004 )  
( -0.00237328 0.00151109 0.0107774 )  
( -0.00140158 0.000183129 0.014076 )  
( 0.000771577 0.00228031 0.00921308 )  
( -0.000113546 0.00151734 0.0126086 )  
( 0.00247744 -0.000527087 -0.00115695 )  
( -0.000938521 -0.000936507 0.0121583 )  
( -4.97574e-05 0.000906931 0.00980936 )  
( -0.00215822 0.000153704 0.0103074 )  
( -0.000660608 -0.000412628 -0.000517325 )  
( -0.000201013 -0.000303288 1.07037e-05 )  
( -0.000400046 -0.000204809 -0.00016352 )  
( 0.00113327 0.00165573 0.00524211 )  
( -0.00132079 0.000689148 0.01227 )  
( -0.00106542 -0.000583511 -0.000431436 )  
( -0.000809378 -0.000230725 0.000696953 )  
( -0.000568987 -0.000990127 0.000159163 )  
( 0.000687495 0.00292174 0.0125254 )  
( 0.00191075 0.00292076 0.0177494 )  
( -0.000900182 0.00168739 0.00942493 )  
( -0.00112667 -0.000267373 0.0128973 )  
( 7.16946e-05 -6.52855e-05 -2.58239e-05 )  
( -0.00121455 0.000887762 0.0124829 )  
( 0.000793464 0.000420405 0.00925175 )  
( 0.00204776 -0.000528331 0.0110188 )  
( -0.00222618 0.000616224 0.000889856 )  
( -0.000845828 0.00094877 0.0111324 )  
( 0.00123588 0.00283531 0.0124465 )  
( 0.000676359 -3.66259e-05 0.0135924 )  
( -0.00155441 0.000469255 0.0129707 )  
( -0.00169563 0.000590381 0.0115705 )  
( 0.000135039 -2.85005e-05 -0.000176095 )  
( 0.000983259 -0.000993502 -0.000345932 )  
( 0.000301674 -2.53222e-05 -2.94592e-05 )  
( -0.00041458 0.00209315 0.0154494 )  
( -0.00117181 0.00176898 0.0111277 )  
( -0.000686509 -0.00158469 -0.000363765 )  
( 0.000332286 -0.000510204 -4.5672e-05 )  
( -0.000153154 0.000886278 0.000174419 )  
( -0.00233381 0.00373399 0.013583 )  
( -0.000821351 0.00171698 0.0145978 )  
( -0.00363622 0.00143939 0.0101431 )  
( -0.00109583 -0.00093447 -0.000161516 )  
( -0.0022858 0.000583279 0.000587093 )  
( 0.000533375 -0.00036864 -0.000177823 )  
( -0.000956497 0.000528063 9.29361e-07 )  
( 0.00219954 0.00381803 0.0125848 )  
( -0.00162265 0.00256592 0.0143944 )  
( 0.00160848 0.00174279 0.0037269 )  
( 0.00202859 0.000728909 0.00132883 )  
( -0.00364592 0.0020866 0.0113977 )  
( 0.00110868 0.00211934 0.00797966 )  
( -0.00242344 0.001838 0.0116618 )  
( -0.00261495 0.00188863 0.0129895 )  
( 0.00113668 0.0014711 -0.00158191 )  
( -0.000808503 0.00368493 0.00532461 )  
( -0.00085637 0.000426422 0.0128571 )  